Title
81370
    1CHL1    C3    1   1.949   1.901  10.249 -1.2067 -0.6189 -0.7212
    1CHL1    H3    2   2.011   1.981  10.202 -0.2542 -0.1444  1.2630
    1CHL1    O3    3   1.930   1.917  10.389 -0.0189  0.2789 -0.1018
    1CHL1   H3'    4   1.881   1.842  10.422 -4.8040  3.4643  1.0121
    1CHL1    C4    5   1.816   1.898  10.176 -0.3006 -0.5512  0.2029
    1CHL1   H4A    6   1.746   1.832  10.233 -0.7967 -0.5759 -0.4283
    1CHL1   H4B    7   1.784   2.000  10.206 -1.9924 -1.2436  0.8808
    1CHL1    C5    8   1.817   1.865  10.024 -0.3961  0.2254 -0.0224
    1CHL1    C6    9   1.772   1.949   9.931  0.2247 -0.3659  0.6187
    1CHL1    H6   10   1.724   2.043   9.963  1.5482  0.7386 -0.5517
    1CHL1    C7   11   1.791   1.922   9.781  0.2093  0.2058 -0.1889
    1CHL1   H7A   12   1.694   1.962   9.745 -1.2805  0.7823  3.9474
    1CHL1   H7B   13   1.872   1.986   9.739 -1.6765  2.1429 -1.0900
    1CHL1    C8   14   1.812   1.779   9.748  0.2166  0.4388  0.2624
    1CHL1    H8   15   1.718   1.721   9.756  0.1891  0.0764 -1.9464
    1CHL1   C14   16   1.851   1.774   9.604  0.3619 -0.4707  0.1898
    1CHL1   H14   17   1.944   1.835   9.601  0.4211 -0.5828 -1.4819
    1CHL1   C15   18   1.770   1.837   9.488  0.4472 -0.4515 -0.3437
    1CHL1  H15A   19   1.663   1.824   9.516  0.8631  1.6538  2.6858
    1CHL1  H15B   20   1.777   1.946   9.470  2.2624 -0.6006 -0.6682
    1CHL1   C16   21   1.803   1.765   9.355 -0.1647  0.5298 -0.4105
    1CHL1  H16A   22   1.710   1.735   9.303 -0.5091 -1.7180  1.3641
    1CHL1  H16B   23   1.863   1.832   9.289  2.2175 -0.5724  0.5088
    1CHL1   C17   24   1.897   1.649   9.398  0.0143 -0.0919  0.0122
    1CHL1   H17   25   1.994   1.704   9.394  0.1858 -0.4593 -1.1461
    1CHL1   C13   26   1.879   1.627   9.552 -0.0966  0.2024  0.1370
    1CHL1   C18   27   1.740   1.547   9.562 -0.2178  0.5898  0.4899
    1CHL1  H18A   28   1.743   1.452   9.504  1.3033  0.0238  1.4348
    1CHL1  H18B   29   1.729   1.519   9.669 -1.9226  2.0906  0.7460
    1CHL1  H18C   30   1.655   1.608   9.525  1.7879  1.6259 -2.8732
    1CHL1   C12   31   1.989   1.570   9.641 -0.0176 -0.0858 -0.0209
    1CHL1  H12A   32   2.006   1.467   9.602 -1.1338 -0.5361  0.6520
    1CHL1  H12B   33   2.088   1.618   9.626  0.1796 -0.7221 -0.8795
    1CHL1   C11   34   1.961   1.574   9.792 -0.1588  0.0161 -0.4862
    1CHL1  H11A   35   1.881   1.500   9.814  0.6788 -0.5246  0.8560
    1CHL1  H11B   36   2.051   1.545   9.851  0.4458  0.8797 -0.9634
    1CHL1    C9   37   1.916   1.715   9.839 -0.6384 -0.0880  0.5120
    1CHL1    H9   38   1.997   1.790   9.823  0.7368 -1.6881 -0.3602
    1CHL1   C10   39   1.897   1.735   9.996  0.5358 -0.4500  0.0808
    1CHL1   C19   40   1.806   1.622  10.047  0.8177 -0.1956 -0.2942
    1CHL1  H19A   41   1.699   1.633  10.017  0.4626 -0.9561  0.6637
    1CHL1  H19B   42   1.850   1.528  10.008  1.3072  0.5170 -1.5102
    1CHL1  H19C   43   1.811   1.620  10.158 -0.3133  3.5824 -0.0177
    1CHL1    C1   44   2.038   1.743  10.075  0.3218  0.4457 -0.2570
    1CHL1   H1A   45   2.085   1.642  10.074 -1.0010 -0.2889  2.2400
    1CHL1   H1B   46   2.095   1.823  10.023 -0.7720  1.9860  0.8200
    1CHL1    C2   47   2.024   1.769  10.227 -0.4839 -0.3511 -0.1438
    1CHL1   H2A   48   2.129   1.775  10.263 -1.0328  2.6224  1.2126
    1CHL1   H2B   49   1.970   1.685  10.276 -1.0486  1.4339  2.5084
    1CHL1   C20   50   1.918   1.525   9.309 -0.2116  0.6606 -0.9367
    1CHL1   H20   51   1.868   1.441   9.361 -0.0870  0.0095 -1.8224
    1CHL1   C21   52   2.067   1.491   9.308  0.6879  0.4121  0.0664
    1CHL1  H21A   53   2.115   1.565   9.240  2.8819 -0.5794  0.4824
    1CHL1  H21B   54   2.089   1.392   9.263 -0.5505  0.9931 -1.9598
    1CHL1  H21C   55   2.120   1.509   9.404 -0.8948  2.0374  0.6976
    1CHL1   C22   56   1.850   1.521   9.169 -0.5398 -0.0849  0.4163
    1CHL1  H22A   57   1.745   1.555   9.178  0.1166  2.1948  0.1805
    1CHL1  H22B   58   1.914   1.592   9.112  3.1769 -4.3987 -1.4920
    1CHL1   C23   59   1.842   1.383   9.098  0.7446 -0.2420 -0.2987
    1CHL1  H23A   60   1.942   1.357   9.056  1.1304 -1.0271  1.0479
    1CHL1  H23B   61   1.803   1.319   9.180 -0.6312  1.2938  0.2895
    1CHL1   C24   62   1.745   1.364   8.979  0.3973  0.4027 -0.0279
    1CHL1  H24A   63   1.638   1.389   8.999  0.5799  0.7624  0.5245
    1CHL1  H24B   64   1.776   1.427   8.893  0.6078 -0.1727 -0.3815
    1CHL1   C25   65   1.745   1.220   8.909 -0.1933 -0.3586  0.1215
    1CHL1   H25   66   1.706   1.144   8.979  1.3327 -1.0729  0.2233
    1CHL1   C26   67   1.661   1.222   8.779 -0.6264  0.3150 -0.3141
    1CHL1  H26A   68   1.561   1.267   8.798 -0.6851  1.7513 -3.3732
    1CHL1  H26B   69   1.728   1.282   8.715  1.9372 -1.9314  0.0987
    1CHL1  H26C   70   1.656   1.123   8.729  0.9896 -0.1382  0.3504
    1CHL1   C27   71   1.886   1.178   8.873  0.2403  0.1948  0.2081
    1CHL1  H27A   72   1.880   1.074   8.835  1.5604  0.3730 -0.5742
    1CHL1  H27B   73   1.935   1.238   8.793 -0.8731  0.4423 -0.3032
    1CHL1  H27C   74   1.950   1.173   8.964 -1.0903  1.1412  1.2496
    2CHL1    C3   75   3.570   6.528   9.841  0.0645  0.4728 -0.1661
    2CHL1    H3   76   3.468   6.494   9.814 -1.0216  1.8343  1.9387
    2CHL1    O3   77   3.567   6.527   9.984  0.1263  0.2664  0.3673
    2CHL1   H3'   78   3.639   6.584  10.013  0.6904 -0.5896  0.6973
    2CHL1    C4   79   3.675   6.425   9.797 -0.0933 -0.2632  0.3865
    2CHL1   H4A   80   3.760   6.469   9.853 -0.2866  0.1894  0.3281
    2CHL1   H4B   81   3.653   6.329   9.847  0.7568 -0.3915  0.5243
    2CHL1    C5   82   3.693   6.416   9.648 -0.6592 -0.2362  0.0084
    2CHL1    C6   83   3.701   6.297   9.593 -0.0448 -0.2270 -0.2243
    2CHL1    H6   84   3.689   6.207   9.654 -0.7903  0.5274  0.7672
    2CHL1    C7   85   3.722   6.285   9.444  0.3681 -0.0888  0.1267
    2CHL1   H7A   86   3.765   6.185   9.422  2.3559  0.6630  0.4320
    2CHL1   H7B   87   3.621   6.270   9.399  0.6819 -0.9123 -0.3292
    2CHL1    C8   88   3.780   6.404   9.374  0.2954 -0.3114  0.5168
    2CHL1    H8   89   3.886   6.421   9.403 -0.6815  1.2205  3.6265
    2CHL1   C14   90   3.753   6.386   9.228 -0.0291  0.1559 -0.3445
    2CHL1   H14   91   3.646   6.397   9.200  1.3006  2.1569 -6.1437
    2CHL1   C15   92   3.791   6.256   9.157  0.2221  0.1142 -0.5970
    2CHL1  H15A   93   3.898   6.231   9.173 -0.2148 -2.4828 -1.1923
    2CHL1  H15B   94   3.723   6.175   9.190 -0.2414  0.3622 -0.9326
    2CHL1   C16   95   3.779   6.298   9.005 -0.0537  0.5209  0.3394
    2CHL1  H16A   96   3.868   6.253   8.956  0.0995  0.9826  0.1947
    2CHL1  H16B   97   3.686   6.246   8.972  0.5202 -0.0202 -0.4327
    2CHL1   C17   98   3.783   6.451   8.999 -0.1964 -0.0693  0.3764
    2CHL1   H17   99   3.676   6.483   8.997 -0.7449 -1.7604 -0.4958
    2CHL1   C13  100   3.808   6.500   9.139  0.3839 -0.0736  0.2445
    2CHL1   C18  101   3.958   6.511   9.165 -0.2479 -0.7717  0.2406
    2CHL1  H18A  102   4.013   6.417   9.141  0.7729  0.0483 -0.7275
    2CHL1  H18B  103   3.985   6.604   9.111 -1.3056  0.2470  1.4013
    2CHL1  H18C  104   3.985   6.529   9.271 -0.6936 -2.2204  0.6292
    2CHL1   C12  105   3.739   6.626   9.183 -0.8889 -0.0337  0.9551
    2CHL1  H12A  106   3.790   6.711   9.132  1.3832 -3.2726 -2.7364
    2CHL1  H12B  107   3.635   6.622   9.145  0.2149  0.8599 -2.5214
    2CHL1   C11  108   3.745   6.647   9.334  0.4196 -0.0924 -0.5168
    2CHL1  H11A  109   3.845   6.692   9.355 -0.7529  2.0819  0.7755
    2CHL1  H11B  110   3.675   6.731   9.354 -0.1964 -0.7663  0.1881
    2CHL1    C9  111   3.700   6.528   9.421 -0.1672  0.0085 -0.1846
    2CHL1    H9  112   3.593   6.510   9.397 -0.2494  1.7005 -1.2621
    2CHL1   C10  113   3.711   6.548   9.575  0.0051  0.3884 -0.1266
    2CHL1   C19  114   3.852   6.603   9.616 -0.2253  0.3743 -0.2041
    2CHL1  H19A  115   3.851   6.604   9.727 -1.9100 -0.0064 -0.1880
    2CHL1  H19B  116   3.930   6.527   9.593 -0.8664 -0.6278  0.7948
    2CHL1  H19C  117   3.880   6.694   9.560 -1.7312  1.8491  1.3076
    2CHL1    C1  118   3.599   6.650   9.627 -0.4936  0.4375 -0.1409
    2CHL1   H1A  119   3.612   6.747   9.576  0.8269  0.3711  0.0216
    2CHL1   H1B  120   3.509   6.610   9.577  0.1252  1.5682 -2.2640
    2CHL1    C2  121   3.594   6.665   9.784  0.3298  0.3619  0.6060
    2CHL1   H2A  122   3.513   6.735   9.811 -0.4869  0.3181 -1.5378
    2CHL1   H2B  123   3.695   6.704   9.810 -0.0506  0.9224  1.2780
    2CHL1   C20  124   3.854   6.523   8.887  0.2704 -0.2252  0.5505
    2CHL1   H20  125   3.867   6.629   8.917 -1.6773  0.6526 -1.3946
    2CHL1   C21  126   3.760   6.523   8.773  0.7254  0.2899  0.0190
    2CHL1  H21A  127   3.806   6.587   8.694  1.7284 -0.6095 -0.1543
    2CHL1  H21B  128   3.657   6.558   8.797  0.7662  0.6222 -0.2693
    2CHL1  H21C  129   3.747   6.422   8.728  3.8771 -0.8078  1.2959
    2CHL1   C22  130   3.995   6.481   8.826 -0.5465 -0.1242 -0.3557
    2CHL1  H22A  131   4.045   6.427   8.910 -1.6738 -1.3305 -0.4269
    2CHL1  H22B  132   3.972   6.410   8.744  2.1028 -1.0004 -0.4379
    2CHL1   C23  133   4.089   6.587   8.768  0.1113 -0.3618 -0.3477
    2CHL1  H23A  134   4.035   6.644   8.691  0.4900  0.2943 -0.1399
    2CHL1  H23B  135   4.098   6.656   8.855 -0.8323 -2.0199  1.1320
    2CHL1   C24  136   4.224   6.532   8.728 -0.4111 -0.5248  0.4876
    2CHL1  H24A  137   4.272   6.484   8.816 -0.4012 -1.8464 -0.2169
    2CHL1  H24B  138   4.215   6.448   8.656 -1.8561  0.3414 -0.4171
    2CHL1   C25  139   4.328   6.633   8.661 -0.2457 -0.1218  0.5862
    2CHL1   H25  140   4.360   6.703   8.741  1.5112  0.0666 -0.2390
    2CHL1   C26  141   4.464   6.566   8.620 -0.1224  0.4956  0.3511
    2CHL1  H26A  142   4.528   6.640   8.567 -0.3002  1.3507  1.2867
    2CHL1  H26B  143   4.517   6.526   8.709  0.3598 -1.1550 -0.6429
    2CHL1  H26C  144   4.437   6.485   8.550 -1.2378  1.9291 -0.9663
    2CHL1   C27  145   4.269   6.701   8.535  0.2152 -0.0705 -0.1723
    2CHL1  H27A  146   4.170   6.748   8.547  0.4104  0.5818 -1.0213
    2CHL1  H27B  147   4.340   6.775   8.491  0.4832 -0.4187 -0.3312
    2CHL1  H27C  148   4.247   6.625   8.457 -1.6247 -0.7171  0.9356
    3CHL1    C3  149   3.985   6.115  10.191  0.2043  0.3870 -0.1926
    3CHL1    H3  150   4.026   6.013  10.204 -0.4889  0.0028 -0.9719
    3CHL1    O3  151   3.922   6.154  10.312 -0.3682 -0.6360 -0.0604
    3CHL1   H3'  152   3.846   6.102  10.336 -2.1176  2.1055  0.7462
    3CHL1    C4  153   4.093   6.217  10.155 -0.0150  0.0503 -0.3221
    3CHL1   H4A  154   4.056   6.318  10.182  2.9993  1.7445 -2.0660
    3CHL1   H4B  155   4.169   6.192  10.231  0.1196 -2.1760 -1.1009
    3CHL1    C5  156   4.152   6.206  10.021 -0.7044  0.3192 -0.7134
    3CHL1    C6  157   4.288   6.209  10.004  0.3710 -0.1956 -0.2899
    3CHL1    H6  158   4.355   6.232  10.089  0.3872  0.9441 -0.5935
    3CHL1    C7  159   4.362   6.213   9.875  0.2444  0.3096 -1.2481
    3CHL1   H7A  160   4.436   6.296   9.873  2.6573 -1.7240 -3.5682
    3CHL1   H7B  161   4.423   6.123   9.853 -1.6209 -0.5964 -3.0299
    3CHL1    C8  162   4.263   6.233   9.752 -0.6213 -0.6302  0.0653
    3CHL1    H8  163   4.240   6.341   9.757 -2.7334 -1.0842  0.7301
    3CHL1   C14  164   4.328   6.182   9.626  0.0769 -0.1106 -0.2142
    3CHL1   H14  165   4.335   6.071   9.635 -1.2206 -0.1819  0.1611
    3CHL1   C15  166   4.457   6.249   9.595 -0.4946  0.0462  0.2833
    3CHL1  H15A  167   4.445   6.357   9.621  0.5220  0.0848  0.6806
    3CHL1  H15B  168   4.540   6.220   9.663 -0.1842  2.2349  0.9419
    3CHL1   C16  169   4.477   6.218   9.446 -0.1727  0.0930 -0.2186
    3CHL1  H16A  170   4.510   6.317   9.408  3.5898  0.0169  2.3015
    3CHL1  H16B  171   4.560   6.147   9.426 -1.6760 -1.3364 -1.6765
    3CHL1   C17  172   4.348   6.161   9.392 -0.5242  0.3629 -0.3323
    3CHL1   H17  173   4.360   6.050   9.395  0.8169  0.4030 -2.2714
    3CHL1   C13  174   4.247   6.207   9.504  0.2873  0.3152 -0.2393
    3CHL1   C18  175   4.215   6.349   9.474 -0.8349 -0.5774 -0.7283
    3CHL1  H18A  176   4.140   6.349   9.392  0.5411  0.2744 -2.0485
    3CHL1  H18B  177   4.167   6.396   9.563  1.5433  0.6100  0.0237
    3CHL1  H18C  178   4.300   6.417   9.450 -0.6539  0.8051  3.1234
    3CHL1   C12  179   4.115   6.124   9.516 -0.5017  0.6463  0.1898
    3CHL1  H12A  180   4.050   6.158   9.433  0.1190 -3.1444 -2.0957
    3CHL1  H12B  181   4.150   6.020   9.495  2.0710  1.4933 -0.0914
    3CHL1   C11  182   4.043   6.151   9.651  0.2564 -0.1479  0.4515
    3CHL1  H11A  183   4.003   6.253   9.639  0.0999 -0.2908 -0.3384
    3CHL1  H11B  184   3.968   6.072   9.669  0.3447 -0.0946  1.0557
    3CHL1    C9  185   4.131   6.159   9.780 -0.3551  0.4634 -0.2952
    3CHL1    H9  186   4.167   6.054   9.784 -0.1925  0.5085 -0.5220
    3CHL1   C10  187   4.054   6.193   9.909 -1.1831 -0.2283  0.1411
    3CHL1   C19  188   3.997   6.331   9.894 -0.2076 -0.5597  0.1364
    3CHL1  H19A  189   4.072   6.403   9.855  1.6249 -1.8258  1.2145
    3CHL1  H19B  190   3.919   6.323   9.816 -2.8318 -1.2556  2.6351
    3CHL1  H19C  191   3.942   6.377   9.980  1.0360  0.8809  0.2066
    3CHL1    C1  192   3.941   6.092   9.942  0.3315  0.0947 -0.2748
    3CHL1   H1A  193   3.866   6.091   9.861  0.0031  1.7176 -0.0276
    3CHL1   H1B  194   3.983   5.989   9.942  0.1102 -0.0082 -1.4175
    3CHL1    C2  195   3.878   6.111  10.085  0.1641  0.3306  0.8160
    3CHL1   H2A  196   3.807   6.028  10.103 -0.1587  0.6517  1.0305
    3CHL1   H2B  197   3.820   6.206  10.084 -2.3813 -1.1500  1.0532
    3CHL1   C20  198   4.316   6.195   9.245 -0.5158 -0.4018 -0.2472
    3CHL1   H20  199   4.290   6.303   9.246  1.5165  0.1280  1.5466
    3CHL1   C21  200   4.196   6.113   9.189  0.4004  0.8224  0.6544
    3CHL1  H21A  201   4.215   6.004   9.202  0.8941  0.5227 -1.9129
    3CHL1  H21B  202   4.198   6.143   9.082  0.9406  0.2396  0.4937
    3CHL1  H21C  203   4.094   6.136   9.224 -1.1640 -1.2501 -2.0543
    3CHL1   C22  204   4.434   6.175   9.154 -0.0497 -0.3484 -0.6638
    3CHL1  H22A  205   4.536   6.175   9.198  0.4560  0.0015 -1.7864
    3CHL1  H22B  206   4.422   6.070   9.120 -1.4396 -0.3250 -0.2967
    3CHL1   C23  207   4.440   6.272   9.029 -0.0766 -0.2211 -0.2637
    3CHL1  H23A  208   4.335   6.268   8.992 -1.4608  0.5314  3.1846
    3CHL1  H23B  209   4.452   6.379   9.055  0.2263 -0.2375 -0.3351
    3CHL1   C24  210   4.544   6.232   8.921 -0.2647  0.1212 -0.1268
    3CHL1  H24A  211   4.546   6.305   8.838 -0.4397 -0.7723 -0.9239
    3CHL1  H24B  212   4.646   6.227   8.966 -0.3244 -3.7807 -0.0542
    3CHL1   C25  213   4.505   6.100   8.853  0.2939  0.8168 -0.2157
    3CHL1   H25  214   4.453   6.043   8.932 -1.3581  0.9921 -1.1265
    3CHL1   C26  215   4.398   6.123   8.750  0.5523  0.1634  0.3197
    3CHL1  H26A  216   4.435   6.184   8.665 -0.2901 -1.7096 -1.5001
    3CHL1  H26B  217   4.355   6.035   8.696 -1.9560  1.6593 -0.2489
    3CHL1  H26C  218   4.312   6.173   8.799 -0.3882  0.0799 -1.1837
    3CHL1   C27  219   4.622   6.023   8.784 -0.2498 -0.1577  0.0759
    3CHL1  H27A  220   4.589   5.928   8.737 -1.5216  0.2237  0.1483
    3CHL1  H27B  221   4.662   6.085   8.701  2.3761 -2.5247 -0.5493
    3CHL1  H27C  222   4.699   6.007   8.862 -2.5464 -2.9965  1.9747
    4CHL1    C3  223   2.304   2.095  10.400  0.5893  0.5153 -0.0017
    4CHL1    H3  224   2.274   1.994  10.365  0.5923  0.2913  0.6321
    4CHL1    O3  225   2.281   2.103  10.544 -1.0940  0.2262  0.3228
    4CHL1   H3'  226   2.251   2.194  10.553  0.0603  0.4834  2.3209
    4CHL1    C4  227   2.449   2.135  10.381  0.7992  0.3466 -0.5675
    4CHL1   H4A  228   2.448   2.236  10.428  0.2948  0.1508 -0.1608
    4CHL1   H4B  229   2.521   2.066  10.430  1.1857  0.5915 -0.7824
    4CHL1    C5  230   2.495   2.151  10.238  1.0469 -0.3242  0.4670
    4CHL1    C6  231   2.612   2.094  10.200  0.4937  0.0078  0.5013
    4CHL1    H6  232   2.677   2.030  10.261  1.5820  0.5270 -0.0921
    4CHL1    C7  233   2.669   2.132  10.070  0.1499  0.7926  0.1210
    4CHL1   H7A  234   2.778   2.154  10.077  0.1171  1.8358 -1.8622
    4CHL1   H7B  235   2.673   2.039  10.009 -0.2579 -0.2884  1.7078
    4CHL1    C8  236   2.595   2.234   9.980  0.2178  0.4237 -0.2354
    4CHL1    H8  237   2.636   2.335  10.002  0.8887  0.0695  0.1351
    4CHL1   C14  238   2.616   2.208   9.829  0.2172  0.5691 -0.0190
    4CHL1   H14  239   2.579   2.104   9.814 -0.1907  0.2427  2.8487
    4CHL1   C15  240   2.764   2.183   9.789 -0.2852  0.6942 -0.3476
    4CHL1  H15A  241   2.825   2.255   9.849  0.0294 -0.3667  0.6366
    4CHL1  H15B  242   2.798   2.080   9.814 -0.7001  0.4615 -0.7375
    4CHL1   C16  243   2.750   2.202   9.643 -0.0839 -0.6265  0.2834
    4CHL1  H16A  244   2.820   2.272   9.594  0.5877 -2.5889 -1.7263
    4CHL1  H16B  245   2.776   2.107   9.591 -0.8189 -0.0976 -1.0886
    4CHL1   C17  246   2.605   2.242   9.613  0.1820 -0.4287  0.9852
    4CHL1   H17  247   2.553   2.144   9.614  3.2979 -2.2419  0.3222
    4CHL1   C13  248   2.548   2.309   9.732 -0.3360 -0.1194  0.7626
    4CHL1   C18  249   2.605   2.459   9.750  0.0159  0.1580  0.0576
    4CHL1  H18A  250   2.711   2.464   9.717  0.1731 -1.3941  0.2391
    4CHL1  H18B  251   2.554   2.531   9.682  0.1127  0.6919  0.5447
    4CHL1  H18C  252   2.589   2.496   9.853  3.2402 -1.5264  1.2959
    4CHL1   C12  253   2.388   2.302   9.755  0.0691 -0.2681  0.0035
    4CHL1  H12A  254   2.335   2.376   9.691 -1.8200 -1.0841  0.5423
    4CHL1  H12B  255   2.352   2.201   9.728  0.0960 -0.9069  2.1972
    4CHL1   C11  256   2.366   2.333   9.908 -0.5697 -0.4090  0.0231
    4CHL1  H11A  257   2.387   2.440   9.929 -3.5858  0.1073  0.8307
    4CHL1  H11B  258   2.257   2.324   9.927 -1.0614 -1.4422 -2.7975
    4CHL1    C9  259   2.446   2.239   9.999  0.3583 -0.0462 -0.3645
    4CHL1    H9  260   2.419   2.142   9.952 -1.2052  0.6444 -0.9699
    4CHL1   C10  261   2.404   2.247  10.145 -0.4024 -0.1972 -0.3608
    4CHL1   C19  262   2.420   2.397  10.186  0.1659  0.7912 -0.4833
    4CHL1  H19A  263   2.386   2.420  10.289  2.0622  0.6783  0.1949
    4CHL1  H19B  264   2.523   2.433  10.170  1.1736 -0.7857  1.8839
    4CHL1  H19C  265   2.372   2.473  10.121 -0.6214  2.1392  1.5653
    4CHL1    C1  266   2.257   2.200  10.169  0.1727 -0.2739 -0.3966
    4CHL1   H1A  267   2.185   2.264  10.114 -0.4388 -0.9767 -0.4463
    4CHL1   H1B  268   2.236   2.102  10.120 -1.5700  1.6442 -3.8792
    4CHL1    C2  269   2.208   2.194  10.321 -0.0092  0.7116 -0.3409
    4CHL1   H2A  270   2.101   2.161  10.318 -0.1888  1.3149 -0.8790
    4CHL1   H2B  271   2.206   2.298  10.361 -2.3457  0.6285 -0.0539
    4CHL1   C20  272   2.598   2.314   9.478  0.5129  0.3179  0.3191
    4CHL1   H20  273   2.660   2.406   9.477  0.8865  0.0763  1.0302
    4CHL1   C21  274   2.447   2.348   9.436 -0.2745 -0.2173 -0.3643
    4CHL1  H21A  275   2.433   2.386   9.332 -0.5266  1.3577  0.2076
    4CHL1  H21B  276   2.407   2.421   9.511 -1.8727 -1.6882  0.2926
    4CHL1  H21C  277   2.393   2.253   9.454 -0.7879 -0.2903 -2.1051
    4CHL1   C22  278   2.652   2.228   9.355 -0.4337 -0.5925  0.5364
    4CHL1  H22A  279   2.645   2.297   9.269 -0.3896 -0.8114  0.3548
    4CHL1  H22B  280   2.761   2.208   9.352 -0.3965 -0.3327 -1.8989
    4CHL1   C23  281   2.577   2.089   9.333 -0.5057  0.0795 -1.0163
    4CHL1  H23A  282   2.600   2.024   9.420  0.3100 -0.1186 -1.3675
    4CHL1  H23B  283   2.468   2.109   9.335 -0.8615 -1.7587  0.2254
    4CHL1   C24  284   2.623   2.020   9.205 -0.4643 -0.1900 -0.4477
    4CHL1  H24A  285   2.540   1.952   9.177  0.1027 -1.2289  0.3314
    4CHL1  H24B  286   2.630   2.091   9.120 -0.4530  0.8811  0.4264
    4CHL1   C25  287   2.762   1.942   9.196  0.2791  0.4986 -0.2418
    4CHL1   H25  288   2.843   1.999   9.245  1.2685 -1.1495  0.1175
    4CHL1   C26  289   2.769   1.806   9.267 -0.0530  0.3954  0.3009
    4CHL1  H26A  290   2.708   1.725   9.222  2.3262 -1.9379  0.9875
    4CHL1  H26B  291   2.876   1.776   9.256  0.8689  2.8023  1.7577
    4CHL1  H26C  292   2.751   1.817   9.376 -0.2711 -1.4342  0.4746
    4CHL1   C27  293   2.796   1.919   9.053 -1.0943 -0.3886  0.2254
    4CHL1  H27A  294   2.721   1.858   8.998  2.0355 -2.7747 -1.7478
    4CHL1  H27B  295   2.802   2.018   9.003  0.7995 -0.1675  0.8232
    4CHL1  H27C  296   2.886   1.856   9.041 -1.1529 -0.6744  1.2558
    5CHL1    C3  297   5.275   6.196  10.142  0.8709  0.0967  0.2818
    5CHL1    H3  298   5.380   6.169  10.119 -0.0074 -3.1634 -0.4334
    5CHL1    O3  299   5.268   6.202  10.282  0.1780 -0.3583  0.4955
    5CHL1   H3'  300   5.197   6.140  10.300 -1.3428  1.2701  0.3742
    5CHL1    C4  301   5.253   6.330  10.079  0.3263 -0.6306 -0.1253
    5CHL1   H4A  302   5.165   6.370  10.135 -0.2532 -0.6703 -0.9977
    5CHL1   H4B  303   5.344   6.389  10.106  0.1084  0.4362 -1.5928
    5CHL1    C5  304   5.217   6.335   9.932  0.3321  0.1652  0.2715
    5CHL1    C6  305   5.289   6.409   9.845 -0.4515  0.2781  0.5330
    5CHL1    H6  306   5.379   6.460   9.882  0.2591  0.0827 -0.8540
    5CHL1    C7  307   5.275   6.406   9.696 -0.5867  0.2820  0.0493
    5CHL1   H7A  308   5.288   6.508   9.654  0.6445  1.0243  2.0855
    5CHL1   H7B  309   5.356   6.340   9.657  1.2571  1.0107  2.3983
    5CHL1    C8  310   5.139   6.349   9.650  0.1674 -0.2624  0.0956
    5CHL1    H8  311   5.051   6.416   9.664  1.2909  1.1157  0.7844
    5CHL1   C14  312   5.145   6.306   9.496 -0.8525 -0.0606 -0.3976
    5CHL1   H14  313   5.213   6.218   9.495 -0.4907  0.1875  0.6381
    5CHL1   C15  314   5.209   6.402   9.401  0.3853  0.1743  0.4650
    5CHL1  H15A  315   5.170   6.505   9.417  0.1661  0.1350  0.1857
    5CHL1  H15B  316   5.320   6.400   9.409  0.4522 -1.3410 -0.4110
    5CHL1   C16  317   5.174   6.348   9.260 -0.2789  0.6115  0.1385
    5CHL1  H16A  318   5.124   6.433   9.209 -0.7671  0.1602 -0.1512
    5CHL1  H16B  319   5.266   6.314   9.209  0.0555  0.3120  0.9362
    5CHL1   C17  320   5.077   6.223   9.283 -0.3224 -0.3201  0.1538
    5CHL1   H17  321   5.147   6.137   9.285  0.0569 -0.0287 -0.3927
    5CHL1   C13  322   5.021   6.249   9.428  0.7421 -0.3534 -0.5315
    5CHL1   C18  323   4.909   6.359   9.419 -0.6186 -1.0060  0.2021
    5CHL1  H18A  324   4.805   6.335   9.388 -0.3823 -1.1059 -0.5353
    5CHL1  H18B  325   4.893   6.405   9.519  1.6463  1.1328 -0.3102
    5CHL1  H18C  326   4.947   6.443   9.356  1.8552 -2.1142  0.1103
    5CHL1   C12  327   4.984   6.121   9.505  0.4300  0.2325 -0.0073
    5CHL1  H12A  328   4.879   6.089   9.488  0.1399  1.1572 -0.0431
    5CHL1  H12B  329   5.055   6.042   9.473 -0.6547 -0.2228 -1.3889
    5CHL1   C11  330   4.977   6.156   9.657 -0.3043  0.2279 -0.0372
    5CHL1  H11A  331   4.899   6.235   9.666 -1.2062 -0.7104  0.5121
    5CHL1  H11B  332   4.948   6.063   9.710 -0.3285 -1.1577 -2.3407
    5CHL1    C9  333   5.107   6.224   9.722 -0.8379  0.5240 -0.2880
    5CHL1    H9  334   5.180   6.149   9.685 -2.5473 -0.5643 -1.6466
    5CHL1   C10  335   5.110   6.237   9.877 -0.2157 -0.0508  0.1581
    5CHL1   C19  336   4.970   6.288   9.932  0.1744 -1.0682 -0.1032
    5CHL1  H19A  337   4.961   6.310  10.041 -0.8394 -0.5768 -0.2775
    5CHL1  H19B  338   4.936   6.382   9.883  0.5070 -1.6209 -1.4348
    5CHL1  H19C  339   4.893   6.212   9.910 -1.7561  0.5372  0.7540
    5CHL1    C1  340   5.146   6.098   9.937 -0.8624 -0.1410  0.4295
    5CHL1   H1A  341   5.061   6.031   9.912 -2.0891  1.2099  0.8829
    5CHL1   H1B  342   5.241   6.058   9.895 -0.9943 -0.1457  0.1364
    5CHL1    C2  343   5.166   6.105  10.089  0.7046  0.2825 -0.6136
    5CHL1   H2A  344   5.189   6.002  10.123  3.5604  0.4647 -1.7106
    5CHL1   H2B  345   5.073   6.139  10.140  2.0735 -0.3106  2.5074
    5CHL1   C20  346   4.980   6.207   9.166 -0.0758 -0.8865  0.0730
    5CHL1   H20  347   4.904   6.288   9.174  0.8231 -0.1684  2.0270
    5CHL1   C21  348   4.925   6.069   9.168 -0.4000  0.5769  0.3182
    5CHL1  H21A  349   4.868   6.038   9.078  1.1993 -3.2850  0.4481
    5CHL1  H21B  350   4.845   6.041   9.241 -1.7409 -2.1388 -1.9788
    5CHL1  H21C  351   5.010   5.999   9.186  0.0321  1.0052 -0.0485
    5CHL1   C22  352   5.051   6.239   9.027  0.8374  0.0272  0.4907
    5CHL1  H22A  353   5.076   6.347   9.016 -0.0654  0.2059  0.0567
    5CHL1  H22B  354   5.146   6.184   9.013  0.0137 -1.4131  0.2952
    5CHL1   C23  355   4.964   6.212   8.897 -0.1919 -0.3801 -0.0882
    5CHL1  H23A  356   4.955   6.102   8.879  1.4275 -0.3754 -1.1448
    5CHL1  H23B  357   4.867   6.265   8.909  0.0085 -0.1396  0.4607
    5CHL1   C24  358   5.029   6.281   8.771 -0.3632 -0.4974  0.0978
    5CHL1  H24A  359   5.024   6.387   8.801 -0.1339 -0.1204 -1.1200
    5CHL1  H24B  360   5.132   6.239   8.763 -0.1526 -0.4333  2.1182
    5CHL1   C25  361   4.958   6.267   8.634 -0.4625 -0.0710 -0.4242
    5CHL1   H25  362   4.858   6.307   8.660  0.5067  0.5449  2.7092
    5CHL1   C26  363   5.018   6.359   8.523 -0.3281  0.0220 -0.0457
    5CHL1  H26A  364   5.027   6.461   8.565  0.9377 -1.1335  2.7196
    5CHL1  H26B  365   5.122   6.333   8.491 -0.3453 -2.1729  1.4806
    5CHL1  H26C  366   4.946   6.360   8.438  0.1195  1.2425 -0.4249
    5CHL1   C27  367   4.967   6.124   8.583  0.6415  0.0693  0.1261
    5CHL1  H27A  368   5.069   6.085   8.560  0.2485 -1.4779  0.8343
    5CHL1  H27B  369   4.910   6.051   8.646 -0.5294  1.0944  0.2919
    5CHL1  H27C  370   4.910   6.121   8.488 -0.0242 -0.1677  0.5223
    6CHL1    C3  371   4.097   4.044  10.238  0.1573  0.5587  0.5852
    6CHL1    H3  372   4.200   4.004  10.232  1.3918  3.2225  2.3819
    6CHL1    O3  373   4.050   4.018  10.370  0.3440 -0.0822  0.1138
    6CHL1   H3'  374   3.963   4.057  10.380  1.1159  1.9876 -0.6239
    6CHL1    C4  375   4.086   4.195  10.209 -0.0982 -0.1164  0.4442
    6CHL1   H4A  376   3.985   4.227  10.242  0.1177  4.5228 -2.5250
    6CHL1   H4B  377   4.158   4.250  10.273 -0.7128 -0.2176  1.2312
    6CHL1    C5  378   4.108   4.220  10.061  0.1091  0.0457 -0.0345
    6CHL1    C6  379   4.210   4.306  10.018  0.4151  0.3024 -0.8385
    6CHL1    H6  380   4.278   4.342  10.097 -2.4145  1.2070  1.3562
    6CHL1    C7  381   4.248   4.323   9.871 -0.0230  0.0055 -0.8821
    6CHL1   H7A  382   4.283   4.428   9.859  1.0211 -0.3891 -1.3960
    6CHL1   H7B  383   4.330   4.249   9.867  0.2071  0.2821 -1.3165
    6CHL1    C8  384   4.148   4.274   9.771 -0.1416  0.0107 -0.2442
    6CHL1    H8  385   4.065   4.346   9.783  0.2826  0.4351  0.1995
    6CHL1   C14  386   4.213   4.275   9.633  0.3812 -0.2131  0.8143
    6CHL1   H14  387   4.294   4.199   9.638 -1.2246 -1.9954  0.7500
    6CHL1   C15  388   4.276   4.408   9.574  0.1875 -0.5376 -0.3693
    6CHL1  H15A  389   4.202   4.487   9.597  3.0967  2.1223  0.5792
    6CHL1  H15B  390   4.378   4.429   9.614  0.9811 -0.0016 -2.5181
    6CHL1   C16  391   4.277   4.394   9.421 -0.3992  0.5756 -0.1355
    6CHL1  H16A  392   4.240   4.480   9.362  2.9984  1.4667 -1.2272
    6CHL1  H16B  393   4.383   4.390   9.386 -0.7169  0.4595 -1.1235
    6CHL1   C17  394   4.216   4.256   9.392  0.3472 -0.5825 -0.2629
    6CHL1   H17  395   4.294   4.180   9.412 -1.0865 -1.9172  0.4368
    6CHL1   C13  396   4.122   4.225   9.513 -0.3965  0.4209 -0.1413
    6CHL1   C18  397   3.995   4.306   9.508  0.0763  0.0881  0.6662
    6CHL1  H18A  398   3.933   4.327   9.598 -2.0593 -0.2559 -0.6667
    6CHL1  H18B  399   4.018   4.402   9.457  3.7809 -1.3675 -0.7660
    6CHL1  H18C  400   3.935   4.243   9.439  0.1514  0.6841  0.0424
    6CHL1   C12  401   4.088   4.077   9.553  0.4170 -0.3269 -0.3714
    6CHL1  H12A  402   4.029   4.028   9.473 -0.9563 -1.1442  1.0785
    6CHL1  H12B  403   4.181   4.019   9.567  1.5310  1.5332  0.3996
    6CHL1   C11  404   4.007   4.072   9.695 -0.4557 -0.4948  0.1826
    6CHL1  H11A  405   3.911   4.128   9.687 -0.6633 -0.6157  1.5387
    6CHL1  H11B  406   3.997   3.965   9.721 -0.1734 -0.6535 -0.3565
    6CHL1    C9  407   4.093   4.135   9.806 -0.7218  0.3120 -0.3080
    6CHL1    H9  408   4.181   4.068   9.811 -0.1313  1.1566  1.6032
    6CHL1   C10  409   4.037   4.129   9.951 -0.2508 -0.0569  0.2947
    6CHL1   C19  410   3.890   4.201   9.947  0.6455 -0.0652  0.6394
    6CHL1  H19A  411   3.858   4.221  10.051 -0.3824 -2.4535  0.8391
    6CHL1  H19B  412   3.894   4.297   9.891 -1.6081 -1.2977 -1.8752
    6CHL1  H19C  413   3.817   4.130   9.903  1.5421 -0.9446  0.5162
    6CHL1    C1  414   4.024   3.980   9.998  0.2064  0.2948  0.5751
    6CHL1   H1A  415   3.936   3.939   9.944  1.4864 -1.0179 -0.5653
    6CHL1   H1B  416   4.116   3.932   9.961 -0.9976 -1.0330 -0.8201
    6CHL1    C2  417   3.998   3.961  10.148 -0.5975 -0.1602 -0.0791
    6CHL1   H2A  418   4.008   3.851  10.162 -0.2569  0.0971  2.1952
    6CHL1   H2B  419   3.894   3.983  10.181 -0.6243 -1.1874  0.5810
    6CHL1   C20  420   4.176   4.246   9.244 -0.1193 -0.6961 -0.3375
    6CHL1   H20  421   4.098   4.322   9.224  0.5563 -0.8718 -4.7533
    6CHL1   C21  422   4.133   4.108   9.212  0.2315  0.2665  0.3910
    6CHL1  H21A  423   4.099   4.094   9.107  2.1991  1.1203 -0.4149
    6CHL1  H21B  424   4.046   4.078   9.274  1.2227 -2.2988  0.6459
    6CHL1  H21C  425   4.216   4.036   9.225  0.3008 -0.0964 -1.7818
    6CHL1   C22  426   4.293   4.289   9.153 -0.3206  0.6199  0.1194
    6CHL1  H22A  427   4.311   4.398   9.161  0.5374  0.4789  0.2361
    6CHL1  H22B  428   4.378   4.232   9.196 -0.9277 -0.3866  0.0151
    6CHL1   C23  429   4.288   4.247   9.001 -0.3443 -0.0768  0.7701
    6CHL1  H23A  430   4.266   4.141   8.978 -0.8417  0.4915 -1.6396
    6CHL1  H23B  431   4.204   4.302   8.954  0.4771  0.0518 -0.5783
    6CHL1   C24  432   4.397   4.310   8.908 -0.0104  0.5485  0.0410
    6CHL1  H24A  433   4.380   4.417   8.934  2.6718  1.2945 -0.9482
    6CHL1  H24B  434   4.497   4.278   8.944  1.0591  1.0842 -2.2926
    6CHL1   C25  435   4.397   4.283   8.757  0.3421 -0.5212 -0.2295
    6CHL1   H25  436   4.290   4.290   8.726 -0.4056  0.0703  2.2357
    6CHL1   C26  437   4.482   4.395   8.683 -0.1474  0.0742 -0.1534
    6CHL1  H26A  438   4.442   4.494   8.716 -1.2704 -0.6398  0.6944
    6CHL1  H26B  439   4.589   4.387   8.710  0.4437  0.5323 -2.1639
    6CHL1  H26C  440   4.475   4.378   8.573 -2.7829 -2.4252  0.2657
    6CHL1   C27  441   4.462   4.147   8.731  0.2604  0.4094 -0.4170
    6CHL1  H27A  442   4.562   4.130   8.775 -0.3708 -1.7013  0.3412
    6CHL1  H27B  443   4.387   4.076   8.773 -0.0369  0.6946 -0.4577
    6CHL1  H27C  444   4.481   4.152   8.621 -1.0308 -0.1012 -0.6871
    7CHL1    C3  445   5.504   0.849  10.562 -0.2099 -0.0079  0.5270
    7CHL1    H3  446   5.613   0.833  10.552 -0.8067 -3.2550 -2.3205
    7CHL1    O3  447   5.473   0.837  10.701 -0.3731  0.1764  0.1672
    7CHL1   H3'  448   5.383   0.867  10.717 -0.1938  0.7875  0.0540
    7CHL1    C4  449   5.445   0.976  10.506 -0.1316  0.3279  0.7357
    7CHL1   H4A  450   5.336   0.984  10.527  0.3144  1.5268  2.8306
    7CHL1   H4B  451   5.496   1.057  10.561  0.1534 -1.3710  3.1457
    7CHL1    C5  452   5.469   1.004  10.356  0.1375  0.2238  0.1754
    7CHL1    C6  453   5.540   1.102  10.309  0.0319 -0.2984 -0.3009
    7CHL1    H6  454   5.588   1.170  10.381 -1.9923  2.1433 -1.1005
    7CHL1    C7  455   5.566   1.130  10.168 -0.1509  0.3713 -0.0021
    7CHL1   H7A  456   5.539   1.236  10.147 -0.0999  0.1863 -1.0551
    7CHL1   H7B  457   5.674   1.114  10.147 -0.0898  0.6373  0.1046
    7CHL1    C8  458   5.471   1.049  10.076 -0.7983  0.1707 -0.1776
    7CHL1    H8  459   5.372   1.098  10.087 -0.7615  0.2182 -0.0545
    7CHL1   C14  460   5.527   1.065   9.933 -0.3951 -0.0992  0.1946
    7CHL1   H14  461   5.626   1.016   9.929  0.4732  1.4270  1.6614
    7CHL1   C15  462   5.543   1.204   9.872 -0.1342 -0.1665  0.5899
    7CHL1  H15A  463   5.445   1.257   9.886 -0.8129 -1.7258  2.1155
    7CHL1  H15B  464   5.626   1.265   9.914  1.2882 -0.1138 -2.0783
    7CHL1   C16  465   5.565   1.177   9.721  0.1583  0.2676 -0.5281
    7CHL1  H16A  466   5.527   1.261   9.659  1.7508  2.1296  0.8852
    7CHL1  H16B  467   5.672   1.177   9.692  0.6462  0.1698  1.1762
    7CHL1   C17  468   5.519   1.034   9.691  0.5223  0.6702 -0.5307
    7CHL1   H17  469   5.607   0.966   9.686  0.3295  0.2954  0.8395
    7CHL1   C13  470   5.452   0.982   9.825 -0.5183 -0.1606 -0.2907
    7CHL1   C18  471   5.304   1.018   9.824 -0.3704 -0.8795  0.3874
    7CHL1  H18A  472   5.259   1.006   9.924 -4.1520  0.2767 -0.9975
    7CHL1  H18B  473   5.273   1.119   9.790 -0.8072 -0.8303  0.9308
    7CHL1  H18C  474   5.249   0.946   9.760 -0.4986 -1.1676  0.8213
    7CHL1   C12  475   5.467   0.835   9.869  0.6835  0.2187 -0.2853
    7CHL1  H12A  476   5.413   0.764   9.802  0.7562  0.3001 -0.4297
    7CHL1  H12B  477   5.576   0.814   9.867  0.4417 -1.1944  0.1601
    7CHL1   C11  478   5.403   0.807  10.013  0.0618 -1.0191 -0.4156
    7CHL1  H11A  479   5.294   0.827  10.018  0.1636 -0.2928 -0.9530
    7CHL1  H11B  480   5.418   0.699  10.034  1.8490 -0.5713  0.8314
    7CHL1    C9  481   5.468   0.902  10.121 -0.0407  0.2272 -0.7708
    7CHL1    H9  482   5.573   0.868  10.121 -0.8386 -2.4890  0.0291
    7CHL1   C10  483   5.416   0.891  10.262  0.2192 -0.7280 -0.5672
    7CHL1   C19  484   5.260   0.905  10.256  0.4242 -0.4524  0.2467
    7CHL1  H19A  485   5.229   0.892  10.362  1.3319 -0.6521  0.4975
    7CHL1  H19B  486   5.229   1.005  10.219  0.4468  0.7509  3.1601
    7CHL1  H19C  487   5.205   0.824  10.203 -0.6515  0.9868 -0.9159
    7CHL1    C1  488   5.467   0.758  10.330 -0.3627 -0.9714  0.0289
    7CHL1   H1A  489   5.430   0.672  10.271 -2.8731 -0.7984  1.2429
    7CHL1   H1B  490   5.578   0.753  10.325 -0.1187  1.4370  1.4488
    7CHL1    C2  491   5.438   0.738  10.478  0.5178 -0.2702  0.0871
    7CHL1   H2A  492   5.481   0.638  10.499 -0.2632 -1.0195 -1.7547
    7CHL1   H2B  493   5.330   0.733  10.503  0.9188 -0.8669  1.9006
    7CHL1   C20  494   5.437   1.036   9.565 -0.2546  0.0201  0.4250
    7CHL1   H20  495   5.344   1.095   9.582  0.1464  0.6866  0.3307
    7CHL1   C21  496   5.403   0.895   9.525  0.2961 -0.0303 -0.4339
    7CHL1  H21A  497   5.489   0.833   9.492  0.0439 -0.2439 -0.6970
    7CHL1  H21B  498   5.326   0.898   9.445  0.5648 -0.4828 -0.7156
    7CHL1  H21C  499   5.364   0.835   9.610  0.9663  0.9501  0.5992
    7CHL1   C22  500   5.514   1.105   9.444 -0.3030  0.3903 -0.1862
    7CHL1  H22A  501   5.593   1.174   9.481 -0.1444 -1.2427  2.7779
    7CHL1  H22B  502   5.572   1.021   9.401  0.6700  0.7284  0.4461
    7CHL1   C23  503   5.430   1.171   9.335  0.4628  0.7127  0.1954
    7CHL1  H23A  504   5.348   1.097   9.321  0.4740  0.7633 -0.1466
    7CHL1  H23B  505   5.387   1.259   9.388 -2.4421 -0.1488 -0.5708
    7CHL1   C24  506   5.504   1.203   9.205 -0.3995  0.2307 -0.2680
    7CHL1  H24A  507   5.577   1.287   9.204 -0.3931  0.2325 -1.2046
    7CHL1  H24B  508   5.553   1.107   9.179  1.8218  0.7840  1.5604
    7CHL1   C25  509   5.412   1.246   9.088 -0.3291  0.4904 -0.0401
    7CHL1   H25  510   5.345   1.332   9.110 -0.1253  1.1839 -1.9802
    7CHL1   C26  511   5.496   1.284   8.971 -0.2631  0.6768 -1.2051
    7CHL1  H26A  512   5.558   1.372   8.998 -0.4704  0.8085 -1.1568
    7CHL1  H26B  513   5.569   1.206   8.942 -0.2611  0.5806 -0.9483
    7CHL1  H26C  514   5.435   1.329   8.890  0.6534  3.2138 -0.5959
    7CHL1   C27  515   5.326   1.130   9.045  0.1733  0.2172 -0.3097
    7CHL1  H27A  516   5.256   1.169   8.968 -1.2040 -0.0427  0.7656
    7CHL1  H27B  517   5.384   1.043   9.008 -2.9546 -2.1440 -0.0919
    7CHL1  H27C  518   5.264   1.094   9.131  0.8362  1.6144  0.7829
    8CHL1    C3  519   4.382   2.481  10.095 -0.1534 -0.0040  0.3658
    8CHL1    H3  520   4.304   2.559  10.083 -0.2108 -0.2734 -1.1788
    8CHL1    O3  521   4.376   2.412  10.216  0.0784 -0.2367 -0.2750
    8CHL1   H3'  522   4.397   2.469  10.290 -1.5770  1.2458 -0.8758
    8CHL1    C4  523   4.363   2.387   9.975  0.1879 -0.5247 -1.1170
    8CHL1   H4A  524   4.435   2.302   9.985 -0.7394 -1.1424  0.6889
    8CHL1   H4B  525   4.263   2.340   9.979 -0.7140  1.1606 -2.5851
    8CHL1    C5  526   4.378   2.457   9.843 -0.5657 -0.2359  0.4451
    8CHL1    C6  527   4.278   2.458   9.749 -0.0701  0.0662 -0.9136
    8CHL1    H6  528   4.188   2.400   9.772 -0.1397 -0.5662 -2.6319
    8CHL1    C7  529   4.287   2.527   9.622  0.1793 -1.0179 -0.3285
    8CHL1   H7A  530   4.242   2.475   9.534  2.1127 -0.7983 -1.5177
    8CHL1   H7B  531   4.225   2.618   9.635 -0.9837 -2.1169  2.3116
    8CHL1    C8  532   4.434   2.565   9.581 -0.0615  0.4063  0.4222
    8CHL1    H8  533   4.497   2.479   9.549  0.4699  0.9341  0.0489
    8CHL1   C14  534   4.430   2.662   9.465 -0.1250  0.0166 -0.3175
    8CHL1   H14  535   4.357   2.740   9.493 -0.5987 -0.4318 -0.2844
    8CHL1   C15  536   4.367   2.609   9.340  0.3852 -0.2110 -0.9143
    8CHL1  H15A  537   4.387   2.501   9.323 -3.6213 -1.2351 -0.0772
    8CHL1  H15B  538   4.256   2.611   9.339  0.3634  0.5188  0.7244
    8CHL1   C16  539   4.422   2.695   9.224 -0.7034 -0.2518  0.3112
    8CHL1  H16A  540   4.473   2.631   9.149 -1.1168 -1.3104  0.9176
    8CHL1  H16B  541   4.351   2.762   9.171 -1.0205  0.8320  2.0132
    8CHL1   C17  542   4.532   2.790   9.290  0.1975  0.4356 -0.2771
    8CHL1   H17  543   4.483   2.880   9.334 -2.6198 -1.3006  0.4277
    8CHL1   C13  544   4.567   2.717   9.422  0.0413 -0.3946 -0.3288
    8CHL1   C18  545   4.667   2.607   9.391 -0.2578  0.1142 -0.3205
    8CHL1  H18A  546   4.640   2.545   9.303  2.5121 -0.9320 -0.5574
    8CHL1  H18B  547   4.769   2.649   9.373 -0.5399  0.3856 -1.3311
    8CHL1  H18C  548   4.678   2.520   9.459  0.0877  0.3014 -0.1341
    8CHL1   C12  549   4.611   2.812   9.538  0.1343  0.7514 -0.0541
    8CHL1  H12A  550   4.713   2.850   9.517  0.5552  0.8672  1.9945
    8CHL1  H12B  551   4.536   2.894   9.543 -0.5430  0.2229 -1.1366
    8CHL1   C11  552   4.625   2.720   9.661 -0.0703  0.0110 -0.1968
    8CHL1  H11A  553   4.709   2.650   9.647 -0.3400 -0.7132  1.5129
    8CHL1  H11B  554   4.657   2.781   9.748  1.7056  0.7808 -1.3393
    8CHL1    C9  555   4.505   2.632   9.700  0.0451 -0.3593  0.3038
    8CHL1    H9  556   4.434   2.713   9.725  2.0899  2.7234 -2.8583
    8CHL1   C10  557   4.514   2.540   9.831 -0.1648  0.2106 -0.0705
    8CHL1   C19  558   4.627   2.438   9.813 -0.0826  0.6215 -0.5824
    8CHL1  H19A  559   4.724   2.487   9.789  0.8240 -0.1371  1.3521
    8CHL1  H19B  560   4.640   2.380   9.907  0.4726  0.8071 -0.5416
    8CHL1  H19C  561   4.610   2.374   9.724 -0.7003 -4.3423  2.7289
    8CHL1    C1  562   4.534   2.623   9.964 -0.4061 -0.1892 -0.0578
    8CHL1   H1A  563   4.630   2.677   9.949 -2.0656  3.7929  2.1977
    8CHL1   H1B  564   4.464   2.709   9.962  1.1165  1.1165  0.4672
    8CHL1    C2  565   4.520   2.546  10.091 -0.5976  0.5771  0.0047
    8CHL1   H2A  566   4.527   2.626  10.168 -1.2453  0.1483  0.5253
    8CHL1   H2B  567   4.606   2.476  10.099 -1.7659 -0.9237 -0.1984
    8CHL1   C20  568   4.647   2.826   9.196 -0.3930 -0.6994 -0.3483
    8CHL1   H20  569   4.703   2.734   9.168  1.1552 -1.1037  3.5718
    8CHL1   C21  570   4.755   2.903   9.266 -0.2480 -1.2829 -0.3175
    8CHL1  H21A  571   4.833   2.925   9.190  0.7619 -1.0628  0.7335
    8CHL1  H21B  572   4.809   2.840   9.341 -1.7995 -2.2084  0.0694
    8CHL1  H21C  573   4.728   2.999   9.315  2.4669  0.5862 -2.2311
    8CHL1   C22  574   4.605   2.890   9.059  0.2891  0.1591  0.1226
    8CHL1  H22A  575   4.516   2.827   9.038  0.5616 -0.5732  1.0784
    8CHL1  H22B  576   4.576   2.996   9.075  0.0936  0.0329  0.6320
    8CHL1   C23  577   4.703   2.867   8.942  0.0541  0.4244  0.5385
    8CHL1  H23A  578   4.796   2.926   8.957 -0.6763  1.6058  0.5350
    8CHL1  H23B  579   4.725   2.760   8.919 -0.5851  0.3367  0.3159
    8CHL1   C24  580   4.645   2.936   8.818  0.4834  0.7545 -0.5095
    8CHL1  H24A  581   4.542   2.900   8.799  0.0103  2.8485 -2.3002
    8CHL1  H24B  582   4.643   3.045   8.838 -1.9069  0.5892  0.5030
    8CHL1   C25  583   4.712   2.901   8.676 -0.4296  0.1868  0.4368
    8CHL1   H25  584   4.759   2.800   8.681  0.5218  0.3785 -2.6015
    8CHL1   C26  585   4.617   2.888   8.562 -0.1200 -0.3465  0.1023
    8CHL1  H26A  586   4.673   2.829   8.486  0.1435 -0.1698  0.1572
    8CHL1  H26B  587   4.524   2.836   8.593 -1.2512  1.7735  0.4787
    8CHL1  H26C  588   4.577   2.985   8.525  0.1804 -0.9214 -1.8184
    8CHL1   C27  589   4.824   3.003   8.649  0.5866  0.5799  0.2250
    8CHL1  H27A  590   4.871   2.991   8.549  0.6486  0.5959  0.2518
    8CHL1  H27B  591   4.792   3.109   8.638  0.4966  0.8907  2.7462
    8CHL1  H27C  592   4.892   2.998   8.737 -0.5832  1.1589  1.1928
    9CHL1    C3  593   1.146   6.067  10.076 -0.5039  0.5406  0.1322
    9CHL1    H3  594   1.227   6.140  10.053  0.5460  0.1493  2.3467
    9CHL1    O3  595   1.109   6.091  10.209 -0.5783  0.2844 -0.1756
    9CHL1   H3'  596   1.014   6.105  10.215 -0.5774 -0.3257  2.5147
    9CHL1    C4  597   1.023   6.081   9.989 -0.1296  0.0475  0.1045
    9CHL1   H4A  598   0.947   6.012  10.031  1.9669 -1.3386  1.8327
    9CHL1   H4B  599   0.979   6.182  10.000 -2.3937 -0.8477 -0.1475
    9CHL1    C5  600   1.043   6.052   9.841 -0.1303  0.0217  0.7463
    9CHL1    C6  601   1.011   6.144   9.742 -0.0937  0.4864 -0.5170
    9CHL1    H6  602   0.972   6.244   9.768 -2.0958 -0.2701 -0.4113
    9CHL1    C7  603   1.029   6.132   9.594 -0.2821 -0.1386 -0.3655
    9CHL1   H7A  604   0.934   6.142   9.536 -0.0773  1.8393 -0.4023
    9CHL1   H7B  605   1.105   6.203   9.557 -0.0807 -0.6015 -0.8495
    9CHL1    C8  606   1.073   5.979   9.567  0.1646 -0.1889 -0.9401
    9CHL1    H8  607   0.977   5.923   9.567  0.2292 -0.3395 -2.1898
    9CHL1   C14  608   1.128   5.978   9.426 -0.7388  0.2978 -0.1202
    9CHL1   H14  609   1.218   6.043   9.422 -0.8384  0.5807  1.7524
    9CHL1   C15  610   1.043   6.029   9.315 -0.2201 -0.3561 -0.5837
    9CHL1  H15A  611   0.939   5.997   9.335 -0.7845  1.0083 -1.1760
    9CHL1  H15B  612   1.047   6.140   9.316 -0.1858 -0.3393  1.2608
    9CHL1   C16  613   1.112   5.969   9.195 -0.5777  0.8378 -0.2142
    9CHL1  H16A  614   1.036   5.902   9.151  0.3002 -0.3325 -0.0159
    9CHL1  H16B  615   1.156   6.044   9.126  2.6074  0.0475  0.7483
    9CHL1   C17  616   1.227   5.874   9.246  0.7874 -0.3721  0.2209
    9CHL1   H17  617   1.314   5.943   9.239  0.2456  0.2438 -0.7251
    9CHL1   C13  618   1.182   5.833   9.391  0.3396 -0.7328 -0.3548
    9CHL1   C18  619   1.068   5.725   9.386  0.2857 -0.3823 -0.2537
    9CHL1  H18A  620   0.979   5.766   9.335 -1.6797 -2.9768  0.8548
    9CHL1  H18B  621   1.104   5.627   9.348  2.3106 -0.0455  0.6477
    9CHL1  H18C  622   1.033   5.692   9.487 -1.2069 -0.3993 -0.7642
    9CHL1   C12  623   1.295   5.797   9.488 -0.0169 -0.1177  0.0635
    9CHL1  H12A  624   1.321   5.689   9.482  2.2423  0.4185 -0.6310
    9CHL1  H12B  625   1.380   5.868   9.484 -1.6720  1.9041 -1.5931
    9CHL1   C11  626   1.244   5.790   9.630  0.4280 -0.4939 -0.3702
    9CHL1  H11A  627   1.179   5.702   9.649  1.0714 -1.2365 -1.4428
    9CHL1  H11B  628   1.337   5.784   9.691 -0.0473  3.7386  1.0708
    9CHL1    C9  629   1.166   5.921   9.670 -0.0721 -0.1937 -0.1872
    9CHL1    H9  630   1.249   5.995   9.674 -0.7373  0.5179  2.0043
    9CHL1   C10  631   1.108   5.914   9.809 -0.3109 -0.0564 -0.2825
    9CHL1   C19  632   0.998   5.807   9.828 -0.7173 -0.0191  0.0012
    9CHL1  H19A  633   0.901   5.840   9.784 -0.7398  1.0198  0.7963
    9CHL1  H19B  634   1.027   5.706   9.791  1.0324  0.0108  1.2043
    9CHL1  H19C  635   0.980   5.794   9.937  0.7739  0.1608  0.2788
    9CHL1    C1  636   1.231   5.894   9.912 -0.2683 -0.5261 -0.2337
    9CHL1   H1A  637   1.290   5.801   9.895  0.8116  0.1588 -0.2940
    9CHL1   H1B  638   1.303   5.976   9.893 -1.6720  0.4618 -1.5464
    9CHL1    C2  639   1.197   5.918  10.063  0.3601  0.7209  0.0396
    9CHL1   H2A  640   1.281   5.894  10.132  0.6018  0.0738 -0.4681
    9CHL1   H2B  641   1.111   5.852  10.089  0.9888 -0.2943 -0.3852
    9CHL1   C20  642   1.262   5.758   9.149 -0.0900 -0.3132 -0.1674
    9CHL1   H20  643   1.182   5.682   9.159 -2.3467  2.1724  2.4912
    9CHL1   C21  644   1.402   5.711   9.181 -0.0470  0.4289  0.2696
    9CHL1  H21A  645   1.413   5.666   9.282 -0.6646  0.2985  0.2784
    9CHL1  H21B  646   1.468   5.799   9.170 -0.7602  1.1139  1.3907
    9CHL1  H21C  647   1.443   5.634   9.112 -0.2688  0.0715  0.5354
    9CHL1   C22  648   1.266   5.802   8.999 -0.5867  0.6802  0.4546
    9CHL1  H22A  649   1.196   5.878   8.958 -1.4394 -0.1052  0.4261
    9CHL1  H22B  650   1.368   5.841   8.976 -1.8576  3.5250 -0.8951
    9CHL1   C23  651   1.237   5.682   8.910  0.0706  0.2866  0.0730
    9CHL1  H23A  652   1.330   5.622   8.920  0.9970  1.9020  2.0261
    9CHL1  H23B  653   1.143   5.636   8.947 -0.8310  1.1260 -1.0877
    9CHL1   C24  654   1.214   5.715   8.762 -0.0557  0.7435 -0.0292
    9CHL1  H24A  655   1.212   5.622   8.700  0.4138  0.8112 -0.1503
    9CHL1  H24B  656   1.121   5.770   8.738 -0.1990 -0.3184 -2.2190
    9CHL1   C25  657   1.329   5.799   8.703 -0.1739  0.1053  0.0330
    9CHL1   H25  658   1.328   5.897   8.756 -4.7222 -0.1655  0.8246
    9CHL1   C26  659   1.467   5.722   8.703 -0.0533 -0.3670  0.0829
    9CHL1  H26A  660   1.494   5.696   8.807 -3.3188  1.3696  1.5025
    9CHL1  H26B  661   1.465   5.634   8.636  1.8349 -0.1847 -0.2688
    9CHL1  H26C  662   1.541   5.793   8.658 -1.5922 -0.2556 -2.4445
    9CHL1   C27  663   1.301   5.817   8.554  0.1214 -0.6961  0.9095
    9CHL1  H27A  664   1.376   5.887   8.512 -0.7760 -0.5623 -0.5462
    9CHL1  H27B  665   1.322   5.722   8.500 -2.5007  0.6216 -2.8923
    9CHL1  H27C  666   1.197   5.846   8.530  1.3878  1.9965 -2.1084
   10CHL1    C3  667   0.139   3.241   9.946 -0.4987  0.6126  0.0113
   10CHL1    H3  668   0.190   3.337   9.927 -2.1047  1.6250  0.6514
   10CHL1    O3  669   0.079   3.236  10.077 -0.5583  0.6337  0.2184
   10CHL1   H3'  670   0.019   3.311  10.079 -2.0840 -0.5331 -0.0390
   10CHL1    C4  671   0.026   3.224   9.843  0.1615  0.1292 -0.0766
   10CHL1   H4A  672  -0.028   3.129   9.862  2.9409 -1.4920  0.2504
   10CHL1   H4B  673  -0.053   3.301   9.855 -0.1537  0.4710 -3.4537
   10CHL1    C5  674   0.084   3.225   9.705  0.5849 -0.6255  0.0948
   10CHL1    C6  675   0.047   3.315   9.614  0.5126 -0.5655  0.4435
   10CHL1    H6  676  -0.030   3.389   9.639  2.1701  2.0568 -1.6090
   10CHL1    C7  677   0.098   3.345   9.475 -0.3546  0.3087 -0.0268
   10CHL1   H7A  678   0.020   3.391   9.412 -0.9085  4.2627  3.1283
   10CHL1   H7B  679   0.181   3.419   9.481 -0.6608  0.5652  1.3638
   10CHL1    C8  680   0.175   3.221   9.433 -1.1347  0.5301  0.5196
   10CHL1    H8  681   0.100   3.144   9.403  0.2797 -0.0734 -1.6792
   10CHL1   C14  682   0.248   3.246   9.292 -0.2354 -0.2321 -0.5280
   10CHL1   H14  683   0.317   3.329   9.320  1.1674 -1.6922  0.4822
   10CHL1   C15  684   0.160   3.290   9.168 -0.8305  0.7340 -0.3950
   10CHL1  H15A  685   0.081   3.213   9.157 -1.7481  1.0690  2.8901
   10CHL1  H15B  686   0.118   3.393   9.174 -0.9483  0.6947 -0.5475
   10CHL1   C16  687   0.274   3.285   9.059  0.1342  0.3493 -0.4156
   10CHL1  H16A  688   0.235   3.237   8.966 -2.3797 -2.0216  1.6997
   10CHL1  H16B  689   0.299   3.388   9.027 -1.4864  0.7287 -0.5434
   10CHL1   C17  690   0.392   3.201   9.120  0.0043 -0.5384  0.0508
   10CHL1   H17  691   0.467   3.276   9.152  0.5089 -0.4381 -1.2866
   10CHL1   C13  692   0.335   3.138   9.243 -0.4010 -0.2571 -0.7607
   10CHL1   C18  693   0.254   3.011   9.203  0.5756 -1.2388  0.6615
   10CHL1  H18A  694   0.181   2.974   9.277 -1.0463  0.0499 -0.2267
   10CHL1  H18B  695   0.199   3.037   9.110 -1.7039  1.8696  2.6718
   10CHL1  H18C  696   0.329   2.930   9.193  0.3196 -1.4108  0.1023
   10CHL1   C12  697   0.440   3.089   9.352 -0.0685 -0.4167 -0.9897
   10CHL1  H12A  698   0.492   2.993   9.332  1.5430 -0.1428  1.3371
   10CHL1  H12B  699   0.520   3.166   9.363  1.2420 -1.5431 -2.2172
   10CHL1   C11  700   0.366   3.062   9.486 -0.1040  0.0028  0.0122
   10CHL1  H11A  701   0.310   2.968   9.468 -2.0232  1.1741 -0.4124
   10CHL1  H11B  702   0.439   3.046   9.568  0.4655  3.7683  0.4109
   10CHL1    C9  703   0.272   3.172   9.546 -0.0459 -0.6643 -0.5261
   10CHL1    H9  704   0.337   3.259   9.568 -0.6274 -0.9525  2.7487
   10CHL1   C10  705   0.203   3.140   9.677  0.6655 -0.0896 -0.4428
   10CHL1   C19  706   0.152   2.994   9.678  0.0710  0.5955 -0.1002
   10CHL1  H19A  707   0.105   2.962   9.774  1.3467  1.2758  0.7775
   10CHL1  H19B  708   0.084   2.967   9.594  1.0091 -1.7163 -0.1762
   10CHL1  H19C  709   0.241   2.928   9.682  0.3783  1.0340  0.3795
   10CHL1    C1  710   0.313   3.146   9.792  0.0099  0.1180  0.4160
   10CHL1   H1A  711   0.373   3.052   9.788 -0.3977 -0.2668  2.3765
   10CHL1   H1B  712   0.379   3.235   9.782 -0.9633  0.6928 -1.3903
   10CHL1    C2  713   0.251   3.137   9.933  0.0996 -0.7748  0.3318
   10CHL1   H2A  714   0.332   3.145  10.008  1.6493 -1.7222 -1.1389
   10CHL1   H2B  715   0.203   3.038   9.949  0.5223 -1.3420 -1.5559
   10CHL1   C20  716   0.459   3.114   9.017 -0.4697  0.7173 -0.3802
   10CHL1   H20  717   0.394   3.029   8.989 -1.5457  0.5103  2.4307
   10CHL1   C21  718   0.586   3.038   9.073  0.7827 -0.0431  0.0759
   10CHL1  H21A  719   0.555   2.961   9.147  3.5605  1.2141  2.7314
   10CHL1  H21B  720   0.642   3.112   9.134 -1.4484  2.2106 -0.4078
   10CHL1  H21C  721   0.646   2.980   9.000 -0.5195 -0.3161 -0.8133
   10CHL1   C22  722   0.494   3.176   8.885 -0.7541 -0.8013  0.4872
   10CHL1  H22A  723   0.543   3.096   8.828 -0.3595  0.5855 -1.1925
   10CHL1  H22B  724   0.406   3.202   8.823 -0.8010 -1.3389  0.3265
   10CHL1   C23  725   0.592   3.294   8.902  0.4113  0.2841  0.3925
   10CHL1  H23A  726   0.533   3.372   8.954 -1.4949 -1.0748  0.3620
   10CHL1  H23B  727   0.679   3.272   8.967  0.4215  0.9738  0.6214
   10CHL1   C24  728   0.648   3.353   8.768  0.3383  0.0267 -0.1147
   10CHL1  H24A  729   0.711   3.279   8.713 -0.3721 -0.7986  0.1539
   10CHL1  H24B  730   0.557   3.356   8.704 -0.6679  0.2483  1.2802
   10CHL1   C25  731   0.717   3.484   8.782  0.4960  0.3363  0.0980
   10CHL1   H25  732   0.659   3.548   8.852  1.2547  0.7364  0.3687
   10CHL1   C26  733   0.859   3.472   8.845 -0.4911 -0.6619 -0.1583
   10CHL1  H26A  734   0.843   3.450   8.953 -2.0119  3.7684  0.6997
   10CHL1  H26B  735   0.915   3.387   8.801 -1.5873 -1.8988  0.7319
   10CHL1  H26C  736   0.909   3.570   8.840 -2.6338  0.6505  1.8236
   10CHL1   C27  737   0.732   3.563   8.647 -0.0475  0.2101 -0.4477
   10CHL1  H27A  738   0.831   3.556   8.596 -0.5273 -0.1866 -1.3452
   10CHL1  H27B  739   0.654   3.537   8.573 -0.5238 -3.4552  1.1223
   10CHL1  H27C  740   0.718   3.670   8.673  2.1446  0.5224 -0.3546
   11CHL1    C3  741   4.961   5.802  10.191  0.3305  0.1875 -0.2745
   11CHL1    H3  742   4.967   5.912  10.180 -1.8050  0.8116  3.2273
   11CHL1    O3  743   4.964   5.785  10.333  0.8889 -0.5814  0.6325
   11CHL1   H3'  744   4.927   5.698  10.349 -0.9435  0.0432  0.0966
   11CHL1    C4  745   4.831   5.752  10.135 -0.0786  0.1661 -0.4380
   11CHL1   H4A  746   4.805   5.654  10.182 -1.7712  1.1572  0.8094
   11CHL1   H4B  747   4.741   5.799  10.179 -1.1304 -0.0247 -2.2924
   11CHL1    C5  748   4.822   5.758   9.988 -0.5177 -0.2751 -0.1246
   11CHL1    C6  749   4.728   5.831   9.926  0.3529 -0.1811  0.1877
   11CHL1    H6  750   4.656   5.891   9.983 -1.1318  0.4074 -2.1767
   11CHL1    C7  751   4.705   5.836   9.777 -0.5729  0.1550 -0.6831
   11CHL1   H7A  752   4.599   5.825   9.746 -0.4153 -1.3102 -0.8063
   11CHL1   H7B  753   4.751   5.927   9.733 -0.1119  0.8537  1.1540
   11CHL1    C8  754   4.788   5.731   9.709 -0.3232  0.3241 -0.7031
   11CHL1    H8  755   4.736   5.633   9.717 -0.2025  0.2222 -1.1430
   11CHL1   C14  756   4.796   5.767   9.559 -0.6857  0.1034 -0.2257
   11CHL1   H14  757   4.848   5.865   9.560  0.9372 -0.7221  0.5671
   11CHL1   C15  758   4.656   5.785   9.491  0.2047  0.4278  0.1997
   11CHL1  H15A  759   4.592   5.697   9.512 -1.7090  1.5428 -0.7762
   11CHL1  H15B  760   4.606   5.882   9.509 -0.9300 -0.3364  1.2791
   11CHL1   C16  761   4.680   5.775   9.342 -0.0655 -0.5883 -0.0697
   11CHL1  H16A  762   4.628   5.692   9.291  0.0954 -0.2781 -0.7469
   11CHL1  H16B  763   4.659   5.868   9.284 -2.1667 -0.1736  1.2256
   11CHL1   C17  764   4.839   5.740   9.336 -0.2788 -0.6084 -0.4373
   11CHL1   H17  765   4.886   5.841   9.333 -1.9810  0.2454 -3.7056
   11CHL1   C13  766   4.874   5.668   9.472  0.1007  0.6132 -0.2528
   11CHL1   C18  767   4.814   5.519   9.482 -0.7380 -0.6904 -0.2143
   11CHL1  H18A  768   4.855   5.462   9.567  0.8790  1.3902  0.4841
   11CHL1  H18B  769   4.705   5.529   9.466 -0.3941  0.3699 -2.4070
   11CHL1  H18C  770   4.853   5.461   9.395 -0.7847 -2.2685  0.7852
   11CHL1   C12  771   5.022   5.671   9.519  0.3033  0.5348 -0.3247
   11CHL1  H12A  772   5.088   5.613   9.451  0.7853  0.2238  0.3950
   11CHL1  H12B  773   5.056   5.775   9.499  1.4396  0.4659  1.0827
   11CHL1   C11  774   5.037   5.647   9.671  0.1667  0.0232 -0.6695
   11CHL1  H11A  775   5.023   5.537   9.676 -2.9113  0.3709  0.5888
   11CHL1  H11B  776   5.138   5.678   9.704 -0.3959  1.8045 -0.5195
   11CHL1    C9  777   4.935   5.722   9.762  0.9079  0.5928 -0.8757
   11CHL1    H9  778   4.967   5.828   9.760 -0.3701  1.0864  1.4876
   11CHL1   C10  779   4.932   5.683   9.918 -0.4720  0.2453  0.3573
   11CHL1   C19  780   4.911   5.528   9.930  0.7813  0.1128 -0.5814
   11CHL1  H19A  781   4.809   5.514   9.889  0.0299  2.8470  0.1745
   11CHL1  H19B  782   4.977   5.464   9.867  0.5836  0.4482 -1.1326
   11CHL1  H19C  783   4.919   5.494  10.036  2.9021 -2.7247 -1.5324
   11CHL1    C1  784   5.073   5.716   9.977  0.1673  0.2235  0.6119
   11CHL1   H1A  785   5.134   5.634   9.933  0.1233  0.4333  0.1581
   11CHL1   H1B  786   5.104   5.811   9.928  0.5807 -0.8235 -1.2522
   11CHL1    C2  787   5.083   5.728  10.130 -0.7426 -0.0235  0.7537
   11CHL1   H2A  788   5.181   5.774  10.155 -0.3435 -0.0292 -0.6574
   11CHL1   H2B  789   5.089   5.626  10.173  0.8756  0.6404  2.1932
   11CHL1   C20  790   4.879   5.676   9.201  0.9530 -0.2348  0.0015
   11CHL1   H20  791   4.883   5.566   9.219 -1.6626 -0.5580 -0.8651
   11CHL1   C21  792   5.018   5.719   9.168 -0.1138 -0.5043  0.0629
   11CHL1  H21A  793   5.067   5.653   9.093  1.6821 -1.5257  2.0391
   11CHL1  H21B  794   5.082   5.720   9.259 -1.3861  0.9573  1.0004
   11CHL1  H21C  795   5.013   5.824   9.132 -1.4471  0.2935  2.3436
   11CHL1   C22  796   4.781   5.703   9.080 -0.5628  0.6174  0.2455
   11CHL1  H22A  797   4.672   5.686   9.097 -0.2865 -0.1315  1.4649
   11CHL1  H22B  798   4.778   5.809   9.047 -0.1844  1.1451  1.7898
   11CHL1   C23  799   4.825   5.628   8.959 -0.2124  0.2240 -0.2550
   11CHL1  H23A  800   4.931   5.641   8.930 -0.0473  0.8904  0.6213
   11CHL1  H23B  801   4.801   5.521   8.981  2.6651 -0.6392 -0.8058
   11CHL1   C24  802   4.735   5.657   8.832 -0.1137 -0.4475  0.1612
   11CHL1  H24A  803   4.628   5.646   8.860 -0.0727  0.6120  0.7844
   11CHL1  H24B  804   4.749   5.763   8.800 -1.2392 -0.9970 -2.3951
   11CHL1   C25  805   4.772   5.567   8.706  0.4796  0.0618 -0.3243
   11CHL1   H25  806   4.882   5.578   8.695  0.3181  1.4463 -0.8126
   11CHL1   C26  807   4.746   5.415   8.720 -0.6572 -0.4742  0.0068
   11CHL1  H26A  808   4.753   5.370   8.619  0.4830 -0.5688  0.1217
   11CHL1  H26B  809   4.822   5.362   8.781 -0.2787 -1.2775 -1.1430
   11CHL1  H26C  810   4.645   5.391   8.761 -0.1281 -0.7156  1.2242
   11CHL1   C27  811   4.695   5.627   8.579  0.4242 -0.3733 -0.2964
   11CHL1  H27A  812   4.725   5.573   8.487  0.8901 -0.4566 -0.1004
   11CHL1  H27B  813   4.586   5.617   8.593 -0.0808 -0.7537 -3.7212
   11CHL1  H27C  814   4.719   5.735   8.569 -2.3206  0.5016  1.5923
   12CHL1    C3  815   4.739   2.109  10.345 -0.1691  0.3285 -0.7719
   12CHL1    H3  816   4.656   2.064  10.286  1.1210 -2.8178 -0.4120
   12CHL1    O3  817   4.710   2.111  10.486  0.5569  0.5335  0.3317
   12CHL1   H3'  818   4.787   2.139  10.536  2.1021 -2.1893 -0.3022
   12CHL1    C4  819   4.867   2.026  10.322 -0.4678  0.2626 -0.1604
   12CHL1   H4A  820   4.948   2.067  10.386  0.0172 -1.3450  0.3000
   12CHL1   H4B  821   4.847   1.921  10.349 -2.1079  0.3677 -0.8434
   12CHL1    C5  822   4.922   2.026  10.181 -0.6551 -0.6941 -0.4911
   12CHL1    C6  823   4.945   1.909  10.119 -0.2430 -0.3503  0.2143
   12CHL1    H6  824   4.945   1.819  10.182  0.8677  0.0031  0.7365
   12CHL1    C7  825   4.980   1.910   9.969  0.6946  0.2656 -0.5026
   12CHL1   H7A  826   5.066   1.842   9.953  0.2662  0.3154 -3.4725
   12CHL1   H7B  827   4.899   1.871   9.904  1.6498 -0.0536 -1.5208
   12CHL1    C8  828   5.027   2.045   9.918 -0.0510 -0.3440 -0.2244
   12CHL1    H8  829   5.131   2.061   9.954  0.3673 -0.7481 -1.2144
   12CHL1   C14  830   5.022   2.034   9.766  0.1905 -1.2080 -0.0878
   12CHL1   H14  831   4.916   2.012   9.739 -0.4408 -0.6430  1.7622
   12CHL1   C15  832   5.108   1.925   9.699 -0.3520 -0.5017 -0.2164
   12CHL1  H15A  833   5.209   1.912   9.743 -0.4570  0.0469  0.2052
   12CHL1  H15B  834   5.052   1.830   9.700  0.3179 -1.1893  5.7376
   12CHL1   C16  835   5.121   1.972   9.547 -0.0852  0.7630 -0.6109
   12CHL1  H16A  836   5.228   1.959   9.520 -0.1800  1.1846 -1.2241
   12CHL1  H16B  837   5.061   1.898   9.491 -0.3302  0.2006  0.3741
   12CHL1   C17  838   5.059   2.113   9.540 -0.1610 -0.0916  0.2053
   12CHL1   H17  839   4.950   2.098   9.526 -0.6826  0.7776  2.7907
   12CHL1   C13  840   5.064   2.160   9.689 -0.2717  0.0151 -0.4499
   12CHL1   C18  841   5.213   2.191   9.724  0.5315  0.2531 -0.1790
   12CHL1  H18A  842   5.220   2.293   9.681 -2.0039  1.4126  1.8702
   12CHL1  H18B  843   5.232   2.202   9.833 -0.9247 -3.4949  0.5916
   12CHL1  H18C  844   5.293   2.123   9.688 -0.6018 -0.4314 -1.5211
   12CHL1   C12  845   4.978   2.276   9.735  0.5602  0.4912 -0.2444
   12CHL1  H12A  846   5.015   2.377   9.711  0.8509  0.4438  0.0006
   12CHL1  H12B  847   4.877   2.273   9.688  0.9539 -0.2888 -1.0708
   12CHL1   C11  848   4.966   2.290   9.889 -0.3304  0.3622  0.7531
   12CHL1  H11A  849   5.068   2.325   9.914 -0.6177  1.5156  0.3984
   12CHL1  H11B  850   4.885   2.360   9.921 -1.9485 -1.0422 -0.0677
   12CHL1    C9  851   4.931   2.155   9.961  0.1775  0.0532  0.3073
   12CHL1    H9  852   4.830   2.130   9.922  1.3544 -0.8393 -2.3550
   12CHL1   C10  853   4.921   2.171  10.118  0.4265  1.1313 -0.8897
   12CHL1   C19  854   5.050   2.238  10.169  1.0182 -0.0561 -0.2960
   12CHL1  H19A  855   5.144   2.189  10.137  2.6283  1.9478  1.1027
   12CHL1  H19B  856   5.053   2.344  10.137  1.7912 -0.0500 -0.2107
   12CHL1  H19C  857   5.067   2.239  10.279  0.6006  0.5253 -0.2302
   12CHL1    C1  858   4.794   2.253  10.144  0.1462 -0.1143 -0.5531
   12CHL1   H1A  859   4.804   2.361  10.121 -1.8414  0.6301  1.7088
   12CHL1   H1B  860   4.709   2.199  10.096  1.0733 -1.1425 -1.0847
   12CHL1    C2  861   4.755   2.257  10.294  0.8572 -0.4740  0.1856
   12CHL1   H2A  862   4.665   2.317  10.320  0.1966 -1.9954  1.6092
   12CHL1   H2B  863   4.838   2.306  10.349  0.4255  1.5564 -0.8872
   12CHL1   C20  864   5.107   2.212   9.433 -0.3670  0.4579  0.0040
   12CHL1   H20  865   5.198   2.266   9.466  1.0706 -1.1895 -1.1138
   12CHL1   C21  866   4.991   2.316   9.408 -0.1809  0.0826  0.1641
   12CHL1  H21A  867   4.959   2.373   9.497 -0.3652 -1.0134  0.8209
   12CHL1  H21B  868   4.904   2.249   9.391 -1.7373  0.9111  3.9316
   12CHL1  H21C  869   5.013   2.385   9.324  2.0403 -1.5338 -0.6829
   12CHL1   C22  870   5.133   2.140   9.301 -0.0434 -0.0069 -0.7735
   12CHL1  H22A  871   5.218   2.068   9.306 -0.1737 -0.2917 -2.1508
   12CHL1  H22B  872   5.039   2.087   9.275  0.4368 -0.5414 -1.4593
   12CHL1   C23  873   5.169   2.234   9.186  0.8568 -0.1016  0.4182
   12CHL1  H23A  874   5.076   2.291   9.166  0.3563 -1.0210  0.0877
   12CHL1  H23B  875   5.246   2.304   9.226  0.7351  0.8336 -0.8980
   12CHL1   C24  876   5.215   2.162   9.057 -0.0456  0.3799 -0.7702
   12CHL1  H24A  877   5.323   2.146   9.081  0.2402  2.3130 -0.6123
   12CHL1  H24B  878   5.176   2.059   9.045  1.2073  0.1728 -4.0537
   12CHL1   C25  879   5.193   2.243   8.933 -0.6178 -0.0415 -0.0337
   12CHL1   H25  880   5.084   2.261   8.923 -0.3382  1.3584 -0.6965
   12CHL1   C26  881   5.280   2.377   8.937 -0.1295 -0.6193 -0.2485
   12CHL1  H26A  882   5.241   2.449   9.012 -0.6600  0.2025 -1.2887
   12CHL1  H26B  883   5.387   2.364   8.966  0.0367  0.6243 -0.2688
   12CHL1  H26C  884   5.275   2.425   8.837  3.2839 -2.7577 -1.6465
   12CHL1   C27  885   5.236   2.166   8.807  0.0473 -0.6030  0.3322
   12CHL1  H27A  886   5.212   2.220   8.713  0.0808 -0.4818  0.3933
   12CHL1  H27B  887   5.343   2.139   8.800  0.3546  0.4923  0.7000
   12CHL1  H27C  888   5.177   2.071   8.810 -0.1240 -0.5496 -0.8474
   13CHL1    C3  889   3.800   3.192   9.799 -0.4379 -0.3427 -0.1835
   13CHL1    H3  890   3.706   3.246   9.827 -0.3582 -0.4218  0.2453
   13CHL1    O3  891   3.843   3.125   9.912  0.1221 -1.0212 -0.5736
   13CHL1   H3'  892   3.883   3.197   9.960 -2.7027  1.5309 -1.7499
   13CHL1    C4  893   3.770   3.094   9.686 -0.5320 -0.0756 -0.8635
   13CHL1   H4A  894   3.863   3.034   9.679 -0.2507  0.0745  1.0978
   13CHL1   H4B  895   3.690   3.028   9.726 -1.4420 -0.1020 -2.6090
   13CHL1    C5  896   3.743   3.158   9.547  0.6596 -0.6159 -0.4580
   13CHL1    C6  897   3.633   3.127   9.480  0.1180 -0.3106  0.9114
   13CHL1    H6  898   3.562   3.049   9.512 -0.2127  0.0579  1.0866
   13CHL1    C7  899   3.596   3.186   9.347 -0.3153  0.4825  0.3147
   13CHL1   H7A  900   3.563   3.108   9.275  2.0881 -1.2360  0.9706
   13CHL1   H7B  901   3.505   3.250   9.356 -0.9197 -0.3876  0.5066
   13CHL1    C8  902   3.708   3.277   9.284  0.1114  0.6542  0.7436
   13CHL1    H8  903   3.773   3.200   9.238 -0.0819  1.2841 -0.6562
   13CHL1   C14  904   3.665   3.359   9.170 -0.2560 -0.3968 -0.0783
   13CHL1   H14  905   3.587   3.430   9.205  0.7904  1.2089 -0.8497
   13CHL1   C15  906   3.600   3.292   9.056  0.1345 -0.6715  0.1725
   13CHL1  H15A  907   3.656   3.200   9.032  2.1968 -0.6454  4.0295
   13CHL1  H15B  908   3.497   3.269   9.092  0.5507 -0.5967  1.4704
   13CHL1   C16  909   3.615   3.394   8.940  1.0316 -0.1311 -0.0994
   13CHL1  H16A  910   3.671   3.338   8.863  0.0013  0.0819 -1.0297
   13CHL1  H16B  911   3.515   3.416   8.897  0.3921 -1.7670  0.4827
   13CHL1   C17  912   3.697   3.519   8.994 -0.7855  0.4598 -0.5916
   13CHL1   H17  913   3.625   3.590   9.038  0.7684  1.5279  0.3549
   13CHL1   C13  914   3.777   3.457   9.111  0.7517  0.1411 -0.4114
   13CHL1   C18  915   3.899   3.390   9.064 -0.4499  0.9024 -0.8521
   13CHL1  H18A  916   3.936   3.312   9.135 -0.3194  0.3703 -1.4941
   13CHL1  H18B  917   3.872   3.329   8.975 -0.7130  1.4982 -1.1837
   13CHL1  H18C  918   3.989   3.447   9.032  0.3269 -0.2329 -0.7483
   13CHL1   C12  919   3.804   3.552   9.227 -0.4782 -0.3348 -0.4794
   13CHL1  H12A  920   3.881   3.624   9.191 -2.1543  1.2539 -1.0396
   13CHL1  H12B  921   3.714   3.610   9.259  0.5367  0.4346  1.1554
   13CHL1   C11  922   3.866   3.475   9.353 -0.0050  0.5026  0.7543
   13CHL1  H11A  923   3.966   3.432   9.328 -0.6035 -1.8309  2.0414
   13CHL1  H11B  924   3.881   3.542   9.440 -1.1729  0.9329  0.6362
   13CHL1    C9  925   3.772   3.358   9.393 -0.2457  0.0707 -0.2641
   13CHL1    H9  926   3.677   3.403   9.430 -0.7851  0.1285 -1.6900
   13CHL1   C10  927   3.834   3.272   9.510  0.0738 -0.2214 -0.3484
   13CHL1   C19  928   3.965   3.205   9.448 -0.2209 -0.0997 -1.1426
   13CHL1  H19A  929   3.927   3.147   9.361 -0.4058  0.3869 -1.3921
   13CHL1  H19B  930   4.056   3.265   9.424  0.9258 -0.9543  0.8596
   13CHL1  H19C  931   3.990   3.138   9.533 -0.0197  2.4688  0.9951
   13CHL1    C1  932   3.857   3.368   9.629 -0.6076  0.5238 -0.8325
   13CHL1   H1A  933   3.944   3.431   9.602  0.1516  0.2420  0.8300
   13CHL1   H1B  934   3.781   3.445   9.654  1.8863  2.3012  1.9282
   13CHL1    C2  935   3.907   3.294   9.761 -1.1990 -0.0754  1.2597
   13CHL1   H2A  936   3.923   3.372   9.839 -0.0815  0.1385  0.8450
   13CHL1   H2B  937   4.003   3.245   9.736 -2.3385 -1.6118 -0.3821
   13CHL1   C20  938   3.765   3.589   8.874 -0.0694  0.1760  0.0440
   13CHL1   H20  939   3.828   3.516   8.820  1.2252  1.1530  0.1771
   13CHL1   C21  940   3.842   3.713   8.919  0.8507 -0.2732  0.0608
   13CHL1  H21A  941   3.772   3.795   8.946 -0.9613 -1.4678 -0.8453
   13CHL1  H21B  942   3.911   3.760   8.846 -0.5201  1.1101 -0.4017
   13CHL1  H21C  943   3.906   3.696   9.008  0.8545  1.4632  0.4393
   13CHL1   C22  944   3.657   3.648   8.778 -0.0781 -0.8030 -0.4568
   13CHL1  H22A  945   3.591   3.563   8.751 -0.3512 -1.1604  1.2447
   13CHL1  H22B  946   3.598   3.716   8.843 -0.1126 -0.1836 -1.1242
   13CHL1   C23  947   3.703   3.714   8.656  0.0373 -0.2288 -1.2074
   13CHL1  H23A  948   3.719   3.823   8.672  0.0973 -0.4258  0.1501
   13CHL1  H23B  949   3.809   3.682   8.647  0.6098  1.2572 -0.2712
   13CHL1   C24  950   3.623   3.678   8.529 -0.1502  0.5970 -0.2748
   13CHL1  H24A  951   3.642   3.570   8.511  0.6537  0.0115  3.2757
   13CHL1  H24B  952   3.514   3.699   8.539 -0.3979  0.7110 -2.6558
   13CHL1   C25  953   3.676   3.767   8.414  0.8734 -0.2068 -0.0958
   13CHL1   H25  954   3.787   3.768   8.409  0.8405  0.6814 -0.9542
   13CHL1   C26  955   3.609   3.709   8.289  0.7626 -0.1768  0.0202
   13CHL1  H26A  956   3.498   3.702   8.295  0.8799 -1.1268  1.4707
   13CHL1  H26B  957   3.634   3.779   8.205 -0.9064  2.2366  1.4014
   13CHL1  H26C  958   3.645   3.605   8.276  1.9966  0.3443 -0.9465
   13CHL1   C27  959   3.634   3.917   8.434 -0.0344 -0.3597  0.5003
   13CHL1  H27A  960   3.525   3.920   8.456 -0.7487 -1.9373 -2.4400
   13CHL1  H27B  961   3.685   3.959   8.524 -0.9119  1.9594 -0.0101
   13CHL1  H27C  962   3.667   3.989   8.356 -0.3855 -0.9307 -0.1781
   14CHL1    C3  963   4.219   6.541  10.321  1.4055  0.5276  0.5848
   14CHL1    H3  964   4.231   6.433  10.301  1.1727  0.3875  1.1750
   14CHL1    O3  965   4.164   6.557  10.453  0.7440  0.1596 -0.1464
   14CHL1   H3'  966   4.101   6.629  10.441  1.3812  1.0212  1.4591
   14CHL1    C4  967   4.358   6.606  10.306 -0.3407  0.1688 -0.0899
   14CHL1   H4A  968   4.343   6.713  10.334  0.0180  0.3587 -0.6122
   14CHL1   H4B  969   4.422   6.570  10.390 -0.4566 -1.4428 -0.6656
   14CHL1    C5  970   4.414   6.605  10.164 -0.4747 -0.2064 -0.5396
   14CHL1    C6  971   4.537   6.553  10.130 -0.3447  0.1006 -0.2038
   14CHL1    H6  972   4.599   6.510  10.210  1.6903  2.3928 -0.4395
   14CHL1    C7  973   4.596   6.572   9.992 -0.3532 -0.1229 -0.3223
   14CHL1   H7A  974   4.689   6.628  10.017 -0.4468 -0.6058  1.2517
   14CHL1   H7B  975   4.623   6.479   9.937 -0.6698  0.6813 -1.8846
   14CHL1    C8  976   4.513   6.666   9.895 -0.8122  0.2652  0.0191
   14CHL1    H8  977   4.548   6.766   9.927  1.7004 -1.2573  2.4741
   14CHL1   C14  978   4.555   6.642   9.747 -0.4419  0.6743 -0.6698
   14CHL1   H14  979   4.541   6.533   9.735 -1.5564  0.5438  1.2845
   14CHL1   C15  980   4.704   6.644   9.712 -0.4572 -0.7808  0.3006
   14CHL1  H15A  981   4.743   6.730   9.770  1.7889 -2.2304  1.0344
   14CHL1  H15B  982   4.752   6.548   9.742  0.5232 -1.0763 -2.0268
   14CHL1   C16  983   4.700   6.664   9.562 -0.1325  0.2706  1.0150
   14CHL1  H16A  984   4.745   6.763   9.539  1.6394 -0.8479 -0.6284
   14CHL1  H16B  985   4.750   6.586   9.500 -2.1408  0.4989 -1.0405
   14CHL1   C17  986   4.551   6.663   9.524  0.1270 -0.3063  0.1274
   14CHL1   H17  987   4.524   6.558   9.499 -0.0878  0.2100 -2.0580
   14CHL1   C13  988   4.473   6.715   9.640 -0.4886 -0.4484 -0.0764
   14CHL1   C18  989   4.493   6.870   9.660  0.6441  0.0848 -0.3198
   14CHL1  H18A  990   4.601   6.893   9.667  0.7320 -0.7408  1.7048
   14CHL1  H18B  991   4.447   6.926   9.575  0.6367  0.6912  0.0777
   14CHL1  H18C  992   4.438   6.910   9.748 -0.1283 -0.2758 -0.6234
   14CHL1   C12  993   4.335   6.673   9.663  0.5269 -0.9496  0.4789
   14CHL1  H12A  994   4.266   6.710   9.584  1.5238  0.9399  0.4197
   14CHL1  H12B  995   4.321   6.564   9.648 -2.6327 -0.6797  0.7581
   14CHL1   C11  996   4.274   6.714   9.805 -0.5104  0.1318 -0.0378
   14CHL1  H11A  997   4.257   6.822   9.824 -2.0312  0.0765 -0.9294
   14CHL1  H11B  998   4.174   6.666   9.816  0.2231 -1.6818 -0.9011
   14CHL1    C9  999   4.361   6.652   9.918  0.4582  0.1752  0.0556
   14CHL1    H9 1000   4.349   6.542   9.912 -0.9169  0.2246  1.3651
   14CHL1   C10 1001   4.317   6.681  10.063 -0.0523  0.2985 -0.2072
   14CHL1   C19 1002   4.310   6.833  10.094  0.3808  0.0099  0.6347
   14CHL1  H19A 1003   4.231   6.848  10.170  1.1395 -1.3250  1.7419
   14CHL1  H19B 1004   4.402   6.886  10.127 -0.9552  2.0574  1.2557
   14CHL1  H19C 1005   4.266   6.889  10.010 -1.7488 -2.0597  0.2694
   14CHL1    C1 1006   4.178   6.603  10.075 -0.5682 -0.3149  0.5643
   14CHL1   H1A 1007   4.108   6.662  10.011  1.7969  0.2405 -1.6874
   14CHL1   H1B 1008   4.181   6.497  10.044  3.2153 -0.1186 -0.2815
   14CHL1    C2 1009   4.120   6.607  10.219 -0.1986 -0.0879 -0.0694
   14CHL1   H2A 1010   4.021   6.555  10.216 -0.4922  0.4989 -1.7395
   14CHL1   H2B 1011   4.112   6.711  10.257  1.9933  0.2821 -0.5049
   14CHL1   C20 1012   4.537   6.728   9.380 -0.2945 -0.4031  0.4845
   14CHL1   H20 1013   4.584   6.825   9.404 -0.1452 -1.0550  3.1515
   14CHL1   C21 1014   4.383   6.737   9.351 -0.9157 -0.5513  0.0367
   14CHL1  H21A 1015   4.378   6.808   9.266  0.7878  0.6336  0.8622
   14CHL1  H21B 1016   4.327   6.802   9.422  0.9900  0.9635  0.2440
   14CHL1  H21C 1017   4.345   6.634   9.337  0.3626 -1.4177  2.4276
   14CHL1   C22 1018   4.621   6.658   9.267  0.4468 -0.5804 -0.2946
   14CHL1  H22A 1019   4.726   6.665   9.300  0.5644  0.6683 -0.8946
   14CHL1  H22B 1020   4.593   6.550   9.264  1.8032 -1.1292  2.9301
   14CHL1   C23 1021   4.631   6.736   9.133  0.1765  0.3658 -0.4941
   14CHL1  H23A 1022   4.529   6.731   9.090  0.3101 -0.0085 -0.7698
   14CHL1  H23B 1023   4.661   6.842   9.150  1.2922 -0.0856  0.5003
   14CHL1   C24 1024   4.729   6.659   9.042 -0.5867 -0.6916  0.2670
   14CHL1  H24A 1025   4.830   6.692   9.073 -1.0756  1.5228 -0.3394
   14CHL1  H24B 1026   4.709   6.553   9.070  1.1344 -1.6060 -1.6949
   14CHL1   C25 1027   4.712   6.670   8.887 -0.1218 -0.7830  0.1433
   14CHL1   H25 1028   4.627   6.610   8.848 -0.4356 -0.1183 -0.2004
   14CHL1   C26 1029   4.702   6.819   8.849  0.8333 -0.9323 -0.0384
   14CHL1  H26A 1030   4.687   6.833   8.740  0.1074 -3.7094 -0.3773
   14CHL1  H26B 1031   4.611   6.866   8.891  0.8666  1.7640 -2.6070
   14CHL1  H26C 1032   4.793   6.870   8.886  0.1360  1.1486 -1.0397
   14CHL1   C27 1033   4.841   6.618   8.808  0.3137 -0.1627  0.0485
   14CHL1  H27A 1034   4.841   6.626   8.698 -2.3992  0.1974  0.0275
   14CHL1  H27B 1035   4.929   6.680   8.836 -0.5492  0.7365  0.8346
   14CHL1  H27C 1036   4.850   6.513   8.844 -3.3065 -1.0353 -1.1797
   15CHL1    C3 1037   0.051   5.661   9.953  0.0680 -0.0431  0.2392
   15CHL1    H3 1038  -0.004   5.754   9.982 -1.0844 -1.3216  2.4116
   15CHL1    O3 1039   0.087   5.605  10.078 -0.0185 -0.0154  0.1685
   15CHL1   H3' 1040   0.135   5.677  10.119 -0.3415  0.1348  0.2823
   15CHL1    C4 1041  -0.036   5.569   9.869 -0.0032 -0.9247  0.0749
   15CHL1   H4A 1042   0.014   5.470   9.877  1.8946 -0.0548 -0.4069
   15CHL1   H4B 1043  -0.138   5.552   9.910 -0.8070  1.1878 -0.8937
   15CHL1    C5 1044  -0.052   5.605   9.719  0.0059  0.6582 -0.1391
   15CHL1    C6 1045  -0.178   5.602   9.668  0.7804  0.2644  0.1665
   15CHL1    H6 1046  -0.255   5.569   9.739  0.6482  0.7832  0.2665
   15CHL1    C7 1047  -0.207   5.642   9.529  0.9211  0.3770 -0.0522
   15CHL1   H7A 1048  -0.277   5.574   9.477  1.2742 -1.3757  1.6885
   15CHL1   H7B 1049  -0.245   5.746   9.523 -0.6131 -0.2411 -2.2721
   15CHL1    C8 1050  -0.080   5.651   9.444  0.2184 -0.3096  0.1328
   15CHL1    H8 1051  -0.053   5.545   9.424  0.7267 -0.2206  0.3154
   15CHL1   C14 1052  -0.102   5.701   9.299  0.4350 -0.6186 -0.0426
   15CHL1   H14 1053  -0.130   5.809   9.304 -1.2393 -0.7572 -3.5003
   15CHL1   C15 1054  -0.215   5.638   9.210 -0.6602  0.0390 -0.3222
   15CHL1  H15A 1055  -0.204   5.531   9.235 -0.0082  0.5425  1.7980
   15CHL1  H15B 1056  -0.316   5.677   9.237  0.9272  3.2004  1.8586
   15CHL1   C16 1057  -0.179   5.678   9.068 -0.7844  0.3134 -0.7331
   15CHL1  H16A 1058  -0.172   5.581   9.013  1.5943 -0.0101  0.0234
   15CHL1  H16B 1059  -0.262   5.736   9.023  0.1907  0.8832 -1.8360
   15CHL1   C17 1060  -0.040   5.750   9.075  0.0655 -0.3242  0.3183
   15CHL1   H17 1061  -0.066   5.857   9.082  0.1360 -0.3329  0.7155
   15CHL1   C13 1062   0.019   5.704   9.211 -0.2107  0.5650 -0.0858
   15CHL1   C18 1063   0.075   5.558   9.192 -0.1304  0.3208 -0.3140
   15CHL1  H18A 1064   0.163   5.566   9.125  1.3916  0.5659  1.6131
   15CHL1  H18B 1065   0.110   5.511   9.286 -0.0939  1.3824  0.2185
   15CHL1  H18C 1066  -0.006   5.490   9.158 -0.4965  1.2737 -1.4203
   15CHL1   C12 1067   0.127   5.787   9.271  0.1045 -0.3674 -0.5653
   15CHL1  H12A 1068   0.229   5.782   9.228  1.9111 -0.2965  3.2890
   15CHL1  H12B 1069   0.099   5.895   9.272 -0.5765 -0.5372 -0.8117
   15CHL1   C11 1070   0.161   5.742   9.415  0.8223 -0.1571  0.1032
   15CHL1  H11A 1071   0.212   5.645   9.404 -1.7311 -1.4612 -1.2575
   15CHL1  H11B 1072   0.226   5.821   9.459  1.5183  0.5927 -2.1632
   15CHL1    C9 1073   0.036   5.727   9.511 -0.4260 -0.3592  0.3361
   15CHL1    H9 1074  -0.018   5.817   9.548 -2.6280 -1.1421 -0.8080
   15CHL1   C10 1075   0.071   5.658   9.647 -0.9924 -0.1034 -0.3334
   15CHL1   C19 1076   0.165   5.541   9.620 -1.0453  0.1454  0.1696
   15CHL1  H19A 1077   0.162   5.472   9.707 -1.3532  0.6621  0.5730
   15CHL1  H19B 1078   0.144   5.482   9.528  0.1489  1.6425 -1.1243
   15CHL1  H19C 1079   0.270   5.573   9.601 -0.9051 -1.0076 -1.0905
   15CHL1    C1 1080   0.144   5.761   9.738  0.1479  0.1959 -1.0034
   15CHL1   H1A 1081   0.240   5.792   9.692  0.4080 -1.5633 -1.7360
   15CHL1   H1B 1082   0.080   5.851   9.749 -0.5723 -0.3388 -0.7681
   15CHL1    C2 1083   0.173   5.704   9.881 -0.0172 -0.5664  1.1470
   15CHL1   H2A 1084   0.220   5.782   9.944 -1.0347  1.6805 -0.7032
   15CHL1   H2B 1085   0.241   5.616   9.872 -0.3246 -0.8520  1.5834
   15CHL1   C20 1086   0.045   5.733   8.940  0.2433  0.1749  0.2226
   15CHL1   H20 1087   0.049   5.622   8.942  2.2546  0.2003 -0.2614
   15CHL1   C21 1088   0.175   5.797   8.956 -0.2025  0.0685  0.9026
   15CHL1  H21A 1089   0.175   5.906   8.977  1.1922  0.3139 -0.2230
   15CHL1  H21B 1090   0.239   5.784   8.866  2.5116 -0.1752  2.7678
   15CHL1  H21C 1091   0.233   5.752   9.039 -0.0384 -1.8433 -0.1762
   15CHL1   C22 1092  -0.032   5.790   8.813  0.1127 -0.3259  0.2124
   15CHL1  H22A 1093  -0.136   5.752   8.806  0.5229 -1.2458 -1.3567
   15CHL1  H22B 1094  -0.032   5.901   8.817  0.7960 -0.2486 -1.1947
   15CHL1   C23 1095   0.020   5.744   8.674 -0.2310  0.2158  0.1455
   15CHL1  H23A 1096   0.129   5.767   8.667  0.5526 -3.0364 -0.4966
   15CHL1  H23B 1097   0.010   5.633   8.669 -4.7071  0.3935  1.3717
   15CHL1   C24 1098  -0.051   5.823   8.569  0.1058 -0.0828  0.7003
   15CHL1  H24A 1099  -0.160   5.801   8.570  0.3005 -1.5553 -2.0754
   15CHL1  H24B 1100  -0.041   5.933   8.584  3.4227  0.0598 -1.3701
   15CHL1   C25 1101  -0.005   5.805   8.418 -0.2019  0.1323 -0.1830
   15CHL1   H25 1102   0.099   5.845   8.412 -0.8453  2.1977  1.3143
   15CHL1   C26 1103  -0.009   5.655   8.375  0.8100 -0.8105  0.0196
   15CHL1  H26A 1104   0.066   5.603   8.439  0.3825  0.9088  2.0244
   15CHL1  H26B 1105  -0.100   5.606   8.414 -0.2910  2.0783  1.3667
   15CHL1  H26C 1106   0.004   5.638   8.266  0.8364  1.3223 -0.3439
   15CHL1   C27 1107  -0.091   5.885   8.322 -0.7683 -0.5033 -0.0348
   15CHL1  H27A 1108  -0.083   5.870   8.212 -1.6185  2.1847 -0.5398
   15CHL1  H27B 1109  -0.197   5.857   8.338 -0.3827 -0.6683  2.7838
   15CHL1  H27C 1110  -0.089   5.993   8.346 -0.1939 -0.8042  1.4030
   16CHL1    C3 1111   5.610   5.970  10.190 -0.4164 -0.1136 -1.0854
   16CHL1    H3 1112   5.509   6.015  10.198 -0.3753 -0.1241 -0.4927
   16CHL1    O3 1113   5.653   5.937  10.321  0.2138 -0.0726  0.2765
   16CHL1   H3' 1114   5.616   5.852  10.346  1.5119 -1.1475 -1.3162
   16CHL1    C4 1115   5.605   5.833  10.107 -0.3624  0.4744  0.2859
   16CHL1   H4A 1116   5.710   5.799  10.099 -0.2866  0.9372 -0.8097
   16CHL1   H4B 1117   5.544   5.752  10.152  0.9208  0.9588  3.1051
   16CHL1    C5 1118   5.562   5.864   9.968  0.5262 -0.6985 -0.4135
   16CHL1    C6 1119   5.449   5.803   9.918 -0.6000 -0.0388  0.5548
   16CHL1    H6 1120   5.386   5.729   9.969 -1.6227  0.1011 -0.4442
   16CHL1    C7 1121   5.409   5.823   9.770  0.4461 -0.4323  0.2978
   16CHL1   H7A 1122   5.395   5.718   9.736  1.1552 -1.1676  2.1559
   16CHL1   H7B 1123   5.316   5.882   9.752 -0.0668 -0.7034  1.9216
   16CHL1    C8 1124   5.524   5.896   9.686  0.3965  0.3898  0.1585
   16CHL1    H8 1125   5.606   5.827   9.657 -0.8716 -0.9391 -0.3693
   16CHL1   C14 1126   5.458   5.944   9.557  0.0871  0.2099  0.4628
   16CHL1   H14 1127   5.376   6.013   9.585 -1.3379 -0.5368 -1.6003
   16CHL1   C15 1128   5.392   5.834   9.470 -0.4653  0.3904  0.4844
   16CHL1  H15A 1129   5.459   5.748   9.488  2.3200  1.9831 -1.3747
   16CHL1  H15B 1130   5.289   5.817   9.507 -0.0214 -1.9679  0.7816
   16CHL1   C16 1131   5.395   5.902   9.326 -0.7779 -0.6237 -0.3020
   16CHL1  H16A 1132   5.451   5.833   9.261  2.3478  0.0585  1.4876
   16CHL1  H16B 1133   5.294   5.923   9.283 -0.1875 -1.9362 -2.4357
   16CHL1   C17 1134   5.476   6.034   9.335  0.5018 -0.3715  0.5732
   16CHL1   H17 1135   5.407   6.119   9.353  2.6239  2.0588 -1.7287
   16CHL1   C13 1136   5.556   6.014   9.466 -0.2514 -0.1920  0.7994
   16CHL1   C18 1137   5.686   5.931   9.439  0.5699 -0.0007 -0.5022
   16CHL1  H18A 1138   5.656   5.838   9.387  0.5849 -0.9714  1.1760
   16CHL1  H18B 1139   5.755   5.975   9.364 -0.0377  2.0324  0.0523
   16CHL1  H18C 1140   5.749   5.915   9.529 -0.5469  0.6339  0.4317
   16CHL1   C12 1141   5.600   6.140   9.536 -0.0445  0.1159 -0.1065
   16CHL1  H12A 1142   5.672   6.201   9.477 -0.8325  1.4310  0.2537
   16CHL1  H12B 1143   5.504   6.194   9.550  0.0633  0.1695  0.4146
   16CHL1   C11 1144   5.658   6.116   9.677  0.3804  0.2884 -0.2607
   16CHL1  H11A 1145   5.766   6.090   9.683 -0.2747 -2.4036  3.1575
   16CHL1  H11B 1146   5.641   6.209   9.735 -2.2712 -1.9208  2.8281
   16CHL1    C9 1147   5.580   6.014   9.764 -0.4532  0.4276  0.8240
   16CHL1    H9 1148   5.490   6.073   9.791 -0.3332 -0.0730  2.4419
   16CHL1   C10 1149   5.658   5.968   9.895  0.0322 -0.1515 -0.0127
   16CHL1   C19 1150   5.804   5.916   9.877 -0.5976  0.5433 -0.2230
   16CHL1  H19A 1151   5.872   5.998   9.844  2.1067 -1.4259  0.1290
   16CHL1  H19B 1152   5.847   5.892   9.976  1.3584  0.2696 -1.0906
   16CHL1  H19C 1153   5.807   5.824   9.815 -1.9787 -0.4089  1.0625
   16CHL1    C1 1154   5.672   6.099   9.987  0.1602  0.1710  0.3717
   16CHL1   H1A 1155   5.756   6.157   9.943  0.7064 -1.7702 -1.2832
   16CHL1   H1B 1156   5.577   6.158   9.984 -0.2900 -0.4951  1.1277
   16CHL1    C2 1157   5.704   6.078  10.130 -0.4789  0.2718 -0.6422
   16CHL1   H2A 1158   5.694   6.173  10.186  2.2661 -0.2254  0.8684
   16CHL1   H2B 1159   5.807   6.042  10.151 -1.0424 -0.0356  1.8301
   16CHL1   C20 1160   5.552   6.065   9.200 -0.0629  0.3432  0.3539
   16CHL1   H20 1161   5.616   5.975   9.185 -2.0711 -1.1957  0.4185
   16CHL1   C21 1162   5.622   6.203   9.215  0.1742  0.8885 -0.4673
   16CHL1  H21A 1163   5.667   6.241   9.121  2.2293 -2.1572 -0.8648
   16CHL1  H21B 1164   5.709   6.188   9.283 -1.0528 -0.1289  0.9461
   16CHL1  H21C 1165   5.558   6.272   9.274 -0.1136  0.0806  0.1944
   16CHL1   C22 1166   5.464   6.068   9.070 -0.0954 -0.4743  0.7853
   16CHL1  H22A 1167   5.384   5.994   9.090 -0.7607  0.5657  2.1457
   16CHL1  H22B 1168   5.417   6.167   9.047  0.3420 -0.3092  0.5993
   16CHL1   C23 1169   5.541   6.023   8.944 -0.1386  0.2100 -0.2719
   16CHL1  H23A 1170   5.597   6.117   8.923 -0.8058  1.2349  2.1322
   16CHL1  H23B 1171   5.613   5.940   8.955  2.1205  1.8608 -1.6250
   16CHL1   C24 1172   5.435   5.980   8.846 -0.0817 -0.0147  0.3973
   16CHL1  H24A 1173   5.388   5.886   8.882 -0.2571 -0.5766 -1.2160
   16CHL1  H24B 1174   5.356   6.057   8.834  0.0965 -0.1367 -2.2983
   16CHL1   C25 1175   5.493   5.947   8.707  0.7866 -0.0257 -0.3985
   16CHL1   H25 1176   5.405   5.923   8.644  1.7313 -0.4987 -1.5775
   16CHL1   C26 1177   5.568   6.066   8.638 -0.4925 -0.5799 -0.5074
   16CHL1  H26A 1178   5.653   6.093   8.704 -1.2692 -2.3395  1.3327
   16CHL1  H26B 1179   5.612   6.031   8.543 -0.8643  2.0242 -1.7194
   16CHL1  H26C 1180   5.496   6.150   8.624 -0.0935 -0.1339  0.0622
   16CHL1   C27 1181   5.593   5.833   8.714 -0.3777  0.2267 -0.3290
   16CHL1  H27A 1182   5.601   5.792   8.611 -1.3738  0.7345 -0.6221
   16CHL1  H27B 1183   5.696   5.864   8.740 -0.5110  1.8532 -1.5777
   16CHL1  H27C 1184   5.547   5.753   8.777  1.5228 -0.8357 -0.2289
   17CHL1    C3 1185   2.294   4.139  10.267 -0.0841  0.1752 -0.4661
   17CHL1    H3 1186   2.224   4.054  10.257  1.9311 -1.7679  0.9530
   17CHL1    O3 1187   2.280   4.181  10.400  0.3525 -0.1351 -0.5262
   17CHL1   H3' 1188   2.311   4.105  10.450  1.5132  0.3800 -0.4451
   17CHL1    C4 1189   2.447   4.105  10.230  0.4016  0.0048 -0.5469
   17CHL1   H4A 1190   2.507   4.195  10.256  0.8729 -0.4729  0.0385
   17CHL1   H4B 1191   2.476   4.030  10.307  0.6067  0.9939  0.3717
   17CHL1    C5 1192   2.469   4.049  10.090 -0.1216 -0.5173 -0.4563
   17CHL1    C6 1193   2.521   3.934  10.065  0.2425 -0.2007  0.3308
   17CHL1    H6 1194   2.562   3.871  10.146 -0.7771  0.3208  1.2845
   17CHL1    C7 1195   2.519   3.862   9.938  0.2806 -0.8259  1.1040
   17CHL1   H7A 1196   2.620   3.822   9.914  0.2569 -0.4575  0.3407
   17CHL1   H7B 1197   2.445   3.780   9.939  0.0950 -0.6677  2.6407
   17CHL1    C8 1198   2.497   3.953   9.818 -0.0434 -0.5183 -0.2649
   17CHL1    H8 1199   2.588   4.015   9.815 -0.7753  1.0397  3.5596
   17CHL1   C14 1200   2.466   3.875   9.697 -0.0717 -0.3978  0.5667
   17CHL1   H14 1201   2.372   3.826   9.728 -0.6887  0.9764  0.9640
   17CHL1   C15 1202   2.559   3.756   9.652 -0.2236 -1.2801 -1.3937
   17CHL1  H15A 1203   2.667   3.781   9.662 -0.1904 -2.0812  1.0152
   17CHL1  H15B 1204   2.542   3.665   9.714 -0.7306 -1.0014 -1.1203
   17CHL1   C16 1205   2.524   3.737   9.505  0.2695  0.1828 -0.0059
   17CHL1  H16A 1206   2.617   3.738   9.444  1.5284 -1.9633  1.7096
   17CHL1  H16B 1207   2.498   3.630   9.490  1.8112 -0.3987  1.2441
   17CHL1   C17 1208   2.423   3.848   9.458 -0.4823  0.3531  0.2809
   17CHL1   H17 1209   2.323   3.803   9.478 -1.7064  2.7765 -0.0592
   17CHL1   C13 1210   2.437   3.957   9.570 -0.2225  0.0272  0.4193
   17CHL1   C18 1211   2.567   4.041   9.542 -0.8787  0.3814 -0.3836
   17CHL1  H18A 1212   2.557   4.088   9.442 -0.5283  1.5892  0.1267
   17CHL1  H18B 1213   2.594   4.110   9.624  0.7436 -0.2566 -0.3529
   17CHL1  H18C 1214   2.654   3.973   9.537 -1.8189 -1.0913  1.6712
   17CHL1   C12 1215   2.321   4.053   9.606  1.0464  0.6000  0.7266
   17CHL1  H12A 1216   2.292   4.122   9.523 -0.4293 -0.5243  0.2623
   17CHL1  H12B 1217   2.234   3.986   9.619  0.5796  0.9408 -0.4672
   17CHL1   C11 1218   2.347   4.140   9.727  0.1816  0.8294  0.2680
   17CHL1  H11A 1219   2.423   4.218   9.703 -0.2823  1.0980 -0.3506
   17CHL1  H11B 1220   2.251   4.193   9.746  0.8422  1.8413  0.8877
   17CHL1    C9 1221   2.385   4.052   9.851  0.3902  0.4898  0.4224
   17CHL1    H9 1222   2.293   3.990   9.853  0.1643  0.8440  1.8621
   17CHL1   C10 1223   2.393   4.134   9.986 -0.6370  0.2295 -0.3494
   17CHL1   C19 1224   2.481   4.260   9.961 -0.1788 -0.1688 -0.0577
   17CHL1  H19A 1225   2.432   4.332   9.893 -2.4350 -1.9585 -0.4385
   17CHL1  H19B 1226   2.507   4.311  10.057 -1.2269 -0.6416  0.4887
   17CHL1  H19C 1227   2.577   4.237   9.910  0.1374  0.4941  0.2092
   17CHL1    C1 1228   2.250   4.188  10.019  0.0965 -0.2940 -0.5752
   17CHL1   H1A 1229   2.223   4.256   9.935 -0.5509 -1.6517 -1.5112
   17CHL1   H1B 1230   2.186   4.098  10.008  1.6783 -1.5842  0.2076
   17CHL1    C2 1231   2.248   4.247  10.165  0.7283  0.1358  0.3164
   17CHL1   H2A 1232   2.145   4.281  10.186 -0.1273 -0.9726 -1.8682
   17CHL1   H2B 1233   2.308   4.341  10.173  1.4447 -0.0385 -2.1979
   17CHL1   C20 1234   2.440   3.885   9.301 -0.5005 -0.5572  0.2508
   17CHL1   H20 1235   2.543   3.925   9.290 -0.5876 -0.6584 -1.1781
   17CHL1   C21 1236   2.346   4.007   9.267  0.0702  1.3432  0.5800
   17CHL1  H21A 1237   2.370   4.041   9.163 -0.5177 -0.5269 -0.2169
   17CHL1  H21B 1238   2.361   4.092   9.336  3.1651  1.0146  0.4858
   17CHL1  H21C 1239   2.245   3.967   9.246  1.1770 -1.3529 -0.0656
   17CHL1   C22 1240   2.411   3.764   9.207  0.3222 -0.6435 -0.5586
   17CHL1  H22A 1241   2.441   3.668   9.253  2.3831 -1.4618 -3.3077
   17CHL1  H22B 1242   2.300   3.762   9.205  0.3302 -1.5128 -0.3718
   17CHL1   C23 1243   2.481   3.772   9.073 -0.1971  0.1441  0.1964
   17CHL1  H23A 1244   2.437   3.851   9.007 -2.0104 -2.5547 -2.0503
   17CHL1  H23B 1245   2.588   3.800   9.081 -0.6092  2.5447 -1.3919
   17CHL1   C24 1246   2.466   3.633   9.007  0.0203 -0.4923 -0.2399
   17CHL1  H24A 1247   2.521   3.552   9.058 -0.1235 -0.1614  0.4448
   17CHL1  H24B 1248   2.358   3.608   9.002  0.4364 -2.2279 -3.3115
   17CHL1   C25 1249   2.517   3.626   8.856  0.2100 -0.5509 -1.1978
   17CHL1   H25 1250   2.626   3.635   8.879 -0.4717  1.5338  1.8136
   17CHL1   C26 1251   2.504   3.488   8.786  0.2270  0.3019  0.3270
   17CHL1  H26A 1252   2.559   3.420   8.855  0.6134  2.5820  2.3972
   17CHL1  H26B 1253   2.397   3.461   8.771  0.0108  1.3356 -0.0178
   17CHL1  H26C 1254   2.549   3.488   8.684 -0.3191  0.6443  0.0837
   17CHL1   C27 1255   2.471   3.738   8.762  0.2681  0.4595  0.0387
   17CHL1  H27A 1256   2.363   3.716   8.749  0.2304  0.3746  0.4863
   17CHL1  H27B 1257   2.473   3.839   8.807 -2.6517  0.1419  1.0758
   17CHL1  H27C 1258   2.525   3.734   8.665  2.4329  0.9899  1.1663
   18CHL1    C3 1259   0.127   2.383  10.158  0.3274  0.3317 -0.4041
   18CHL1    H3 1260   0.020   2.394  10.130  0.2561  0.2074 -0.1790
   18CHL1    O3 1261   0.120   2.336  10.293  0.5250  0.7026  0.2338
   18CHL1   H3' 1262   0.158   2.247  10.291  1.8887  1.2017  1.7496
   18CHL1    C4 1263   0.187   2.277  10.072 -0.6226  0.1352  0.4349
   18CHL1   H4A 1264   0.289   2.255  10.109 -2.0264 -1.8712  3.5294
   18CHL1   H4B 1265   0.142   2.175  10.081  2.1524 -1.0770  1.7910
   18CHL1    C5 1266   0.184   2.328   9.929 -0.5442  0.8919 -0.5331
   18CHL1    C6 1267   0.109   2.259   9.837  0.2102 -0.4313 -0.3193
   18CHL1    H6 1268   0.057   2.171   9.877 -0.9600  0.6414  0.6526
   18CHL1    C7 1269   0.101   2.300   9.692  0.2454 -0.0793  0.1956
   18CHL1   H7A 1270   0.094   2.209   9.628 -3.0036 -0.4079  0.8318
   18CHL1   H7B 1271   0.011   2.359   9.666  1.2273  1.1194 -0.6009
   18CHL1    C8 1272   0.220   2.394   9.653 -0.2560  0.0306  0.9489
   18CHL1    H8 1273   0.315   2.337   9.656 -1.1875 -1.5896  0.8984
   18CHL1   C14 1274   0.189   2.450   9.512  0.2409  0.0115 -0.8817
   18CHL1   H14 1275   0.098   2.512   9.529  0.8715  0.7393 -0.0829
   18CHL1   C15 1276   0.149   2.352   9.408  0.2508 -0.1891 -0.1595
   18CHL1  H15A 1277   0.218   2.266   9.419 -1.4090 -1.4223  1.3120
   18CHL1  H15B 1278   0.045   2.316   9.423  0.0215  1.2325  2.1012
   18CHL1   C16 1279   0.166   2.423   9.276  0.3653  0.3582 -0.2684
   18CHL1  H16A 1280   0.223   2.357   9.207 -1.2916 -1.5625  0.1091
   18CHL1  H16B 1281   0.068   2.453   9.233 -0.1747  2.4308  2.1434
   18CHL1   C17 1282   0.233   2.560   9.317 -0.4914 -0.0780 -0.1689
   18CHL1   H17 1283   0.143   2.617   9.348  0.2529  0.0929  1.8356
   18CHL1   C13 1284   0.293   2.537   9.455 -0.8009 -0.4366  0.2342
   18CHL1   C18 1285   0.427   2.459   9.452  0.4173  0.5725  0.0486
   18CHL1  H18A 1286   0.461   2.447   9.557 -1.9090 -0.9671  0.7052
   18CHL1  H18B 1287   0.421   2.357   9.408 -1.1318  0.2761  0.8745
   18CHL1  H18C 1288   0.505   2.518   9.400 -0.7739  1.3097 -0.9330
   18CHL1   C12 1289   0.315   2.661   9.548  0.0095  0.5080 -0.1501
   18CHL1  H12A 1290   0.400   2.726   9.518 -0.8173  1.2005 -1.0281
   18CHL1  H12B 1291   0.228   2.730   9.548  1.0869  1.9282 -0.5051
   18CHL1   C11 1292   0.327   2.619   9.696 -0.7067 -0.0463 -0.2046
   18CHL1  H11A 1293   0.433   2.588   9.705 -0.8292 -0.6169 -0.7235
   18CHL1  H11B 1294   0.311   2.708   9.761  2.6494  0.1347  0.5424
   18CHL1    C9 1295   0.234   2.515   9.751  0.2500  1.0297  0.0542
   18CHL1    H9 1296   0.136   2.567   9.740  1.5446  3.5625 -0.0956
   18CHL1   C10 1297   0.260   2.463   9.902  0.1242 -0.7594 -0.7819
   18CHL1   C19 1298   0.416   2.443   9.916 -0.4964  0.1970 -0.3368
   18CHL1  H19A 1299   0.442   2.398  10.015 -1.0938 -0.1491 -0.3343
   18CHL1  H19B 1300   0.449   2.374   9.835 -0.1628 -0.6617  0.4980
   18CHL1  H19C 1301   0.456   2.546   9.917 -0.0213  0.0157 -0.5013
   18CHL1    C1 1302   0.205   2.568  10.003 -0.3226  0.3610  0.2142
   18CHL1   H1A 1303   0.270   2.658   9.992  0.9643 -0.5398  0.1557
   18CHL1   H1B 1304   0.099   2.583   9.974 -1.1590 -2.3442  1.5093
   18CHL1    C2 1305   0.201   2.519  10.145  0.0283  0.6548 -0.2917
   18CHL1   H2A 1306   0.149   2.594  10.207 -0.6164 -1.3476  1.7324
   18CHL1   H2B 1307   0.305   2.507  10.182  0.9033  3.8455 -1.3783
   18CHL1   C20 1308   0.313   2.638   9.206  1.0359  0.1514 -0.1240
   18CHL1   H20 1309   0.361   2.723   9.258  2.3364 -0.6627  0.0311
   18CHL1   C21 1310   0.208   2.687   9.101  0.3145  0.4263 -0.3121
   18CHL1  H21A 1311   0.117   2.731   9.149 -1.9626 -0.1728 -3.7354
   18CHL1  H21B 1312   0.169   2.604   9.039 -0.5134  1.5159 -1.2910
   18CHL1  H21C 1313   0.253   2.765   9.036  0.4129  0.2733 -0.4259
   18CHL1   C22 1314   0.421   2.559   9.133 -0.2142 -0.3093 -0.2838
   18CHL1  H22A 1315   0.491   2.506   9.201  3.2767  1.8089 -1.9414
   18CHL1  H22B 1316   0.381   2.485   9.060 -1.1745 -0.6158  0.5304
   18CHL1   C23 1317   0.527   2.653   9.074 -0.1307 -0.2524  0.7538
   18CHL1  H23A 1318   0.476   2.742   9.029  0.3358 -0.6288 -0.5597
   18CHL1  H23B 1319   0.593   2.689   9.156  0.7335  1.4222 -0.6208
   18CHL1   C24 1320   0.609   2.602   8.958 -0.0477 -0.3035  0.2767
   18CHL1  H24A 1321   0.537   2.559   8.885  0.2734  1.7745 -1.3450
   18CHL1  H24B 1322   0.654   2.685   8.900  0.5393 -0.9858 -0.2582
   18CHL1   C25 1323   0.716   2.495   8.985 -0.1617  0.2191  0.1951
   18CHL1   H25 1324   0.682   2.423   9.062  3.3694 -0.1078  1.6291
   18CHL1   C26 1325   0.751   2.431   8.850 -0.2043 -0.1183  0.2967
   18CHL1  H26A 1326   0.795   2.500   8.775 -0.1794 -1.6260 -1.1536
   18CHL1  H26B 1327   0.827   2.351   8.863 -1.9703 -1.9098  0.2283
   18CHL1  H26C 1328   0.661   2.383   8.806 -1.5683  1.0543  1.6891
   18CHL1   C27 1329   0.847   2.557   9.035  0.7427 -0.9309 -0.0166
   18CHL1  H27A 1330   0.907   2.473   9.077  1.6828 -0.0658  0.4378
   18CHL1  H27B 1331   0.900   2.614   8.955 -0.4699 -0.3768 -0.4419
   18CHL1  H27C 1332   0.841   2.619   9.127  0.5081 -1.0369  0.0398
   19CHL1    C3 1333   5.571   4.797  10.137  0.5383  0.2873 -0.0378
   19CHL1    H3 1334   5.551   4.697  10.092  1.1266  0.0010  0.3378
   19CHL1    O3 1335   5.549   4.797  10.272  0.1211 -0.0400 -0.8302
   19CHL1   H3' 1336   5.608   4.860  10.314  1.2622 -1.7338  0.1834
   19CHL1    C4 1337   5.715   4.834  10.105  0.6837  0.0001 -0.9949
   19CHL1   H4A 1338   5.733   4.927  10.163  2.4241 -2.6173  3.1992
   19CHL1   H4B 1339   5.783   4.764  10.157  0.9463  0.2147 -1.0502
   19CHL1    C5 1340   5.744   4.855   9.965  0.1092  0.0931  0.1353
   19CHL1    C6 1341   5.851   4.798   9.914  0.3282  0.4496  0.8476
   19CHL1    H6 1342   5.914   4.741   9.984  0.3460  0.6951  1.0345
   19CHL1    C7 1343   5.900   4.817   9.772  0.5906  0.3016 -0.3775
   19CHL1   H7A 1344   6.008   4.845   9.777  0.2787  1.3362  1.6347
   19CHL1   H7B 1345   5.878   4.726   9.712 -2.0522  0.3466  0.3844
   19CHL1    C8 1346   5.818   4.935   9.712  0.7144  0.1251 -0.0311
   19CHL1    H8 1347   5.868   5.021   9.761  1.0754  0.3222 -0.7359
   19CHL1   C14 1348   5.837   4.923   9.560  0.5241  0.1206  0.4235
   19CHL1   H14 1349   5.778   4.831   9.538 -1.1905  0.3423  3.4375
   19CHL1   C15 1350   5.976   4.893   9.499  0.2148  0.2511  0.3393
   19CHL1  H15A 1351   6.047   4.967   9.540  0.1794  0.9816 -0.8646
   19CHL1  H15B 1352   6.008   4.790   9.526 -0.1048  0.7860  3.0345
   19CHL1   C16 1353   5.960   4.928   9.352 -0.4179 -0.8124 -0.4307
   19CHL1  H16A 1354   6.047   4.991   9.322  0.7865 -2.2631 -0.1132
   19CHL1  H16B 1355   5.967   4.835   9.291  0.5364 -2.3359  1.8628
   19CHL1   C17 1356   5.826   4.996   9.339  0.5210 -1.0618  0.3724
   19CHL1   H17 1357   5.762   4.914   9.299  0.9190 -1.5468  0.7277
   19CHL1   C13 1358   5.776   5.033   9.480 -0.2283 -0.0479 -0.7450
   19CHL1   C18 1359   5.826   5.176   9.515  0.2865 -0.7549 -0.8531
   19CHL1  H18A 1360   5.934   5.176   9.489  0.2441 -1.3281 -1.0454
   19CHL1  H18B 1361   5.779   5.259   9.459  2.2023  0.9687 -0.0256
   19CHL1  H18C 1362   5.813   5.196   9.623 -0.7582 -0.1752 -1.0704
   19CHL1   C12 1363   5.628   5.021   9.502  0.0665  0.3158  0.3804
   19CHL1  H12A 1364   5.586   5.103   9.440  2.7820  0.9142 -0.8330
   19CHL1  H12B 1365   5.600   4.921   9.465  0.2080  0.9500 -1.5405
   19CHL1   C11 1366   5.589   5.031   9.650 -0.4164  0.1624  0.1014
   19CHL1  H11A 1367   5.611   5.133   9.689  0.3630 -0.1935  0.6202
   19CHL1  H11B 1368   5.479   5.016   9.656 -0.0720 -2.2512  2.4253
   19CHL1    C9 1369   5.668   4.930   9.741 -0.3489  0.5357 -0.0537
   19CHL1    H9 1370   5.631   4.831   9.707 -0.6813 -0.3283  2.6227
   19CHL1   C10 1371   5.645   4.942   9.889  0.7367 -0.1578  0.1676
   19CHL1   C19 1372   5.672   5.086   9.936 -0.2044 -0.5285  1.2069
   19CHL1  H19A 1373   5.694   5.096  10.044  0.2614  2.0340  0.9373
   19CHL1  H19B 1374   5.760   5.140   9.894 -1.9019  0.6150 -1.0923
   19CHL1  H19C 1375   5.585   5.150   9.909  1.7335  2.1193  0.7570
   19CHL1    C1 1376   5.496   4.908   9.932 -0.1241  0.4066 -0.1703
   19CHL1   H1A 1377   5.441   4.996   9.891  4.6512  4.5421  1.2186
   19CHL1   H1B 1378   5.467   4.815   9.878  0.9291 -0.0392  0.0132
   19CHL1    C2 1379   5.478   4.905  10.079 -0.7603 -0.1729  0.0905
   19CHL1   H2A 1380   5.377   4.872  10.110 -0.6044 -0.0997  0.6763
   19CHL1   H2B 1381   5.503   5.003  10.125 -0.7695 -0.0992 -0.0626
   19CHL1   C20 1382   5.819   5.101   9.224  0.3999 -0.6745  0.4784
   19CHL1   H20 1383   5.875   5.191   9.258  0.6545 -0.2989 -0.9028
   19CHL1   C21 1384   5.683   5.153   9.184  0.7360 -0.3531 -0.1540
   19CHL1  H21A 1385   5.642   5.224   9.259 -1.7823  0.2790 -1.9828
   19CHL1  H21B 1386   5.604   5.077   9.168  0.9756 -0.9136  1.2160
   19CHL1  H21C 1387   5.690   5.218   9.094 -0.9663  0.4750  0.2716
   19CHL1   C22 1388   5.886   5.050   9.091  0.4889 -0.2387  1.1820
   19CHL1  H22A 1389   5.888   5.129   9.013  1.1426  0.3707  1.8025
   19CHL1  H22B 1390   5.992   5.033   9.117  0.7797 -1.6110 -0.6992
   19CHL1   C23 1391   5.836   4.923   9.012 -0.7917 -0.2610 -0.1768
   19CHL1  H23A 1392   5.842   4.828   9.069  0.8227 -0.1055 -0.0402
   19CHL1  H23B 1393   5.729   4.935   8.988 -1.0576 -0.0837  1.0366
   19CHL1   C24 1394   5.922   4.908   8.886 -0.4530 -0.5130 -0.3760
   19CHL1  H24A 1395   5.907   5.006   8.835  1.4513  0.5346  0.9762
   19CHL1  H24B 1396   6.031   4.912   8.902 -0.2426 -2.1990 -1.1769
   19CHL1   C25 1397   5.882   4.809   8.787  0.8733 -0.0110 -0.6982
   19CHL1   H25 1398   5.771   4.804   8.779  0.5601 -1.8024  3.0596
   19CHL1   C26 1399   5.939   4.837   8.648  0.7263  0.3496 -0.4049
   19CHL1  H26A 1400   5.889   4.761   8.584 -1.6772  0.0766  1.6249
   19CHL1  H26B 1401   5.900   4.937   8.618 -1.5085  0.1139  1.4283
   19CHL1  H26C 1402   6.049   4.828   8.647  0.7162 -0.7122  1.8629
   19CHL1   C27 1403   5.915   4.674   8.841 -0.0611 -0.1575 -0.0358
   19CHL1  H27A 1404   5.928   4.677   8.951  0.3844  0.4147 -0.0956
   19CHL1  H27B 1405   5.833   4.603   8.817  0.0312  0.3059 -1.8445
   19CHL1  H27C 1406   6.012   4.629   8.810 -0.4249 -0.3444 -0.9338
   20CHL1    C3 1407   6.582   6.698  10.216  0.9414 -0.4098  0.2179
   20CHL1    H3 1408   6.474   6.727  10.211  0.7588 -0.3714  3.1090
   20CHL1    O3 1409   6.620   6.678  10.351 -0.3285  0.5624  0.1507
   20CHL1   H3' 1410   6.712   6.653  10.347 -0.7556 -1.0318 -2.2298
   20CHL1    C4 1411   6.620   6.573  10.134 -0.4549  0.4638  0.1805
   20CHL1   H4A 1412   6.723   6.551  10.168 -0.8979 -0.2200  1.0935
   20CHL1   H4B 1413   6.569   6.478  10.161  1.6642 -1.4127 -1.9632
   20CHL1    C5 1414   6.606   6.588   9.984 -0.6953  0.1779  0.4087
   20CHL1    C6 1415   6.538   6.503   9.908  0.2749  0.7292 -0.3682
   20CHL1    H6 1416   6.493   6.415   9.956 -3.0263  2.0609 -0.8130
   20CHL1    C7 1417   6.538   6.511   9.755  0.2348  0.0146  0.4657
   20CHL1   H7A 1418   6.563   6.408   9.720  0.9975  0.1589  0.5738
   20CHL1   H7B 1419   6.439   6.545   9.716  0.6345 -0.2596 -0.8513
   20CHL1    C8 1420   6.646   6.607   9.699  0.0853 -0.5871  0.7195
   20CHL1    H8 1421   6.743   6.557   9.716  1.5576  0.9057 -2.3673
   20CHL1   C14 1422   6.627   6.631   9.549 -0.1390 -0.0355 -0.6742
   20CHL1   H14 1423   6.531   6.686   9.544 -0.6725 -0.7778  1.0044
   20CHL1   C15 1424   6.591   6.518   9.452 -0.0405  0.0787  0.3881
   20CHL1  H15A 1425   6.644   6.422   9.469  1.7392  0.9487 -0.0028
   20CHL1  H15B 1426   6.481   6.509   9.449  0.0106 -0.8135  0.8459
   20CHL1   C16 1427   6.636   6.570   9.316 -0.4321  0.2410 -0.0046
   20CHL1  H16A 1428   6.723   6.510   9.281 -0.2551 -0.3275  1.3496
   20CHL1  H16B 1429   6.556   6.548   9.242 -0.6465 -0.0681  0.3158
   20CHL1   C17 1430   6.682   6.712   9.339  0.5175 -0.2033  0.4188
   20CHL1   H17 1431   6.596   6.783   9.334 -0.1220 -1.0247 -0.4419
   20CHL1   C13 1432   6.731   6.710   9.484 -0.0213 -0.1112 -0.0589
   20CHL1   C18 1433   6.871   6.647   9.502  0.1476 -0.1669  0.3560
   20CHL1  H18A 1434   6.938   6.714   9.445 -0.4775  0.2014  0.0382
   20CHL1  H18B 1435   6.907   6.652   9.607  1.0677  3.4251 -0.0287
   20CHL1  H18C 1436   6.862   6.545   9.458 -2.7261  0.4489 -0.6890
   20CHL1   C12 1437   6.731   6.847   9.555 -0.9377  0.9542 -0.3066
   20CHL1  H12A 1438   6.813   6.911   9.517 -1.2996  0.3303 -2.2193
   20CHL1  H12B 1439   6.631   6.888   9.528 -1.8155 -0.5519  0.5097
   20CHL1   C11 1440   6.749   6.834   9.709 -0.2307  0.4108 -0.3161
   20CHL1  H11A 1441   6.857   6.819   9.728  0.1886  3.9362  0.8824
   20CHL1  H11B 1442   6.719   6.931   9.753  0.1202  0.2712  0.2374
   20CHL1    C9 1443   6.652   6.735   9.779  0.2658 -0.0632  0.2242
   20CHL1    H9 1444   6.551   6.780   9.772  0.4597  0.9294  2.7801
   20CHL1   C10 1445   6.682   6.708   9.930 -1.1358  0.0861 -0.2055
   20CHL1   C19 1446   6.837   6.687   9.941 -0.4166  0.4459 -0.4563
   20CHL1  H19A 1447   6.872   6.613   9.866 -1.7861 -0.0588 -0.6266
   20CHL1  H19B 1448   6.905   6.775   9.936  2.2518 -1.2886  2.3065
   20CHL1  H19C 1449   6.863   6.649  10.042  0.0852 -0.3917 -0.9019
   20CHL1    C1 1450   6.645   6.824  10.013  0.2578 -0.3692  0.6656
   20CHL1   H1A 1451   6.698   6.913   9.971  1.6777 -1.9969 -1.1935
   20CHL1   H1B 1452   6.536   6.847  10.013  0.1099 -0.6991  3.6045
   20CHL1    C2 1453   6.665   6.815  10.161  0.0761 -0.1033 -0.9542
   20CHL1   H2A 1454   6.630   6.908  10.212 -0.4202 -0.4913 -0.5812
   20CHL1   H2B 1455   6.770   6.811  10.198 -0.1017  1.3837 -0.1666
   20CHL1   C20 1456   6.780   6.751   9.231  0.1671  0.2162 -0.3223
   20CHL1   H20 1457   6.872   6.694   9.256  0.1409  1.2361  2.3596
   20CHL1   C21 1458   6.817   6.900   9.243 -0.4604  1.0789 -0.2273
   20CHL1  H21A 1459   6.854   6.940   9.147  2.2093  1.1304  0.7257
   20CHL1  H21B 1460   6.893   6.898   9.325  0.2043  1.8889 -0.8077
   20CHL1  H21C 1461   6.720   6.946   9.272 -1.4777 -0.7519 -0.5882
   20CHL1   C22 1462   6.727   6.712   9.092  0.2012 -0.0429  0.2359
   20CHL1  H22A 1463   6.820   6.708   9.031  1.0491  0.0226  1.4993
   20CHL1  H22B 1464   6.691   6.607   9.090 -1.0992  0.2566  2.9476
   20CHL1   C23 1465   6.625   6.801   9.030 -0.4337 -0.8159 -0.1165
   20CHL1  H23A 1466   6.537   6.806   9.097  0.2624 -1.3107  0.8682
   20CHL1  H23B 1467   6.671   6.902   9.020  0.9479 -1.5099 -1.0922
   20CHL1   C24 1468   6.598   6.755   8.885  0.1916 -0.0268 -0.1716
   20CHL1  H24A 1469   6.690   6.773   8.825  1.2457  1.5885  1.8422
   20CHL1  H24B 1470   6.578   6.645   8.888  0.4245 -0.0674 -0.0787
   20CHL1   C25 1471   6.485   6.826   8.812 -0.1053  0.9530  0.1338
   20CHL1   H25 1472   6.475   6.755   8.727  2.4794 -0.4451  0.8760
   20CHL1   C26 1473   6.356   6.842   8.898 -0.1820  0.4006 -0.2792
   20CHL1  H26A 1474   6.352   6.944   8.942 -1.1755  0.0582  0.4500
   20CHL1  H26B 1475   6.277   6.839   8.821  0.6705  1.0798 -1.2166
   20CHL1  H26C 1476   6.334   6.762   8.972  1.4126  0.7816  0.6624
   20CHL1   C27 1477   6.525   6.966   8.757  0.4129 -0.1837 -0.0915
   20CHL1  H27A 1478   6.616   6.967   8.693  0.0692  1.5885 -0.5930
   20CHL1  H27B 1479   6.453   7.018   8.690  0.4035  0.3483  0.3282
   20CHL1  H27C 1480   6.548   7.028   8.846  2.5558 -0.2930 -0.5066
   21CHL1    C3 1481   5.822   2.811  10.191  0.6665  0.3437  0.8060
   21CHL1    H3 1482   5.822   2.707  10.153  1.0705  0.0181  1.6624
   21CHL1    O3 1483   5.790   2.821  10.328 -0.3963  0.0772 -0.1417
   21CHL1   H3' 1484   5.867   2.827  10.385 -0.3776 -0.7273 -0.0743
   21CHL1    C4 1485   5.964   2.869  10.163 -0.2478 -0.5415 -0.0009
   21CHL1   H4A 1486   5.960   2.967  10.215 -0.7255 -1.0669  0.9721
   21CHL1   H4B 1487   6.045   2.812  10.214  0.0290 -1.2584 -1.1975
   21CHL1    C5 1488   5.984   2.874  10.011  0.0277  0.3123 -0.8796
   21CHL1    C6 1489   6.081   2.796   9.957  0.0583  0.2983  0.4132
   21CHL1    H6 1490   6.142   2.731  10.022 -0.6258  1.3511  2.1959
   21CHL1    C7 1491   6.113   2.799   9.813 -0.2785  0.1749 -0.5749
   21CHL1   H7A 1492   6.221   2.788   9.793 -0.3799  0.1349 -1.1219
   21CHL1   H7B 1493   6.067   2.709   9.767 -2.9587  1.1954 -0.1015
   21CHL1    C8 1494   6.045   2.920   9.736  0.0588  0.3328 -0.4737
   21CHL1    H8 1495   6.088   3.016   9.772  1.8920  0.6668 -3.3040
   21CHL1   C14 1496   6.056   2.900   9.597  0.1063  0.3508 -0.6540
   21CHL1   H14 1497   6.011   2.803   9.569  0.0999  0.3273 -0.5628
   21CHL1   C15 1498   6.195   2.880   9.538  0.3482 -0.4345 -0.0439
   21CHL1  H15A 1499   6.276   2.938   9.588  1.4004 -0.0014 -2.1020
   21CHL1  H15B 1500   6.231   2.776   9.555  1.2276  0.0747  1.4160
   21CHL1   C16 1501   6.181   2.911   9.391  0.1382 -0.0594  0.0740
   21CHL1  H16A 1502   6.248   2.995   9.366 -0.9552  0.3406 -1.7437
   21CHL1  H16B 1503   6.213   2.825   9.328  2.0234 -0.4186  1.4334
   21CHL1   C17 1504   6.029   2.936   9.370 -0.0694 -0.2851 -0.0286
   21CHL1   H17 1505   5.977   2.838   9.361 -1.5161  0.4352  0.2855
   21CHL1   C13 1506   5.986   2.992   9.503 -0.6013  0.1231  0.1593
   21CHL1   C18 1507   6.042   3.137   9.516 -0.3996  0.1327 -0.1680
   21CHL1  H18A 1508   6.044   3.173   9.621  4.0140  0.5621 -0.2114
   21CHL1  H18B 1509   6.150   3.147   9.491 -0.0283 -2.2928  0.2012
   21CHL1  H18C 1510   5.989   3.205   9.445 -0.5618 -0.0368 -0.2115
   21CHL1   C12 1511   5.836   2.996   9.530 -0.0868 -0.4570 -0.1203
   21CHL1  H12A 1512   5.781   3.071   9.470  0.2544 -0.0584  0.0589
   21CHL1  H12B 1513   5.796   2.895   9.508 -0.0344 -0.7562  1.0872
   21CHL1   C11 1514   5.817   3.026   9.680  0.0069  0.5258 -0.0414
   21CHL1  H11A 1515   5.843   3.128   9.716 -1.3195 -0.0026  2.7135
   21CHL1  H11B 1516   5.706   3.024   9.689 -0.1855  0.5452 -2.0066
   21CHL1    C9 1517   5.897   2.928   9.770 -0.2618  0.3760 -0.4337
   21CHL1    H9 1518   5.860   2.824   9.755 -0.1341 -0.0221  1.7563
   21CHL1   C10 1519   5.882   2.949   9.925 -1.0793  0.4892  0.4614
   21CHL1   C19 1520   5.910   3.101   9.954 -1.0403  0.6225 -0.2334
   21CHL1  H19A 1521   6.011   3.138   9.927 -0.8837  0.7105  0.4700
   21CHL1  H19B 1522   5.836   3.162   9.898 -1.1393 -0.1757 -0.9938
   21CHL1  H19C 1523   5.892   3.114  10.063 -2.6984 -1.4467 -0.1968
   21CHL1    C1 1524   5.736   2.905   9.966  0.0973 -0.3951 -0.8138
   21CHL1   H1A 1525   5.654   2.966   9.922  2.4243  2.7907 -1.0595
   21CHL1   H1B 1526   5.734   2.800   9.930  1.2626 -0.5188 -0.5542
   21CHL1    C2 1527   5.718   2.897  10.121  0.4195 -0.0226  0.2106
   21CHL1   H2A 1528   5.620   2.856  10.153  0.5512 -1.6317 -1.2571
   21CHL1   H2B 1529   5.734   3.000  10.158  1.2127  0.2905 -0.9573
   21CHL1   C20 1530   5.989   2.987   9.231  1.1386 -0.2547  0.6179
   21CHL1   H20 1531   6.024   2.903   9.168 -0.5910 -1.4387  1.1491
   21CHL1   C21 1532   6.072   3.113   9.179 -0.0596 -0.4840  0.0143
   21CHL1  H21A 1533   6.046   3.127   9.072 -0.5406  0.8491  0.2885
   21CHL1  H21B 1534   6.175   3.075   9.193 -0.2385 -1.0537 -0.1760
   21CHL1  H21C 1535   6.051   3.207   9.235 -1.8651  0.6147 -2.2891
   21CHL1   C22 1536   5.836   3.013   9.210 -1.1747 -0.4083 -0.0642
   21CHL1  H22A 1537   5.784   2.926   9.254 -1.6312  0.0919  0.4039
   21CHL1  H22B 1538   5.805   3.108   9.259 -0.2114 -1.4970  2.8896
   21CHL1   C23 1539   5.816   3.019   9.057 -0.2304  0.2481 -0.1770
   21CHL1  H23A 1540   5.854   3.114   9.015 -1.5391  1.4324  1.2214
   21CHL1  H23B 1541   5.882   2.936   9.022 -0.7314 -0.3489  0.2735
   21CHL1   C24 1542   5.673   2.982   9.001  0.5353 -0.0850  0.1164
   21CHL1  H24A 1543   5.627   2.901   9.063 -2.0011  0.4624 -0.9343
   21CHL1  H24B 1544   5.609   3.070   9.021  0.7014 -0.0836  0.6680
   21CHL1   C25 1545   5.667   2.948   8.854 -0.1524 -0.8850  0.8116
   21CHL1   H25 1546   5.740   2.865   8.842 -1.4504 -1.7626 -1.9290
   21CHL1   C26 1547   5.538   2.889   8.808 -0.1277 -0.6619  0.7488
   21CHL1  H26A 1548   5.455   2.962   8.813 -3.1291 -3.4848 -2.4223
   21CHL1  H26B 1549   5.539   2.859   8.701 -1.0583 -0.2249  0.6113
   21CHL1  H26C 1550   5.511   2.799   8.866 -0.5442 -0.2921  1.1269
   21CHL1   C27 1551   5.698   3.066   8.759 -0.8410  0.1190 -0.0786
   21CHL1  H27A 1552   5.644   3.161   8.775  2.7553  2.4382 -0.6283
   21CHL1  H27B 1553   5.806   3.091   8.771 -0.6683 -0.5283 -0.2233
   21CHL1  H27C 1554   5.695   3.038   8.652  0.2637 -0.8717  0.1268
   22CHL1    C3 1555   6.356   4.576   9.997  0.0015 -0.4573  0.1031
   22CHL1    H3 1556   6.464   4.597   9.984 -0.4031  0.6439 -1.7487
   22CHL1    O3 1557   6.319   4.562  10.134 -0.7644  0.0447  0.1197
   22CHL1   H3' 1558   6.224   4.569  10.128 -0.7853  2.8993  2.0054
   22CHL1    C4 1559   6.265   4.676   9.928  0.0489  0.0915 -0.3513
   22CHL1   H4A 1560   6.161   4.645   9.950  0.5113 -1.0102  0.3685
   22CHL1   H4B 1561   6.264   4.775   9.980 -0.6499 -0.5958  1.0204
   22CHL1    C5 1562   6.293   4.692   9.781 -0.0311 -0.1729  0.4785
   22CHL1    C6 1563   6.353   4.806   9.727 -0.6077  0.5168 -0.1416
   22CHL1    H6 1564   6.377   4.896   9.786  0.0841  1.1764 -1.3850
   22CHL1    C7 1565   6.397   4.814   9.583 -0.1791  0.2063 -0.8297
   22CHL1   H7A 1566   6.360   4.911   9.544 -1.4550 -0.1029 -0.4422
   22CHL1   H7B 1567   6.507   4.814   9.564 -0.2901  0.5833 -1.5347
   22CHL1    C8 1568   6.326   4.708   9.494 -0.1814  0.1492  0.4432
   22CHL1    H8 1569   6.225   4.751   9.479  1.5283  4.2566 -0.8577
   22CHL1   C14 1570   6.394   4.721   9.357 -0.0772  0.6580 -0.6024
   22CHL1   H14 1571   6.500   4.698   9.383 -0.0815  1.0905 -0.1832
   22CHL1   C15 1572   6.390   4.859   9.296 -0.1758 -0.4291 -0.7333
   22CHL1  H15A 1573   6.292   4.908   9.315  0.2602 -0.5199  2.2801
   22CHL1  H15B 1574   6.469   4.922   9.342  0.0854 -0.6248 -0.9142
   22CHL1   C16 1575   6.408   4.834   9.139  0.1355  0.4929  0.0023
   22CHL1  H16A 1576   6.319   4.876   9.086  0.7841  0.6395 -0.9942
   22CHL1  H16B 1577   6.492   4.897   9.103 -0.2432  1.4335  0.7344
   22CHL1   C17 1578   6.414   4.678   9.118 -0.0021 -0.4710 -0.5819
   22CHL1   H17 1579   6.521   4.652   9.129  0.1489  0.5519  0.5292
   22CHL1   C13 1580   6.342   4.622   9.251 -0.4376  0.6393  0.6587
   22CHL1   C18 1581   6.192   4.622   9.219  0.5240 -0.4726 -0.5810
   22CHL1  H18A 1582   6.137   4.605   9.314  0.3275  0.1599 -0.5784
   22CHL1  H18B 1583   6.170   4.726   9.186 -0.6000 -0.7118 -0.6131
   22CHL1  H18C 1584   6.151   4.543   9.152 -0.1387 -1.9879  1.5240
   22CHL1   C12 1585   6.376   4.477   9.311 -0.3271 -0.8621 -0.6635
   22CHL1  H12A 1586   6.357   4.392   9.242 -0.5150 -2.5298  1.3231
   22CHL1  H12B 1587   6.485   4.492   9.327 -0.6245  0.2708  0.4489
   22CHL1   C11 1588   6.308   4.460   9.455  0.1630  0.2275  0.5412
   22CHL1  H11A 1589   6.198   4.450   9.444 -0.0226  2.8669 -0.9794
   22CHL1  H11B 1590   6.349   4.366   9.497 -1.0883  0.2281  1.8431
   22CHL1    C9 1591   6.349   4.572   9.557 -0.1932 -0.6008 -0.0098
   22CHL1    H9 1592   6.455   4.551   9.582 -0.8745 -0.5443  3.4771
   22CHL1   C10 1593   6.286   4.562   9.707 -0.4349  0.3049 -0.1801
   22CHL1   C19 1594   6.138   4.532   9.688 -0.1649  0.5557 -0.1340
   22CHL1  H19A 1595   6.124   4.430   9.646 -0.8107  0.0734  1.1863
   22CHL1  H19B 1596   6.086   4.538   9.786 -0.5312  0.2302 -0.3078
   22CHL1  H19C 1597   6.089   4.607   9.622 -0.8859 -0.2749 -0.5542
   22CHL1    C1 1598   6.355   4.446   9.777 -0.5607  0.6239 -0.0336
   22CHL1   H1A 1599   6.312   4.349   9.743 -1.6029 -1.2701  5.5523
   22CHL1   H1B 1600   6.465   4.453   9.770 -0.2673 -2.7576 -0.4673
   22CHL1    C2 1601   6.333   4.436   9.928  0.1017 -0.5246  0.2114
   22CHL1   H2A 1602   6.392   4.361   9.985  1.4566  0.8121  0.6429
   22CHL1   H2B 1603   6.225   4.413   9.940 -0.1828 -0.9610 -2.5456
   22CHL1   C20 1604   6.375   4.630   8.976 -0.3354  0.0207  0.1875
   22CHL1   H20 1605   6.272   4.655   8.944  0.3199 -2.4249 -4.9017
   22CHL1   C21 1606   6.389   4.475   8.968 -0.5835 -0.2404  0.9089
   22CHL1  H21A 1607   6.329   4.425   9.047  0.2034 -0.0365  1.6499
   22CHL1  H21B 1608   6.494   4.440   8.978 -0.1732  0.5285 -0.4482
   22CHL1  H21C 1609   6.327   4.443   8.881  0.2261  2.6513 -0.8590
   22CHL1   C22 1610   6.475   4.709   8.874  0.1109 -0.1604 -0.4816
   22CHL1  H22A 1611   6.495   4.812   8.909 -1.2073  0.0937 -0.4040
   22CHL1  H22B 1612   6.574   4.659   8.869 -1.1581 -2.9485 -0.0688
   22CHL1   C23 1613   6.414   4.723   8.733  0.6589 -0.3543  0.0674
   22CHL1  H23A 1614   6.399   4.629   8.676 -0.0387  0.6004 -1.3930
   22CHL1  H23B 1615   6.314   4.766   8.755  0.7819 -0.1324  0.1931
   22CHL1   C24 1616   6.500   4.807   8.648 -0.5871 -0.2978  1.0537
   22CHL1  H24A 1617   6.491   4.910   8.688  0.7806  1.1335 -1.9925
   22CHL1  H24B 1618   6.607   4.777   8.645 -0.0915  1.4498  0.4656
   22CHL1   C25 1619   6.438   4.806   8.509  0.6858 -0.1795  0.3868
   22CHL1   H25 1620   6.327   4.810   8.502  0.6604  1.7761  1.1280
   22CHL1   C26 1621   6.492   4.918   8.424 -0.5392  0.1941 -0.0169
   22CHL1  H26A 1622   6.486   5.021   8.467  3.8954  1.0612 -0.9803
   22CHL1  H26B 1623   6.600   4.903   8.407 -0.1387  0.0636  2.3698
   22CHL1  H26C 1624   6.435   4.921   8.328 -0.2614 -0.8630 -0.2239
   22CHL1   C27 1625   6.473   4.684   8.421  0.1218 -0.0205 -0.8387
   22CHL1  H27A 1626   6.400   4.603   8.444  2.0703 -1.6894 -0.2252
   22CHL1  H27B 1627   6.461   4.701   8.312  0.7545  1.0259 -0.7578
   22CHL1  H27C 1628   6.581   4.664   8.439 -0.0115 -0.7348 -0.7839
   23CHL1    C3 1629   3.969   4.869  10.085  0.8391 -0.5390  0.0774
   23CHL1    H3 1630   3.892   4.947  10.102  0.8414 -0.4939 -0.1103
   23CHL1    O3 1631   4.047   4.862  10.203 -0.9928  0.2754 -0.0272
   23CHL1   H3' 1632   4.104   4.785  10.197 -2.7452 -1.1795  0.9536
   23CHL1    C4 1633   3.900   4.739  10.041 -0.9067 -0.1367  0.0838
   23CHL1   H4A 1634   3.969   4.653  10.058 -1.3055 -0.3191  0.8380
   23CHL1   H4B 1635   3.825   4.718  10.120 -0.6860  0.7528  0.5393
   23CHL1    C5 1636   3.833   4.742   9.903 -0.1683  0.0425 -0.1411
   23CHL1    C6 1637   3.703   4.709   9.886  0.4065  0.2958 -0.5966
   23CHL1    H6 1638   3.636   4.668   9.963  1.3142 -0.3450 -0.1224
   23CHL1    C7 1639   3.645   4.696   9.752  0.2452  0.0007  0.2070
   23CHL1   H7A 1640   3.597   4.599   9.726 -1.6400  1.4416 -2.1367
   23CHL1   H7B 1641   3.570   4.778   9.751 -0.3798 -0.5601 -1.0681
   23CHL1    C8 1642   3.743   4.706   9.636  0.1479  0.2331 -0.2603
   23CHL1    H8 1643   3.782   4.602   9.632  1.5581  0.6175  1.9126
   23CHL1   C14 1644   3.670   4.745   9.508  0.0308 -0.3033 -0.0552
   23CHL1   H14 1645   3.632   4.848   9.523  0.2975 -0.3192  0.8037
   23CHL1   C15 1646   3.539   4.679   9.487 -0.0551 -0.2106  0.2880
   23CHL1  H15A 1647   3.540   4.568   9.497 -1.1565 -0.3845 -1.1814
   23CHL1  H15B 1648   3.470   4.709   9.568 -0.1492 -1.5875  0.7402
   23CHL1   C16 1649   3.501   4.709   9.340 -1.2603  0.2013  0.6037
   23CHL1  H16A 1650   3.476   4.617   9.284 -0.9428  0.6636 -0.3118
   23CHL1  H16B 1651   3.422   4.788   9.342  0.4425  1.9706  0.6843
   23CHL1   C17 1652   3.631   4.773   9.275 -0.7994  0.6712  0.6805
   23CHL1   H17 1653   3.609   4.882   9.277 -2.7662  0.3289 -0.3005
   23CHL1   C13 1654   3.747   4.743   9.378  0.3024 -0.0494  0.4400
   23CHL1   C18 1655   3.804   4.601   9.338 -0.3156 -0.7808 -0.2270
   23CHL1  H18A 1656   3.724   4.524   9.337 -1.9145  0.7962  0.9467
   23CHL1  H18B 1657   3.858   4.601   9.241  0.2845  0.7120  0.0879
   23CHL1  H18C 1658   3.878   4.564   9.412  0.7332  2.2491  0.3804
   23CHL1   C12 1659   3.861   4.847   9.398 -0.5098 -0.0180  0.7701
   23CHL1  H12A 1660   3.947   4.829   9.329 -0.2342  0.7936  0.8918
   23CHL1  H12B 1661   3.820   4.950   9.394 -1.3788 -0.3559  0.9070
   23CHL1   C11 1662   3.935   4.827   9.531  0.0296 -0.2629  0.0802
   23CHL1  H11A 1663   3.991   4.732   9.513 -0.2600 -0.4203  0.0114
   23CHL1  H11B 1664   4.015   4.898   9.561 -0.6897  0.4230  0.3846
   23CHL1    C9 1665   3.851   4.812   9.659  0.2745 -0.1959 -0.3330
   23CHL1    H9 1666   3.804   4.912   9.668  0.0254 -0.4096  1.0053
   23CHL1   C10 1667   3.927   4.793   9.791 -0.2855 -0.6041  0.6290
   23CHL1   C19 1668   4.039   4.691   9.761 -0.0756 -0.1069 -0.3283
   23CHL1  H19A 1669   4.112   4.665   9.840  0.0338 -1.3307 -0.8045
   23CHL1  H19B 1670   3.990   4.597   9.725 -0.6652 -0.3823  1.1090
   23CHL1  H19C 1671   4.107   4.729   9.682 -0.9508  1.0647 -0.5473
   23CHL1    C1 1672   3.990   4.926   9.838  0.1726  0.0418  0.5751
   23CHL1   H1A 1673   4.065   4.954   9.761 -1.5972  3.4910 -0.0983
   23CHL1   H1B 1674   3.905   4.998   9.834 -0.3069 -0.3595  2.6187
   23CHL1    C2 1675   4.052   4.931   9.977 -0.0744 -0.9700  0.4061
   23CHL1   H2A 1676   4.075   5.037  10.003  2.3438 -1.4292  0.3996
   23CHL1   H2B 1677   4.154   4.886   9.978  1.3348  1.8684 -0.9614
   23CHL1   C20 1678   3.646   4.732   9.126  0.1014  0.8328 -0.4994
   23CHL1   H20 1679   3.650   4.622   9.112  0.1537  0.8428 -0.5566
   23CHL1   C21 1680   3.775   4.792   9.065  0.6536 -0.6507  0.4307
   23CHL1  H21A 1681   3.869   4.756   9.113  1.8219 -2.3847 -2.8493
   23CHL1  H21B 1682   3.762   4.901   9.078 -2.1843 -0.5670 -2.0657
   23CHL1  H21C 1683   3.785   4.771   8.957 -1.3484 -1.8412  0.4146
   23CHL1   C22 1684   3.525   4.773   9.038  0.5445  0.4871 -0.3202
   23CHL1  H22A 1685   3.429   4.755   9.091 -0.6066  1.7478 -1.8815
   23CHL1  H22B 1686   3.533   4.884   9.042 -0.9828  0.5834  0.8041
   23CHL1   C23 1687   3.528   4.726   8.902  0.9095  0.4864 -0.1244
   23CHL1  H23A 1688   3.602   4.766   8.830  2.3399 -2.4844 -0.4382
   23CHL1  H23B 1689   3.531   4.615   8.910 -0.1614  0.4911  0.6444
   23CHL1   C24 1690   3.387   4.750   8.834 -0.2496  0.5178 -0.3670
   23CHL1  H24A 1691   3.306   4.678   8.859  0.5095 -0.3857 -0.4719
   23CHL1  H24B 1692   3.344   4.851   8.851  0.0797  1.0722 -2.4584
   23CHL1   C25 1693   3.402   4.753   8.683  0.3919  0.0994  0.3370
   23CHL1   H25 1694   3.481   4.826   8.656 -0.5016  0.1877 -2.4335
   23CHL1   C26 1695   3.441   4.618   8.626 -0.9795  0.6900 -0.3225
   23CHL1  H26A 1696   3.366   4.541   8.654 -0.1985  0.6399  1.8124
   23CHL1  H26B 1697   3.446   4.627   8.515  0.3702 -0.3060 -0.3768
   23CHL1  H26C 1698   3.531   4.582   8.680 -1.6898 -2.0148 -0.7733
   23CHL1   C27 1699   3.262   4.781   8.624 -0.4519 -0.4741  0.3361
   23CHL1  H27A 1700   3.182   4.721   8.671  0.5183 -2.6518 -0.6595
   23CHL1  H27B 1701   3.236   4.889   8.634 -2.0530 -0.7372 -0.6611
   23CHL1  H27C 1702   3.250   4.768   8.514 -1.0132 -0.2341  0.3683
   24CHL1    C3 1703   4.523   3.935  10.116 -0.5744 -0.5802 -0.3843
   24CHL1    H3 1704   4.456   3.851  10.146 -1.1663  0.4755  1.4751
   24CHL1    O3 1705   4.540   3.995  10.246 -0.1416 -0.9724  0.1847
   24CHL1   H3' 1706   4.488   4.076  10.246  1.4624  0.1109 -0.8075
   24CHL1    C4 1707   4.651   3.868  10.059  0.1945 -0.2163 -0.1814
   24CHL1   H4A 1708   4.736   3.933  10.091 -0.1824  0.6246 -0.8427
   24CHL1   H4B 1709   4.672   3.777  10.118 -1.5078  0.2332  1.1818
   24CHL1    C5 1710   4.650   3.833   9.913  0.1463 -0.1094  0.0362
   24CHL1    C6 1711   4.685   3.709   9.873 -0.0053 -0.0946 -0.5380
   24CHL1    H6 1712   4.719   3.636   9.949  0.1723  2.8465  2.4338
   24CHL1    C7 1713   4.704   3.658   9.728  0.1944 -0.1591 -0.6417
   24CHL1   H7A 1714   4.806   3.613   9.718  0.6667  1.1885 -2.4060
   24CHL1   H7B 1715   4.623   3.584   9.711 -1.7169  2.1777 -2.2118
   24CHL1    C8 1716   4.692   3.773   9.631  0.2923 -0.7400 -0.1259
   24CHL1    H8 1717   4.791   3.823   9.638  1.2898 -2.6891  0.1152
   24CHL1   C14 1718   4.670   3.719   9.486  1.0031  0.1121  0.0334
   24CHL1   H14 1719   4.565   3.685   9.484 -0.1089  3.1758  0.1859
   24CHL1   C15 1720   4.757   3.604   9.427 -0.5780 -0.1785  0.0405
   24CHL1  H15A 1721   4.862   3.617   9.462 -0.0900 -0.9114 -1.1019
   24CHL1  H15B 1722   4.727   3.499   9.446 -1.1452 -0.1788 -0.8195
   24CHL1   C16 1723   4.757   3.634   9.277 -0.5800  0.2228  0.5699
   24CHL1  H16A 1724   4.862   3.660   9.252 -0.4157 -0.5775  0.3815
   24CHL1  H16B 1725   4.725   3.553   9.207 -0.2804  0.3301  0.3065
   24CHL1   C17 1726   4.663   3.752   9.252 -0.0170 -0.2463  0.6680
   24CHL1   H17 1727   4.561   3.709   9.247  0.5922 -1.6605 -1.4509
   24CHL1   C13 1728   4.676   3.830   9.382  0.4395 -0.4954 -0.4191
   24CHL1   C18 1729   4.816   3.904   9.383  0.5232  0.0967  0.1039
   24CHL1  H18A 1730   4.804   3.987   9.456  0.7628  0.7245 -0.5485
   24CHL1  H18B 1731   4.902   3.837   9.405  0.1391 -1.0487 -1.6560
   24CHL1  H18C 1732   4.838   3.961   9.290 -1.1715  1.5054  0.5124
   24CHL1   C12 1733   4.551   3.919   9.418  0.5198  0.3339 -0.0685
   24CHL1  H12A 1734   4.545   4.009   9.353  1.8881  0.4782 -0.0215
   24CHL1  H12B 1735   4.456   3.863   9.400  1.9025 -2.4456  0.7278
   24CHL1   C11 1736   4.549   3.972   9.562 -0.3157 -0.0241  0.5719
   24CHL1  H11A 1737   4.621   4.057   9.564 -0.8526  0.4356  0.6521
   24CHL1  H11B 1738   4.450   4.016   9.586 -0.2106  0.7741 -0.3845
   24CHL1    C9 1739   4.581   3.872   9.673 -0.5999  0.3688  0.4223
   24CHL1    H9 1740   4.492   3.807   9.659 -1.8498  2.4483 -1.9531
   24CHL1   C10 1741   4.590   3.934   9.815 -0.0434 -0.7375 -0.1196
   24CHL1   C19 1742   4.703   4.054   9.816 -0.5207  0.1539 -0.0461
   24CHL1  H19A 1743   4.739   4.073   9.919  1.0413 -0.4369 -0.4512
   24CHL1  H19B 1744   4.793   4.008   9.771 -1.7502 -0.7961 -1.6564
   24CHL1  H19C 1745   4.669   4.141   9.756  0.2224  2.1509  2.2704
   24CHL1    C1 1746   4.449   3.974   9.869 -0.7985  0.2092 -0.5873
   24CHL1   H1A 1747   4.414   4.049   9.795 -0.3940  0.1974 -0.7908
   24CHL1   H1B 1748   4.388   3.881   9.866  0.7052 -0.7896 -1.1496
   24CHL1    C2 1749   4.449   4.033  10.011  0.2136  0.2048 -0.4326
   24CHL1   H2A 1750   4.348   4.062  10.045 -1.4093 -3.6432 -1.4877
   24CHL1   H2B 1751   4.510   4.126  10.007  1.1657 -0.3371  0.9821
   24CHL1   C20 1752   4.681   3.815   9.114  0.2667 -0.0163 -0.3441
   24CHL1   H20 1753   4.780   3.865   9.107  0.9543 -1.4310 -1.1172
   24CHL1   C21 1754   4.572   3.924   9.096  0.5571  0.4627  0.3304
   24CHL1  H21A 1755   4.582   3.971   8.996  1.6623 -0.3576  0.0443
   24CHL1  H21B 1756   4.594   4.011   9.161 -2.8239  1.7540 -0.0110
   24CHL1  H21C 1757   4.467   3.892   9.113  0.0888  2.2013  0.9531
   24CHL1   C22 1758   4.677   3.707   8.999  0.9883 -0.3739 -1.0739
   24CHL1  H22A 1759   4.760   3.636   9.016 -0.0023 -0.9612  1.8828
   24CHL1  H22B 1760   4.578   3.656   9.007  0.6300  0.5428  1.1819
   24CHL1   C23 1761   4.693   3.774   8.864  0.0583  0.0768 -0.3615
   24CHL1  H23A 1762   4.604   3.834   8.835  1.0656  2.0882  0.5153
   24CHL1  H23B 1763   4.779   3.844   8.855 -0.3713  0.5048 -1.2777
   24CHL1   C24 1764   4.719   3.663   8.761 -0.2323  0.0449  0.4445
   24CHL1  H24A 1765   4.813   3.611   8.793  0.2987  0.4852 -0.3637
   24CHL1  H24B 1766   4.638   3.590   8.783  0.4271 -1.1849 -1.0263
   24CHL1   C25 1767   4.740   3.696   8.609 -0.7006  0.0867 -0.5821
   24CHL1   H25 1768   4.817   3.777   8.608  0.0428 -0.6017 -0.3127
   24CHL1   C26 1769   4.788   3.573   8.537  0.0211 -0.2725 -0.3114
   24CHL1  H26A 1770   4.851   3.602   8.450  0.1860  0.5193  0.0598
   24CHL1  H26B 1771   4.856   3.519   8.606  0.3469  0.0941 -0.3441
   24CHL1  H26C 1772   4.708   3.503   8.506 -0.4053  1.3903 -3.2601
   24CHL1   C27 1773   4.613   3.755   8.551 -0.0324 -0.3005 -0.0977
   24CHL1  H27A 1774   4.630   3.782   8.445  1.1428 -0.2856  0.0841
   24CHL1  H27B 1775   4.526   3.688   8.567 -1.2756  1.4368  0.7557
   24CHL1  H27C 1776   4.596   3.853   8.602  0.5960  0.7022 -1.7394
   25CHL1    C3 1777   5.551   6.600  10.244 -0.5154 -0.5940 -0.1226
   25CHL1    H3 1778   5.480   6.525  10.204  0.5537 -1.4495 -0.4966
   25CHL1    O3 1779   5.559   6.599  10.387  0.6483  0.2939 -0.1024
   25CHL1   H3' 1780   5.592   6.688  10.400  1.7662  0.3874 -2.8285
   25CHL1    C4 1781   5.694   6.565  10.191 -0.0968  0.2512 -0.6187
   25CHL1   H4A 1782   5.753   6.647  10.238 -0.9155  0.2809  0.3699
   25CHL1   H4B 1783   5.729   6.470  10.238 -1.2516  0.3247  0.4426
   25CHL1    C5 1784   5.699   6.575  10.038  0.2915 -0.7217 -0.0725
   25CHL1    C6 1785   5.724   6.466   9.960  0.2848  0.0075 -0.4594
   25CHL1    H6 1786   5.750   6.370  10.008  0.0023 -0.8109 -1.8766
   25CHL1    C7 1787   5.717   6.457   9.812  0.5344  0.2370  0.5637
   25CHL1   H7A 1788   5.797   6.393   9.772  0.7841  0.3633  0.8548
   25CHL1   H7B 1789   5.618   6.413   9.786  0.8291  0.1512 -0.4489
   25CHL1    C8 1790   5.719   6.594   9.751 -0.0149 -0.2733  0.1635
   25CHL1    H8 1791   5.820   6.639   9.762 -0.0246 -0.5407  1.6183
   25CHL1   C14 1792   5.686   6.585   9.595 -0.7460 -0.6324 -0.2261
   25CHL1   H14 1793   5.586   6.537   9.589  0.6362 -3.8402  0.1146
   25CHL1   C15 1794   5.780   6.508   9.494  0.5518 -0.0312 -0.0427
   25CHL1  H15A 1795   5.889   6.514   9.515  0.5938  0.4436 -0.3685
   25CHL1  H15B 1796   5.745   6.403   9.490  0.6299 -0.2236  2.8933
   25CHL1   C16 1797   5.762   6.570   9.360  0.0581  0.3356 -0.0522
   25CHL1  H16A 1798   5.862   6.608   9.329  1.3253 -3.5541 -1.3158
   25CHL1  H16B 1799   5.725   6.507   9.277  0.2185  2.3134 -1.7216
   25CHL1   C17 1800   5.649   6.683   9.379 -0.5095 -0.2617  0.8017
   25CHL1   H17 1801   5.554   6.628   9.366  0.1668 -1.7700  1.8917
   25CHL1   C13 1802   5.668   6.720   9.527  0.2242 -1.1208 -0.7255
   25CHL1   C18 1803   5.790   6.819   9.529 -0.9889 -0.3419  0.5611
   25CHL1  H18A 1804   5.877   6.786   9.468  1.0515  1.9334  2.0559
   25CHL1  H18B 1805   5.762   6.921   9.498  0.3447 -0.2907 -0.5578
   25CHL1  H18C 1806   5.837   6.826   9.630  0.9697  1.7933 -0.4135
   25CHL1   C12 1807   5.547   6.790   9.597 -0.1265 -0.2481 -0.2596
   25CHL1  H12A 1808   5.518   6.887   9.550 -1.3155 -0.8195 -0.7187
   25CHL1  H12B 1809   5.464   6.717   9.591 -0.6285  0.2076  0.7726
   25CHL1   C11 1810   5.578   6.818   9.747  0.4078 -0.0471  0.5413
   25CHL1  H11A 1811   5.660   6.893   9.753 -0.2996  0.8168 -0.2039
   25CHL1  H11B 1812   5.485   6.856   9.795 -0.0181  0.8394 -0.9278
   25CHL1    C9 1813   5.616   6.686   9.822 -0.3565 -0.2030 -0.1585
   25CHL1    H9 1814   5.519   6.633   9.810 -0.9864  0.4850  1.5929
   25CHL1   C10 1815   5.639   6.704   9.971  0.5740 -0.4004  0.4034
   25CHL1   C19 1816   5.742   6.817   9.998  0.0976 -0.4974 -0.6844
   25CHL1  H19A 1817   5.821   6.799   9.923 -0.5765 -1.3932 -1.2072
   25CHL1  H19B 1818   5.697   6.915   9.969  0.4068 -0.2320 -0.2809
   25CHL1  H19C 1819   5.791   6.832  10.096  5.3025 -0.7483 -2.9379
   25CHL1    C1 1820   5.506   6.747  10.038  0.6090 -0.0864  0.2214
   25CHL1   H1A 1821   5.485   6.853  10.014  1.6179 -0.5407 -3.3562
   25CHL1   H1B 1822   5.415   6.699   9.995 -1.0877  2.3424  0.9362
   25CHL1    C2 1823   5.506   6.734  10.191  0.1163 -0.9143  0.1476
   25CHL1   H2A 1824   5.402   6.751  10.226 -0.4232 -0.5537 -1.5791
   25CHL1   H2B 1825   5.570   6.816  10.231 -1.1180 -0.3488  1.0092
   25CHL1   C20 1826   5.661   6.792   9.272  0.5429  0.3216 -0.0939
   25CHL1   H20 1827   5.765   6.831   9.279  0.0208  1.9868 -0.9064
   25CHL1   C21 1828   5.548   6.900   9.291 -0.1046  0.2283 -0.9732
   25CHL1  H21A 1829   5.532   6.964   9.201 -0.8028  0.3825 -0.7464
   25CHL1  H21B 1830   5.586   6.952   9.381  1.4989 -2.3294 -0.0831
   25CHL1  H21C 1831   5.455   6.844   9.315 -0.0190  0.6273  0.3401
   25CHL1   C22 1832   5.643   6.725   9.129 -0.5163  0.8167  0.0667
   25CHL1  H22A 1833   5.657   6.804   9.052  1.4819  1.3243  0.8803
   25CHL1  H22B 1834   5.736   6.667   9.111 -1.1992 -1.8302  3.7637
   25CHL1   C23 1835   5.516   6.640   9.111 -0.2627 -0.2349 -1.2712
   25CHL1  H23A 1836   5.525   6.551   9.177 -0.6677  0.3819 -0.3759
   25CHL1  H23B 1837   5.430   6.701   9.145 -0.5264  0.1049 -2.4874
   25CHL1   C24 1838   5.505   6.586   8.967  0.0081 -0.3727 -0.4541
   25CHL1  H24A 1839   5.525   6.662   8.888 -1.7794 -0.2629 -0.8536
   25CHL1  H24B 1840   5.589   6.514   8.966 -0.2850 -0.7331  0.2536
   25CHL1   C25 1841   5.387   6.499   8.927  0.4455  0.4571  0.0280
   25CHL1   H25 1842   5.363   6.425   9.006 -4.2194  2.1080  0.4862
   25CHL1   C26 1843   5.272   6.593   8.896  0.2139  0.2974  0.4081
   25CHL1  H26A 1844   5.302   6.652   8.807  0.6713 -1.3499 -0.5674
   25CHL1  H26B 1845   5.186   6.529   8.868  1.1109  0.1966 -2.3791
   25CHL1  H26C 1846   5.257   6.658   8.985 -0.7797  0.7463 -0.0772
   25CHL1   C27 1847   5.400   6.421   8.793  0.6557  0.0532 -0.0004
   25CHL1  H27A 1848   5.319   6.345   8.788  1.1455 -0.3766 -2.6459
   25CHL1  H27B 1849   5.396   6.479   8.698 -0.6769  1.3659  0.8073
   25CHL1  H27C 1850   5.490   6.357   8.801  0.0715 -0.5733  2.1337
   26CHL1    C3 1851   0.379   4.013  10.144 -0.4279  1.1940  0.9109
   26CHL1    H3 1852   0.463   4.078  10.111  1.0662 -2.4909 -3.7413
   26CHL1    O3 1853   0.361   4.012  10.286 -0.3320 -0.1269  0.5498
   26CHL1   H3' 1854   0.291   3.949  10.303 -0.4816 -0.0546  0.2098
   26CHL1    C4 1855   0.249   4.030  10.071 -1.4181  0.4722  0.3222
   26CHL1   H4A 1856   0.172   3.970  10.125 -2.3935  2.2455  0.9924
   26CHL1   H4B 1857   0.209   4.133  10.082 -0.5600  0.8624 -0.1702
   26CHL1    C5 1858   0.260   4.004   9.917  0.6426 -0.1744  0.2033
   26CHL1    C6 1859   0.234   4.098   9.831 -0.1246  0.6278  0.7138
   26CHL1    H6 1860   0.193   4.190   9.875 -0.0379  0.4036  1.2643
   26CHL1    C7 1861   0.247   4.096   9.686 -0.5143  0.3133 -0.2189
   26CHL1   H7A 1862   0.163   4.152   9.638 -2.3506 -0.6129  1.7447
   26CHL1   H7B 1863   0.338   4.156   9.666 -1.5141  1.6220 -1.0282
   26CHL1    C8 1864   0.253   3.948   9.638  0.2007 -0.2669  0.0344
   26CHL1    H8 1865   0.163   3.884   9.652  1.0438 -1.9700 -1.9246
   26CHL1   C14 1866   0.304   3.944   9.495  0.7444  0.5357  1.0393
   26CHL1   H14 1867   0.406   3.987   9.484  0.7569  0.2540 -0.0226
   26CHL1   C15 1868   0.236   4.029   9.390 -0.4115 -0.0762  0.0609
   26CHL1  H15A 1869   0.128   4.012   9.413 -0.4319  0.3909  0.3233
   26CHL1  H15B 1870   0.265   4.136   9.399  0.8800 -0.4633  0.6962
   26CHL1   C16 1871   0.285   3.973   9.253  0.4488 -0.0874  0.2081
   26CHL1  H16A 1872   0.195   3.952   9.191  0.6423  0.6769 -0.3596
   26CHL1  H16B 1873   0.352   4.051   9.212 -0.0131 -0.7126 -1.9022
   26CHL1   C17 1874   0.357   3.840   9.286  0.2576 -0.2553  0.0699
   26CHL1   H17 1875   0.463   3.870   9.302  0.1553 -0.2980  0.8494
   26CHL1   C13 1876   0.312   3.804   9.429  0.6280 -0.1557 -0.8806
   26CHL1   C18 1877   0.171   3.732   9.420  0.6125 -0.0745  0.6402
   26CHL1  H18A 1878   0.178   3.637   9.364  0.1205 -0.3867  1.1005
   26CHL1  H18B 1879   0.137   3.711   9.524 -0.7021 -0.0332  0.2290
   26CHL1  H18C 1880   0.101   3.804   9.374  1.4290 -0.2214 -0.8920
   26CHL1   C12 1881   0.410   3.724   9.507  0.1817 -0.0031 -0.1936
   26CHL1  H12A 1882   0.419   3.618   9.476  1.6363  0.0946 -0.1758
   26CHL1  H12B 1883   0.514   3.763   9.506  0.7429 -1.2741  2.2229
   26CHL1   C11 1884   0.364   3.728   9.656 -0.5484 -0.1653  0.3471
   26CHL1  H11A 1885   0.277   3.660   9.668 -0.7038  0.0414  0.3864
   26CHL1  H11B 1886   0.454   3.683   9.705  0.7629 -0.6159 -2.3106
   26CHL1    C9 1887   0.352   3.867   9.721  0.4574 -0.0450 -0.0994
   26CHL1    H9 1888   0.449   3.918   9.701  1.4520 -1.7149  0.2303
   26CHL1   C10 1889   0.335   3.874   9.874 -0.5982  0.5748  0.1147
   26CHL1   C19 1890   0.255   3.748   9.919 -1.1308 -0.3393 -0.2562
   26CHL1  H19A 1891   0.314   3.661   9.884 -0.5457 -0.8407  1.8209
   26CHL1  H19B 1892   0.235   3.736  10.028 -0.0451  0.6377  0.0782
   26CHL1  H19C 1893   0.159   3.750   9.864  0.2323 -1.6111 -2.8702
   26CHL1    C1 1894   0.467   3.872   9.957 -0.8300 -0.6529 -0.1266
   26CHL1   H1A 1895   0.514   3.777   9.925 -0.4536 -1.5238  2.7017
   26CHL1   H1B 1896   0.544   3.949   9.935 -0.3047  0.4527  4.4956
   26CHL1    C2 1897   0.439   3.874  10.109 -0.0441  0.5302 -0.4427
   26CHL1   H2A 1898   0.544   3.865  10.146  0.3289 -2.5398 -1.8925
   26CHL1   H2B 1899   0.376   3.792  10.149  0.4022 -0.4959 -1.7421
   26CHL1   C20 1900   0.357   3.738   9.162  0.0776 -0.8847 -0.6732
   26CHL1   H20 1901   0.254   3.718   9.126 -0.0294  1.1890 -1.6435
   26CHL1   C21 1902   0.437   3.619   9.202 -0.4191 -0.1351  0.3183
   26CHL1  H21A 1903   0.526   3.652   9.260  0.1368 -2.2669  0.7574
   26CHL1  H21B 1904   0.481   3.565   9.116 -1.3055  0.0202 -0.2449
   26CHL1  H21C 1905   0.379   3.543   9.258  0.4799 -0.4025  0.9104
   26CHL1   C22 1906   0.426   3.805   9.042  0.8597  0.5597  0.4604
   26CHL1  H22A 1907   0.404   3.914   9.035  0.4501  0.3846 -1.6024
   26CHL1  H22B 1908   0.535   3.796   9.060  0.7966 -0.1486  0.4838
   26CHL1   C23 1909   0.385   3.746   8.910  0.0822  0.3410  1.2039
   26CHL1  H23A 1910   0.398   3.635   8.914 -0.2567  0.2836  0.8277
   26CHL1  H23B 1911   0.275   3.758   8.905  0.2513  1.4846 -1.6520
   26CHL1   C24 1912   0.454   3.813   8.789 -0.1855 -0.1105 -0.4120
   26CHL1  H24A 1913   0.563   3.794   8.799 -0.8463 -4.0116  1.3580
   26CHL1  H24B 1914   0.427   3.780   8.687  1.3667 -0.6127 -0.6826
   26CHL1   C25 1915   0.457   3.970   8.783  0.0358  0.0996  0.8114
   26CHL1   H25 1916   0.489   4.003   8.884  1.3176 -0.9721  0.7766
   26CHL1   C26 1917   0.549   4.012   8.677 -0.5164  0.2152  0.3548
   26CHL1  H26A 1918   0.532   3.954   8.583  2.5397  1.1740 -0.9499
   26CHL1  H26B 1919   0.534   4.119   8.650 -1.9115 -0.5916 -2.4343
   26CHL1  H26C 1920   0.654   3.988   8.706  0.3806  0.9157 -2.0306
   26CHL1   C27 1921   0.323   4.043   8.776  0.3789 -0.7081  0.0305
   26CHL1  H27A 1922   0.251   3.988   8.841  2.2801 -1.8371  1.2765
   26CHL1  H27B 1923   0.334   4.146   8.817  1.6221 -0.7341 -0.2067
   26CHL1  H27C 1924   0.290   4.056   8.671  2.8821  1.8826 -0.5727
   27CHL1    C3 1925   5.734   0.279  10.309  1.0695  0.5701 -0.7784
   27CHL1    H3 1926   5.748   0.172  10.282  1.0502  0.4621 -0.3741
   27CHL1    O3 1927   5.738   0.295  10.449 -0.4924  0.6583  0.1392
   27CHL1   H3' 1928   5.722   0.386  10.472  1.8542  0.8200  1.4191
   27CHL1    C4 1929   5.846   0.360  10.248 -0.3332  0.1751  0.6838
   27CHL1   H4A 1930   5.824   0.463  10.281 -1.4371  0.3726 -0.5852
   27CHL1   H4B 1931   5.945   0.336  10.292 -0.5211  0.2761  1.1667
   27CHL1    C5 1932   5.847   0.349  10.094 -0.0614 -0.3625  0.0271
   27CHL1    C6 1933   5.951   0.299  10.028 -0.3783 -0.4358  0.0232
   27CHL1    H6 1934   6.049   0.279  10.075  0.4058 -0.1692 -1.4356
   27CHL1    C7 1935   5.960   0.306   9.878  0.7122 -0.1135  0.2694
   27CHL1   H7A 1936   6.065   0.323   9.845  0.9011 -0.6171  0.5932
   27CHL1   H7B 1937   5.941   0.203   9.839 -1.8112 -0.1136  1.3315
   27CHL1    C8 1938   5.854   0.406   9.811 -0.0131  0.3266 -0.0533
   27CHL1    H8 1939   5.891   0.507   9.837  0.7325  0.2274 -0.6895
   27CHL1   C14 1940   5.847   0.385   9.666  0.3640  0.1639  1.1230
   27CHL1   H14 1941   5.815   0.280   9.646 -1.9826  1.4576 -3.1252
   27CHL1   C15 1942   5.977   0.392   9.581  0.9283  0.2101  0.1442
   27CHL1  H15A 1943   6.055   0.444   9.641  0.2592 -0.4422  1.6477
   27CHL1  H15B 1944   6.007   0.288   9.557  1.3981 -0.4367  3.0955
   27CHL1   C16 1945   5.937   0.459   9.448 -0.2845 -0.8653  0.5771
   27CHL1  H16A 1946   5.977   0.561   9.464 -0.5603 -0.8704  1.3048
   27CHL1  H16B 1947   5.998   0.418   9.364 -1.5884  1.5008 -1.6745
   27CHL1   C17 1948   5.781   0.450   9.452 -0.5658 -0.0868 -0.0465
   27CHL1   H17 1949   5.768   0.341   9.437  1.0421 -0.5502  1.5364
   27CHL1   C13 1950   5.745   0.474   9.601  0.7470 -0.5090  0.1459
   27CHL1   C18 1951   5.775   0.621   9.636 -0.0961  0.1357  0.1441
   27CHL1  H18A 1952   5.751   0.650   9.741 -0.8088  0.4270 -0.0950
   27CHL1  H18B 1953   5.883   0.645   9.633  0.1665 -0.7174  1.4929
   27CHL1  H18C 1954   5.717   0.688   9.569 -1.8136  0.1283  1.5254
   27CHL1   C12 1955   5.603   0.443   9.647 -0.1037 -0.2921  0.2719
   27CHL1  H12A 1956   5.525   0.501   9.593  0.2079  1.2755  1.4455
   27CHL1  H12B 1957   5.584   0.337   9.620  0.5417 -0.4049  0.2601
   27CHL1   C11 1958   5.597   0.465   9.801 -0.1104  0.6314  0.0934
   27CHL1  H11A 1959   5.605   0.572   9.829  0.6156  0.2587  1.4090
   27CHL1  H11B 1960   5.497   0.433   9.837 -0.5728  1.1450 -0.7096
   27CHL1    C9 1961   5.712   0.385   9.872 -0.4084 -0.0156 -0.0182
   27CHL1    H9 1962   5.692   0.276   9.858  0.8429 -0.4670  1.4527
   27CHL1   C10 1963   5.722   0.402  10.029 -0.3746  0.9059  0.1079
   27CHL1   C19 1964   5.712   0.553  10.064  0.9088 -0.0380  0.0134
   27CHL1  H19A 1965   5.705   0.575  10.173  0.8485  1.1803 -0.2136
   27CHL1  H19B 1966   5.804   0.602  10.027  0.3345  0.2648 -1.0438
   27CHL1  H19C 1967   5.617   0.597  10.026  1.4399  1.3293  0.1868
   27CHL1    C1 1968   5.604   0.333  10.096 -0.3269  0.2823  0.2346
   27CHL1   H1A 1969   5.518   0.390  10.056  0.3259  1.0930 -0.0355
   27CHL1   H1B 1970   5.591   0.228  10.061  0.7726  0.6669 -1.4722
   27CHL1    C2 1971   5.603   0.329  10.253  1.0144  0.0904 -0.6491
   27CHL1   H2A 1972   5.522   0.258  10.283  1.1179 -0.2249 -1.1030
   27CHL1   H2B 1973   5.569   0.421  10.305 -3.0672 -1.7620  0.4161
   27CHL1   C20 1974   5.703   0.524   9.344 -0.2845 -0.1955 -0.0726
   27CHL1   H20 1975   5.689   0.626   9.386 -2.4301 -0.4912  0.0348
   27CHL1   C21 1976   5.563   0.458   9.307 -0.2405 -0.3498 -0.2968
   27CHL1  H21A 1977   5.575   0.398   9.214 -0.7723 -1.2297  0.1898
   27CHL1  H21B 1978   5.495   0.536   9.265  1.2263  1.0090 -0.2740
   27CHL1  H21C 1979   5.514   0.396   9.384 -1.4284  1.7970  0.7904
   27CHL1   C22 1980   5.780   0.542   9.210 -0.3625  0.1051 -0.2250
   27CHL1  H22A 1981   5.867   0.605   9.239 -1.7926  1.8919  0.3787
   27CHL1  H22B 1982   5.811   0.440   9.181 -1.9223 -0.5425  0.3067
   27CHL1   C23 1983   5.716   0.605   9.085  0.5897  0.4686  0.2206
   27CHL1  H23A 1984   5.634   0.547   9.039 -0.0761 -0.5197  2.5580
   27CHL1  H23B 1985   5.670   0.699   9.122 -0.9173 -0.2061  0.1319
   27CHL1   C24 1986   5.826   0.636   8.979 -0.4983  0.0703 -0.4822
   27CHL1  H24A 1987   5.878   0.728   9.014 -1.0417  0.8598 -1.7089
   27CHL1  H24B 1988   5.898   0.552   8.989 -0.8280 -0.1458  0.1414
   27CHL1   C25 1989   5.790   0.654   8.832  0.5560  0.1656  0.7532
   27CHL1   H25 1990   5.764   0.551   8.798  2.2583  0.1606 -0.7128
   27CHL1   C26 1991   5.666   0.742   8.819  0.5726  0.3660  0.3113
   27CHL1  H26A 1992   5.630   0.732   8.714  1.6122 -0.4973  0.0107
   27CHL1  H26B 1993   5.579   0.702   8.874  0.0138 -1.7248 -1.8856
   27CHL1  H26C 1994   5.680   0.848   8.846  1.3763 -0.1123  1.8691
   27CHL1   C27 1995   5.908   0.705   8.751 -0.0986  0.0822  0.5510
   27CHL1  H27A 1996   5.939   0.802   8.794 -0.7503  0.5683 -0.0546
   27CHL1  H27B 1997   5.992   0.633   8.765 -0.5506 -0.4866  0.3897
   27CHL1  H27C 1998   5.892   0.719   8.642  0.1926 -0.1193  0.4804
   28CHL1    C3 1999   0.220   4.647   9.946  0.5371  0.2106  1.0687
   28CHL1    H3 2000   0.329   4.629   9.931  0.0650 -1.7811 -0.5769
   28CHL1    O3 2001   0.184   4.669  10.080  0.0486 -0.2939  0.3726
   28CHL1   H3' 2002   0.224   4.593  10.124  0.2702  0.7465  2.0695
   28CHL1    C4 2003   0.163   4.766   9.866 -0.4678  0.7935  0.2339
   28CHL1   H4A 2004   0.057   4.760   9.896 -0.1548  0.2339  1.2705
   28CHL1   H4B 2005   0.206   4.864   9.895  1.2098  0.1278  0.1657
   28CHL1    C5 2006   0.178   4.734   9.722  0.3977  0.2684 -0.3497
   28CHL1    C6 2007   0.240   4.820   9.642  0.1235 -0.2237  0.5247
   28CHL1    H6 2008   0.275   4.916   9.682  0.6667 -0.0914 -0.2597
   28CHL1    C7 2009   0.237   4.803   9.490 -0.0224 -0.1216 -0.3264
   28CHL1   H7A 2010   0.216   4.902   9.445 -0.2580  0.6405  1.3987
   28CHL1   H7B 2011   0.331   4.759   9.452 -0.0055  0.8558 -1.4738
   28CHL1    C8 2012   0.141   4.691   9.436 -0.4295 -0.0526  0.0568
   28CHL1    H8 2013   0.040   4.734   9.450 -0.5946 -0.5075  0.2774
   28CHL1   C14 2014   0.175   4.665   9.285 -0.0604 -0.6091  0.3769
   28CHL1   H14 2015   0.275   4.616   9.279 -0.0990 -0.5571 -0.8942
   28CHL1   C15 2016   0.184   4.775   9.176 -0.2314 -0.3230 -0.1086
   28CHL1  H15A 2017   0.094   4.840   9.174  0.3473  0.7294  2.8289
   28CHL1  H15B 2018   0.275   4.839   9.183 -0.4434  0.3129 -2.3189
   28CHL1   C16 2019   0.168   4.691   9.048  0.0880  0.7612  0.5715
   28CHL1  H16A 2020   0.079   4.715   8.987  1.1446 -1.2735 -1.9671
   28CHL1  H16B 2021   0.256   4.711   8.984  1.2108 -1.3036  1.3596
   28CHL1   C17 2022   0.156   4.541   9.086  0.1445 -0.3993  0.4284
   28CHL1   H17 2023   0.264   4.517   9.096  0.7034  1.8834  0.4953
   28CHL1   C13 2024   0.099   4.552   9.225  0.5277  0.0727 -0.0639
   28CHL1   C18 2025  -0.055   4.591   9.223 -1.0833 -0.0139 -0.5246
   28CHL1  H18A 2026  -0.127   4.513   9.190 -1.5025 -0.0691  0.4886
   28CHL1  H18B 2027  -0.075   4.599   9.332  0.4826  0.4868 -0.2442
   28CHL1  H18C 2028  -0.078   4.687   9.172  0.8927  2.0421  2.1494
   28CHL1   C12 2029   0.123   4.431   9.317 -0.5552 -1.1244 -0.1679
   28CHL1  H12A 2030   0.082   4.334   9.282  1.7028 -1.2781 -2.7487
   28CHL1  H12B 2031   0.233   4.411   9.315 -0.2907  0.2484 -1.1934
   28CHL1   C11 2032   0.089   4.447   9.466 -0.7187  0.1332  0.4717
   28CHL1  H11A 2033  -0.021   4.440   9.478 -0.6864 -1.4339  0.0144
   28CHL1  H11B 2034   0.127   4.360   9.523  0.5724 -0.1417 -0.7642
   28CHL1    C9 2035   0.149   4.571   9.525 -0.4961 -0.2015  0.1192
   28CHL1    H9 2036   0.257   4.544   9.531 -0.6321 -0.5852  1.1114
   28CHL1   C10 2037   0.107   4.598   9.673  0.1080 -0.2460 -0.1488
   28CHL1   C19 2038  -0.041   4.605   9.680  0.3078  0.4709  0.0497
   28CHL1  H19A 2039  -0.101   4.527   9.627 -0.8565 -0.3830  2.4787
   28CHL1  H19B 2040  -0.077   4.612   9.785  1.8928  2.4827  0.5091
   28CHL1  H19C 2041  -0.061   4.705   9.637  0.3041 -0.0747 -1.2844
   28CHL1    C1 2042   0.165   4.485   9.760 -0.0585 -0.0749  0.6017
   28CHL1   H1A 2043   0.110   4.394   9.727 -0.0250 -0.8641  2.5355
   28CHL1   H1B 2044   0.273   4.478   9.736 -0.4314  1.0427 -1.6362
   28CHL1    C2 2045   0.143   4.515   9.906 -0.1649  0.3922  0.1899
   28CHL1   H2A 2046   0.195   4.442   9.970 -0.7801 -1.2101 -1.0575
   28CHL1   H2B 2047   0.039   4.511   9.946  0.4256 -1.1004  1.6585
   28CHL1   C20 2048   0.088   4.450   8.991 -0.4014 -0.6025 -0.0274
   28CHL1   H20 2049  -0.018   4.437   9.022 -0.6308  2.3025  0.6602
   28CHL1   C21 2050   0.161   4.313   9.002  0.0310  0.4220  0.2325
   28CHL1  H21A 2051   0.092   4.233   8.967 -1.5345  2.5317 -1.8148
   28CHL1  H21B 2052   0.200   4.275   9.099 -1.5336 -0.1042  0.6980
   28CHL1  H21C 2053   0.241   4.315   8.925  0.2823 -0.7485  0.4414
   28CHL1   C22 2054   0.069   4.499   8.840 -0.0096 -0.8952 -0.0751
   28CHL1  H22A 2055   0.022   4.599   8.833 -0.1935 -0.8378  1.6469
   28CHL1  H22B 2056   0.174   4.503   8.805  0.0656  0.3287  0.2750
   28CHL1   C23 2057  -0.013   4.406   8.750 -0.1896  0.5205  0.1302
   28CHL1  H23A 2058   0.029   4.305   8.768 -0.3275  0.3093 -0.7019
   28CHL1  H23B 2059  -0.119   4.402   8.781 -0.3350 -0.9004 -0.4667
   28CHL1   C24 2060   0.011   4.435   8.601 -0.8258  0.9250 -0.4168
   28CHL1  H24A 2061  -0.042   4.531   8.584 -0.4039  1.5519  1.5462
   28CHL1  H24B 2062   0.119   4.462   8.599 -0.7875  1.3101  2.5168
   28CHL1   C25 2063  -0.019   4.328   8.496  0.2978 -0.4006 -0.4848
   28CHL1   H25 2064   0.019   4.237   8.548 -0.0341  1.3999  3.2796
   28CHL1   C26 2065  -0.173   4.312   8.477 -0.1206  0.2011  0.9733
   28CHL1  H26A 2066  -0.221   4.405   8.440 -1.4132 -0.2993  1.3132
   28CHL1  H26B 2067  -0.201   4.222   8.418 -0.2054 -0.5403  2.1246
   28CHL1  H26C 2068  -0.219   4.292   8.576  0.2394  2.4360  1.6303
   28CHL1   C27 2069   0.056   4.338   8.363 -0.0747  0.2448 -0.9042
   28CHL1  H27A 2070   0.167   4.334   8.363 -0.0042  1.2585  0.7224
   28CHL1  H27B 2071   0.033   4.254   8.295 -0.2335  2.1282 -3.3140
   28CHL1  H27C 2072   0.029   4.432   8.310  1.5483  1.3956  0.1978
   29CHL1    C3 2073   4.530   3.613   6.480 -0.4069  0.5925 -0.2252
   29CHL1    H3 2074   4.438   3.551   6.479  0.2187 -0.3521 -0.2935
   29CHL1    O3 2075   4.597   3.605   6.355  0.5967 -0.4498 -0.3526
   29CHL1   H3' 2076   4.686   3.636   6.371 -0.2242  0.4150  3.4440
   29CHL1    C4 2077   4.488   3.762   6.512 -0.4899  0.1598  0.9442
   29CHL1   H4A 2078   4.582   3.822   6.512 -0.5009  0.1861  0.4549
   29CHL1   H4B 2079   4.432   3.790   6.420  1.8374 -0.4568 -0.7789
   29CHL1    C5 2080   4.431   3.776   6.651  0.2713 -0.4770  0.0997
   29CHL1    C6 2081   4.318   3.841   6.687 -0.0803  0.1315  0.1535
   29CHL1    H6 2082   4.269   3.902   6.610 -1.4883  0.2622  1.1029
   29CHL1    C7 2083   4.247   3.846   6.827  0.6642 -0.1378  0.4339
   29CHL1   H7A 2084   4.200   3.945   6.842  2.4886  0.9270 -0.4721
   29CHL1   H7B 2085   4.160   3.778   6.823 -2.2070  3.2807  0.2608
   29CHL1    C8 2086   4.346   3.806   6.937  0.4157 -0.0168  0.0710
   29CHL1    H8 2087   4.422   3.887   6.937  0.7250 -0.2764 -1.7242
   29CHL1   C14 2088   4.267   3.795   7.075 -0.4682 -0.6798  0.3883
   29CHL1   H14 2089   4.194   3.714   7.053 -0.7923  0.0260 -1.2811
   29CHL1   C15 2090   4.179   3.914   7.117  0.1739  0.3200 -0.3573
   29CHL1  H15A 2091   4.229   4.012   7.102  2.1862 -0.8177 -1.5278
   29CHL1  H15B 2092   4.084   3.921   7.061 -1.3345 -1.5193  1.7859
   29CHL1   C16 2093   4.155   3.881   7.262  1.2312  0.3495  0.3569
   29CHL1  H16A 2094   4.191   3.963   7.328  0.2092  0.0806  1.2733
   29CHL1  H16B 2095   4.047   3.861   7.274  1.4138  0.0984  1.7787
   29CHL1   C17 2096   4.243   3.755   7.301 -0.3348  0.8930 -0.8338
   29CHL1   H17 2097   4.181   3.665   7.280  0.2213  1.0055 -3.2234
   29CHL1   C13 2098   4.351   3.753   7.193 -0.5389 -0.4406  0.2273
   29CHL1   C18 2099   4.462   3.870   7.226  0.2475 -0.0030 -0.0567
   29CHL1  H18A 2100   4.541   3.881   7.148  1.7426  0.2890  1.4337
   29CHL1  H18B 2101   4.416   3.966   7.255 -0.3680 -0.7605  1.5732
   29CHL1  H18C 2102   4.515   3.836   7.318  0.3827 -1.1685 -0.5488
   29CHL1   C12 2103   4.422   3.617   7.151  0.1881  0.2958 -0.0212
   29CHL1  H12A 2104   4.490   3.587   7.233 -1.0698 -1.8242  0.3376
   29CHL1  H12B 2105   4.340   3.543   7.133 -0.3228  1.1334 -1.3461
   29CHL1   C11 2106   4.498   3.627   7.015 -0.5354 -0.7000 -0.3238
   29CHL1  H11A 2107   4.586   3.690   7.041 -0.1023  0.4390 -3.9647
   29CHL1  H11B 2108   4.549   3.531   6.991  1.0297 -0.2884  1.1009
   29CHL1    C9 2109   4.416   3.682   6.897  0.5885 -0.0269 -0.5674
   29CHL1    H9 2110   4.329   3.616   6.877  0.0386  0.9326 -1.3917
   29CHL1   C10 2111   4.507   3.694   6.762 -0.1747  0.2105  0.0296
   29CHL1   C19 2112   4.627   3.787   6.795 -0.1014 -0.3536 -0.5430
   29CHL1  H19A 2113   4.684   3.816   6.704 -0.0765 -2.4268 -1.2534
   29CHL1  H19B 2114   4.610   3.875   6.860 -1.7864 -1.1324  0.1307
   29CHL1  H19C 2115   4.699   3.729   6.857  2.1888  1.8393 -1.0088
   29CHL1    C1 2116   4.548   3.553   6.713  0.5915  0.2771 -0.4950
   29CHL1   H1A 2117   4.611   3.506   6.792 -0.4861 -0.5030 -0.0663
   29CHL1   H1B 2118   4.459   3.488   6.701  0.2057  0.7100 -0.0296
   29CHL1    C2 2119   4.626   3.550   6.580 -0.3552 -0.0760  0.5281
   29CHL1   H2A 2120   4.646   3.443   6.557  0.1781 -0.3387  2.0919
   29CHL1   H2B 2121   4.721   3.608   6.581  0.5869 -1.4518 -1.5441
   29CHL1   C20 2122   4.285   3.756   7.448  0.8040 -0.4528  1.1613
   29CHL1   H20 2123   4.347   3.846   7.468 -0.1547  0.4868  0.0588
   29CHL1   C21 2124   4.374   3.633   7.479 -0.3461  0.1733  0.4900
   29CHL1  H21A 2125   4.326   3.535   7.455 -1.3520  0.8658 -0.4209
   29CHL1  H21B 2126   4.404   3.628   7.586 -1.1589 -1.0166  0.6795
   29CHL1  H21C 2127   4.475   3.632   7.433  0.0638 -1.0733  1.3567
   29CHL1   C22 2128   4.170   3.766   7.552  0.3010  0.0600  0.3562
   29CHL1  H22A 2129   4.108   3.856   7.532  0.5165  0.1745  0.1964
   29CHL1  H22B 2130   4.104   3.678   7.542 -1.0711  1.0544  0.4585
   29CHL1   C23 2131   4.210   3.787   7.702  0.2676  0.5503  0.7005
   29CHL1  H23A 2132   4.252   3.690   7.736 -1.4796 -0.4260  0.1728
   29CHL1  H23B 2133   4.285   3.868   7.714  2.2739 -1.0960 -0.1327
   29CHL1   C24 2134   4.080   3.806   7.787 -0.7384 -0.4895 -0.0024
   29CHL1  H24A 2135   4.008   3.877   7.742  0.1596  0.5855  0.2093
   29CHL1  H24B 2136   4.024   3.711   7.796 -1.6072  0.0938  1.1344
   29CHL1   C25 2137   4.112   3.858   7.928 -0.0273  0.1622 -0.1371
   29CHL1   H25 2138   4.195   3.800   7.973  0.0733  2.2087  2.5672
   29CHL1   C26 2139   4.156   4.001   7.931  0.0684 -0.3289  1.2427
   29CHL1  H26A 2140   4.088   4.064   7.870  2.9695  1.0283 -0.8501
   29CHL1  H26B 2141   4.156   4.038   8.036 -0.5626 -0.1899  1.1928
   29CHL1  H26C 2142   4.260   4.002   7.891 -0.9625 -0.1473 -1.6215
   29CHL1   C27 2143   3.982   3.848   8.006  0.4114 -0.1566  0.2486
   29CHL1  H27A 2144   3.907   3.924   7.974  1.2143  0.8883  0.8145
   29CHL1  H27B 2145   3.925   3.753   7.994  1.0880 -0.6033  0.5591
   29CHL1  H27C 2146   4.009   3.860   8.113  2.7032  0.7247 -0.3719
   30CHL1    C3 2147   3.162   2.859   6.970  0.0439  0.3689 -0.3816
   30CHL1    H3 2148   3.210   2.760   6.955  3.7326  2.0993 -1.2273
   30CHL1    O3 2149   3.139   2.920   6.842 -0.1170 -0.1873  0.3669
   30CHL1   H3' 2150   3.044   2.929   6.834 -0.3304  0.1818  2.8274
   30CHL1    C4 2151   3.029   2.844   7.055  0.0738  0.5082 -0.2553
   30CHL1   H4A 2152   2.984   2.945   7.065 -1.5242 -0.1164 -0.8189
   30CHL1   H4B 2153   2.960   2.787   6.991  0.9097 -0.5055 -0.2753
   30CHL1    C5 2154   3.065   2.786   7.195  0.1473  0.6186 -0.7500
   30CHL1    C6 2155   3.005   2.673   7.242 -0.1732 -0.7647  0.6213
   30CHL1    H6 2156   2.934   2.616   7.181 -1.1186  1.1362 -0.1203
   30CHL1    C7 2157   3.029   2.620   7.377  0.0161 -0.1832 -0.2140
   30CHL1   H7A 2158   2.929   2.593   7.418 -0.1299  2.5685  1.5534
   30CHL1   H7B 2159   3.099   2.536   7.358  0.9562  0.5945 -0.2595
   30CHL1    C8 2160   3.082   2.727   7.481  0.3070  0.2066  0.3746
   30CHL1    H8 2161   3.000   2.796   7.511 -0.6087 -0.4799 -0.4630
   30CHL1   C14 2162   3.138   2.670   7.608  0.2847 -0.2875  0.2465
   30CHL1   H14 2163   3.225   2.609   7.577  0.6378  0.8920 -1.1665
   30CHL1   C15 2164   3.036   2.570   7.681 -0.0443  0.1460  0.2570
   30CHL1  H15A 2165   2.942   2.630   7.686 -0.3447 -0.4221  1.7689
   30CHL1  H15B 2166   3.027   2.474   7.626  1.0106 -1.2854  2.4540
   30CHL1   C16 2167   3.100   2.553   7.816 -0.0624  0.5182  0.1550
   30CHL1  H16A 2168   3.019   2.563   7.891  1.0885  1.4184  1.3240
   30CHL1  H16B 2169   3.116   2.444   7.804 -1.7699  0.2148  0.4210
   30CHL1   C17 2170   3.214   2.660   7.832  0.0557 -0.1215  0.1281
   30CHL1   H17 2171   3.309   2.612   7.802  0.1491 -0.3677  0.7915
   30CHL1   C13 2172   3.191   2.759   7.718 -0.0662 -1.0183  0.1023
   30CHL1   C18 2173   3.098   2.873   7.758  0.4612 -0.2071  0.2686
   30CHL1  H18A 2174   3.052   2.915   7.665  3.0456 -0.0546 -1.0277
   30CHL1  H18B 2175   3.006   2.840   7.811 -0.3893  1.8429  0.1585
   30CHL1  H18C 2176   3.150   2.955   7.810  0.7075 -1.9495  2.9736
   30CHL1   C12 2177   3.315   2.825   7.646  0.2684 -0.3631  0.0699
   30CHL1  H12A 2178   3.371   2.899   7.707 -0.8403  0.5037  0.0747
   30CHL1  H12B 2179   3.388   2.747   7.614  2.3230  0.6529  1.9504
   30CHL1   C11 2180   3.272   2.899   7.517  0.1638 -0.3598 -0.2307
   30CHL1  H11A 2181   3.206   2.983   7.547 -1.1277 -1.8262  1.2346
   30CHL1  H11B 2182   3.354   2.942   7.456  1.7561 -2.9351 -0.0907
   30CHL1    C9 2183   3.197   2.808   7.413  0.0171  0.6819 -0.4264
   30CHL1    H9 2184   3.276   2.733   7.387  1.3150  1.4544  1.1059
   30CHL1   C10 2185   3.160   2.877   7.278 -0.3944  0.1760  0.0197
   30CHL1   C19 2186   3.092   3.010   7.319 -0.1838  0.0326  0.3378
   30CHL1  H19A 2187   3.160   3.087   7.362  0.3968 -0.0542 -0.4091
   30CHL1  H19B 2188   3.039   3.054   7.232  0.2099  1.9751  1.0264
   30CHL1  H19C 2189   3.014   2.994   7.397 -1.1689  1.5970 -0.2767
   30CHL1    C1 2190   3.288   2.893   7.184 -0.5688 -0.0569  0.6525
   30CHL1   H1A 2191   3.352   2.961   7.244 -2.0393  3.4410 -1.4450
   30CHL1   H1B 2192   3.346   2.799   7.187  0.2701  0.4794  1.5116
   30CHL1    C2 2193   3.265   2.950   7.044  0.0059 -0.2981 -0.4624
   30CHL1   H2A 2194   3.362   2.939   6.991 -0.5620 -0.8162 -1.4306
   30CHL1   H2B 2195   3.225   3.053   7.041  0.8694  0.0498 -0.4217
   30CHL1   C20 2196   3.217   2.716   7.983  0.0815 -0.3121 -0.1408
   30CHL1   H20 2197   3.120   2.768   8.000  0.4395  0.3812 -0.2080
   30CHL1   C21 2198   3.335   2.808   8.004 -0.2594  0.6099  0.6954
   30CHL1  H21A 2199   3.326   2.885   7.925 -0.5825 -1.3140 -1.2389
   30CHL1  H21B 2200   3.426   2.746   7.989 -0.9268 -1.1910  3.3172
   30CHL1  H21C 2201   3.340   2.845   8.109 -0.2732 -0.7034  1.1780
   30CHL1   C22 2202   3.215   2.593   8.081  0.0023  0.1901 -0.3072
   30CHL1  H22A 2203   3.131   2.524   8.059  0.2883 -0.0109 -0.7767
   30CHL1  H22B 2204   3.300   2.523   8.076 -1.9781 -2.4625  0.8181
   30CHL1   C23 2205   3.201   2.625   8.227  0.3468  0.0364 -0.4460
   30CHL1  H23A 2206   3.279   2.696   8.261 -2.2959  2.6727  0.5844
   30CHL1  H23B 2207   3.106   2.682   8.236  1.0730  1.5460 -1.8570
   30CHL1   C24 2208   3.192   2.504   8.320 -0.2689  0.5500 -0.8158
   30CHL1  H24A 2209   3.114   2.431   8.288 -1.2154  2.1760 -2.3976
   30CHL1  H24B 2210   3.287   2.447   8.311 -0.0181  0.5216  1.4607
   30CHL1   C25 2211   3.177   2.531   8.470 -0.6429 -0.1716  0.0458
   30CHL1   H25 2212   3.089   2.598   8.483 -0.3709  0.6362 -1.9531
   30CHL1   C26 2213   3.140   2.405   8.545  1.1067 -0.5252 -0.7531
   30CHL1  H26A 2214   3.043   2.373   8.501 -0.5826 -1.4886  3.2097
   30CHL1  H26B 2215   3.205   2.315   8.550 -2.6266 -3.5021 -1.1663
   30CHL1  H26C 2216   3.119   2.428   8.652  1.6013  2.1846 -1.1551
   30CHL1   C27 2217   3.303   2.591   8.524  0.7798 -0.0537  0.3234
   30CHL1  H27A 2218   3.390   2.527   8.497 -0.4546 -1.5368 -0.2680
   30CHL1  H27B 2219   3.309   2.695   8.484 -0.8658  0.2060  0.6857
   30CHL1  H27C 2220   3.297   2.600   8.634  1.7517  0.6463  0.3331
   31CHL1    C3 2221   3.267   4.085   6.646 -0.1346  0.8775 -0.0330
   31CHL1    H3 2222   3.317   3.998   6.693 -0.2332  0.2441 -1.0512
   31CHL1    O3 2223   3.258   4.059   6.506  0.2081 -0.3702  0.7057
   31CHL1   H3' 2224   3.244   4.150   6.479 -1.8965 -0.9310 -0.2419
   31CHL1    C4 2225   3.125   4.104   6.707 -0.7390  0.6646  0.1009
   31CHL1   H4A 2226   3.065   4.169   6.640  0.4820 -0.0712 -1.7677
   31CHL1   H4B 2227   3.075   4.007   6.686  1.9505 -0.9170  0.4367
   31CHL1    C5 2228   3.129   4.158   6.850 -1.0088  0.6094  0.7029
   31CHL1    C6 2229   3.062   4.086   6.940 -0.0256 -0.6993 -0.7573
   31CHL1    H6 2230   2.994   4.008   6.903 -0.2152 -1.1529  0.4819
   31CHL1    C7 2231   3.040   4.131   7.082  0.3731 -0.2279 -0.4507
   31CHL1   H7A 2232   2.931   4.152   7.090 -0.3007 -2.6149 -2.2029
   31CHL1   H7B 2233   3.077   4.047   7.144  1.8435  2.2060  2.2541
   31CHL1    C8 2234   3.111   4.266   7.115 -0.6536  0.1369 -0.0292
   31CHL1    H8 2235   3.044   4.350   7.089 -0.7555 -0.0262 -0.2925
   31CHL1   C14 2236   3.152   4.263   7.263  0.1690  0.4802 -0.6947
   31CHL1   H14 2237   3.218   4.175   7.274 -2.5213 -1.6580 -0.5261
   31CHL1   C15 2238   3.041   4.246   7.373 -0.0324  0.2474  0.0819
   31CHL1  H15A 2239   2.947   4.301   7.351  0.3649  1.5446  1.5322
   31CHL1  H15B 2240   3.008   4.140   7.374 -0.8261  0.4868  1.8934
   31CHL1   C16 2241   3.106   4.308   7.500  0.2612  0.0022  0.4312
   31CHL1  H16A 2242   3.035   4.388   7.532 -0.0933  0.0760 -0.5192
   31CHL1  H16B 2243   3.117   4.235   7.583 -2.1091  1.8137  2.5340
   31CHL1   C17 2244   3.247   4.364   7.460  0.2167  0.0933 -0.7430
   31CHL1   H17 2245   3.321   4.282   7.467  1.2016  0.8116 -2.2785
   31CHL1   C13 2246   3.238   4.386   7.312  0.0390  0.5682  0.1800
   31CHL1   C18 2247   3.172   4.515   7.285 -0.5176  0.4940 -0.0301
   31CHL1  H18A 2248   3.142   4.527   7.179  3.5235 -0.2007 -1.4412
   31CHL1  H18B 2249   3.087   4.538   7.353 -1.3266 -1.0164 -0.4911
   31CHL1  H18C 2250   3.245   4.595   7.309  0.3551 -0.9393  2.5490
   31CHL1   C12 2251   3.367   4.374   7.235  0.1257 -0.5225  0.3924
   31CHL1  H12A 2252   3.427   4.457   7.277 -1.7253 -0.1218  2.3832
   31CHL1  H12B 2253   3.426   4.284   7.261 -0.2395 -1.1853 -0.9493
   31CHL1   C11 2254   3.347   4.388   7.088 -0.0758 -0.1005  0.6237
   31CHL1  H11A 2255   3.310   4.490   7.064 -0.0104  0.1252  1.4545
   31CHL1  H11B 2256   3.446   4.375   7.040 -0.3315  0.6669 -0.1285
   31CHL1    C9 2257   3.252   4.273   7.036 -0.0693  0.1482  0.8014
   31CHL1    H9 2258   3.299   4.175   7.061 -1.0182 -1.4054 -2.8416
   31CHL1   C10 2259   3.226   4.274   6.880 -0.6763  0.9729 -0.1903
   31CHL1   C19 2260   3.158   4.407   6.832 -0.7271 -0.0629 -0.4604
   31CHL1  H19A 2261   3.240   4.481   6.846 -1.0824  0.2639 -0.0703
   31CHL1  H19B 2262   3.139   4.414   6.723 -2.0937  0.3540 -0.2218
   31CHL1  H19C 2263   3.073   4.442   6.895 -0.4193  1.1532 -0.7005
   31CHL1    C1 2264   3.362   4.256   6.805  0.7589  0.7047 -0.1134
   31CHL1   H1A 2265   3.413   4.354   6.803  1.6007  0.2777 -2.4466
   31CHL1   H1B 2266   3.426   4.187   6.864 -2.1404  0.0755  2.6429
   31CHL1    C2 2267   3.350   4.212   6.661 -0.2571 -0.4508  0.2874
   31CHL1   H2A 2268   3.448   4.205   6.610 -0.5424  1.4592 -0.5991
   31CHL1   H2B 2269   3.301   4.290   6.598  2.6670  0.1004 -1.4894
   31CHL1   C20 2270   3.309   4.462   7.554 -0.1224 -0.8376 -0.3570
   31CHL1   H20 2271   3.292   4.567   7.523  2.5490 -0.0829  0.4736
   31CHL1   C21 2272   3.462   4.436   7.568  0.4082  0.2605 -0.2614
   31CHL1  H21A 2273   3.518   4.419   7.474 -0.4510 -4.0666 -0.2114
   31CHL1  H21B 2274   3.469   4.340   7.623 -0.7157  0.2474 -0.1284
   31CHL1  H21C 2275   3.504   4.515   7.634 -1.8367  3.1430 -2.0740
   31CHL1   C22 2276   3.240   4.460   7.693 -1.2998 -0.3197  0.3488
   31CHL1  H22A 2277   3.132   4.482   7.686 -1.4036 -1.0851 -0.7481
   31CHL1  H22B 2278   3.242   4.355   7.728 -0.5507 -0.5941 -0.4719
   31CHL1   C23 2279   3.293   4.558   7.798  0.0042 -0.0801 -0.3083
   31CHL1  H23A 2280   3.393   4.518   7.825  0.3838  0.6427 -0.6228
   31CHL1  H23B 2281   3.319   4.649   7.741  2.0333 -0.6156 -0.3219
   31CHL1   C24 2282   3.201   4.578   7.915 -0.2647 -0.0137 -0.9096
   31CHL1  H24A 2283   3.227   4.672   7.969 -0.2215  0.4065 -1.6432
   31CHL1  H24B 2284   3.096   4.587   7.878 -0.5667  0.2225 -0.0214
   31CHL1   C25 2285   3.200   4.470   8.024  0.3042 -0.3218 -0.1910
   31CHL1   H25 2286   3.140   4.388   7.978  2.0101 -1.0322 -1.2220
   31CHL1   C26 2287   3.336   4.415   8.063  0.5277  0.2127 -0.2582
   31CHL1  H26A 2288   3.327   4.347   8.151  3.2401  1.6301  1.2545
   31CHL1  H26B 2289   3.384   4.351   7.986 -0.9460 -2.9451  1.2725
   31CHL1  H26C 2290   3.399   4.499   8.101 -1.2746  1.2775  0.5121
   31CHL1   C27 2291   3.120   4.516   8.147 -0.3377 -0.2513 -0.8666
   31CHL1  H27A 2292   3.171   4.574   8.226 -2.2388 -0.2055  0.4024
   31CHL1  H27B 2293   3.092   4.421   8.198  1.0331  0.7426  1.9151
   31CHL1  H27C 2294   3.033   4.570   8.103  1.2033  0.7266 -2.8574
   32CHL1    C3 2295   4.277   1.663   6.878  0.1507  0.3543  0.3267
   32CHL1    H3 2296   4.204   1.579   6.877 -0.6443  0.9738 -2.8941
   32CHL1    O3 2297   4.286   1.714   6.742 -0.3880  0.4096 -0.1903
   32CHL1   H3' 2298   4.344   1.791   6.735 -1.6788  1.3789 -0.6547
   32CHL1    C4 2299   4.236   1.778   6.976  0.5672 -0.1924 -0.1578
   32CHL1   H4A 2300   4.296   1.868   6.953 -1.8883  1.6591  0.2204
   32CHL1   H4B 2301   4.130   1.799   6.949  0.8921  0.0709 -1.2705
   32CHL1    C5 2302   4.242   1.741   7.120 -0.2247 -0.5325  0.0615
   32CHL1    C6 2303   4.138   1.736   7.208  0.0599  0.0336 -0.5242
   32CHL1    H6 2304   4.035   1.757   7.176 -0.2324 -0.2959  0.1912
   32CHL1    C7 2305   4.145   1.707   7.358 -0.4369 -0.3405 -0.0590
   32CHL1   H7A 2306   4.079   1.778   7.413 -0.2127  0.8153 -1.2391
   32CHL1   H7B 2307   4.117   1.601   7.375  1.1540 -1.0657 -1.5882
   32CHL1    C8 2308   4.293   1.717   7.402  0.1841  0.7045 -0.8218
   32CHL1    H8 2309   4.321   1.824   7.390  0.5154  0.4774 -2.1701
   32CHL1   C14 2310   4.298   1.661   7.552  0.5062 -0.1053 -0.1940
   32CHL1   H14 2311   4.243   1.564   7.558 -4.2070  2.2926 -0.3531
   32CHL1   C15 2312   4.223   1.751   7.665 -0.4912 -0.0230 -0.2033
   32CHL1  H15A 2313   4.247   1.859   7.659  0.3860 -0.0494  1.8959
   32CHL1  H15B 2314   4.113   1.734   7.665 -0.5312  0.1888 -1.2577
   32CHL1   C16 2315   4.283   1.692   7.795 -0.6295 -0.5735  0.2452
   32CHL1  H16A 2316   4.325   1.778   7.852 -0.6574  0.8988 -1.8430
   32CHL1  H16B 2317   4.215   1.640   7.866  1.0176 -0.2170  2.1713
   32CHL1   C17 2318   4.399   1.606   7.757  0.4533 -0.2076 -0.6127
   32CHL1   H17 2319   4.358   1.503   7.753  2.3255 -1.0326  0.3269
   32CHL1   C13 2320   4.435   1.646   7.608  0.0407  1.1046 -0.7575
   32CHL1   C18 2321   4.509   1.790   7.611 -0.1967 -0.8001 -0.1790
   32CHL1  H18A 2322   4.615   1.770   7.637 -0.0706  0.7407  0.5537
   32CHL1  H18B 2323   4.504   1.824   7.505  0.5154 -0.6649 -0.1698
   32CHL1  H18C 2324   4.465   1.862   7.683  1.9302 -0.5560  0.9477
   32CHL1   C12 2325   4.518   1.552   7.516 -0.5118 -0.0333 -0.3646
   32CHL1  H12A 2326   4.615   1.534   7.567 -1.3740 -1.5208  0.8606
   32CHL1  H12B 2327   4.475   1.450   7.504  0.2911 -0.6208  1.3849
   32CHL1   C11 2328   4.526   1.592   7.370 -0.0468 -0.6562  0.8873
   32CHL1  H11A 2329   4.587   1.685   7.366  0.2545 -0.8627 -2.7108
   32CHL1  H11B 2330   4.580   1.507   7.322 -1.1212 -1.3189  0.8321
   32CHL1    C9 2331   4.379   1.630   7.311  0.7624 -0.0789 -0.2660
   32CHL1    H9 2332   4.327   1.533   7.305 -0.1273  0.3873 -0.1732
   32CHL1   C10 2333   4.384   1.687   7.161 -0.0766  0.3782  0.3693
   32CHL1   C19 2334   4.488   1.814   7.164  0.3458  0.1298  0.1684
   32CHL1  H19A 2335   4.590   1.769   7.156 -0.8903 -3.3242  1.8036
   32CHL1  H19B 2336   4.470   1.895   7.092 -2.3856  0.6863  1.3648
   32CHL1  H19C 2337   4.486   1.871   7.259  1.6954  1.4633 -0.5564
   32CHL1    C1 2338   4.426   1.573   7.065  0.1291  0.0192  0.0765
   32CHL1   H1A 2339   4.530   1.535   7.080  0.0934 -1.2777 -2.3403
   32CHL1   H1B 2340   4.357   1.487   7.082 -0.5600  0.3832 -0.8178
   32CHL1    C2 2341   4.416   1.612   6.913  0.0786 -0.7151  0.4053
   32CHL1   H2A 2342   4.454   1.525   6.856  1.7443 -0.4108  0.9993
   32CHL1   H2B 2343   4.498   1.681   6.884  0.3495 -1.6062 -1.0496
   32CHL1   C20 2344   4.501   1.597   7.869  0.7175  0.7264  0.3250
   32CHL1   H20 2345   4.536   1.702   7.885  1.8098  0.4266  0.0003
   32CHL1   C21 2346   4.628   1.521   7.828 -0.6678 -0.0341 -0.0410
   32CHL1  H21A 2347   4.700   1.579   7.767  1.4289 -2.9440 -0.5430
   32CHL1  H21B 2348   4.596   1.429   7.774  1.6382 -1.7704  1.3463
   32CHL1  H21C 2349   4.689   1.490   7.916  1.2550  0.5660 -1.1129
   32CHL1   C22 2350   4.446   1.537   8.006 -0.1429  0.5949  0.6652
   32CHL1  H22A 2351   4.340   1.569   8.016 -0.1866  1.5493 -2.0215
   32CHL1  H22B 2352   4.446   1.427   7.988 -0.0261  1.0057 -2.4493
   32CHL1   C23 2353   4.526   1.574   8.130  0.1171 -0.0784 -0.0382
   32CHL1  H23A 2354   4.627   1.529   8.129  0.0983 -0.8367  5.1429
   32CHL1  H23B 2355   4.529   1.685   8.131 -2.4426  0.0454  0.1963
   32CHL1   C24 2356   4.440   1.526   8.243  0.3011  0.0422  0.3511
   32CHL1  H24A 2357   4.345   1.583   8.234  1.4120  1.7178 -1.7847
   32CHL1  H24B 2358   4.429   1.417   8.223  0.9418  0.2219 -1.1429
   32CHL1   C25 2359   4.489   1.562   8.390 -0.2671 -0.1172 -0.1172
   32CHL1   H25 2360   4.580   1.502   8.410 -0.8363 -0.9568  0.0290
   32CHL1   C26 2361   4.513   1.709   8.407  0.2469  0.1305 -0.3145
   32CHL1  H26A 2362   4.423   1.764   8.372 -0.3716 -0.5941  0.1136
   32CHL1  H26B 2363   4.525   1.727   8.516 -2.9030 -1.7557  0.4750
   32CHL1  H26C 2364   4.605   1.738   8.351 -0.3809 -1.4525 -2.2685
   32CHL1   C27 2365   4.378   1.524   8.486 -0.0851  0.5318  0.3975
   32CHL1  H27A 2366   4.346   1.417   8.483  1.8029 -0.0587 -2.2759
   32CHL1  H27B 2367   4.405   1.545   8.592  0.6601 -0.2260  0.3661
   32CHL1  H27C 2368   4.284   1.581   8.470  0.0872  0.3684 -1.3656
   33CHL1    C3 2369   5.078   2.714   6.742 -0.1779 -0.3198  0.0977
   33CHL1    H3 2370   5.049   2.819   6.764  0.4281  0.0587 -0.8374
   33CHL1    O3 2371   5.118   2.699   6.606  0.6908 -0.5572  0.1945
   33CHL1   H3' 2372   5.117   2.604   6.595 -2.3602 -0.5737 -0.2198
   33CHL1    C4 2373   5.207   2.673   6.823 -0.0292  0.6483  0.4429
   33CHL1   H4A 2374   5.244   2.578   6.779 -0.1524  0.6676  0.2976
   33CHL1   H4B 2375   5.288   2.747   6.803 -0.4509  1.0971  0.3865
   33CHL1    C5 2376   5.175   2.658   6.972 -0.0540  0.0828 -0.1855
   33CHL1    C6 2377   5.227   2.743   7.058  0.6187  0.8887 -0.3377
   33CHL1    H6 2378   5.305   2.816   7.031 -0.1563  1.3506 -1.4152
   33CHL1    C7 2379   5.202   2.748   7.206  0.1795  0.5930 -0.0794
   33CHL1   H7A 2380   5.295   2.760   7.264  1.1325 -1.2246 -1.1496
   33CHL1   H7B 2381   5.142   2.837   7.235  1.5523  1.2995  0.6584
   33CHL1    C8 2382   5.120   2.628   7.258  0.2463  0.2538  0.4632
   33CHL1    H8 2383   5.189   2.542   7.270  1.6701  1.5376  2.1629
   33CHL1   C14 2384   5.060   2.659   7.392 -0.4826 -0.5595 -0.0429
   33CHL1   H14 2385   4.997   2.746   7.364  1.0717 -0.0038 -2.0143
   33CHL1   C15 2386   5.150   2.723   7.498 -0.0473 -0.2959 -0.5492
   33CHL1  H15A 2387   5.245   2.666   7.487  0.1750 -0.1156  0.3472
   33CHL1  H15B 2388   5.170   2.830   7.477 -2.4376  0.3069 -0.0971
   33CHL1   C16 2389   5.076   2.689   7.626  0.6454 -0.0568 -0.0334
   33CHL1  H16A 2390   5.128   2.609   7.682  0.0665  0.7421  1.7326
   33CHL1  H16B 2391   5.059   2.770   7.701  0.6994  1.6640 -1.7844
   33CHL1   C17 2392   4.934   2.615   7.590 -0.3281 -0.0378  0.0123
   33CHL1   H17 2393   4.859   2.696   7.575 -0.3088 -0.1301 -0.6192
   33CHL1   C13 2394   4.966   2.552   7.451 -1.2917  0.5930 -0.5254
   33CHL1   C18 2395   5.055   2.431   7.465  0.0005 -0.1954 -0.7398
   33CHL1  H18A 2396   5.145   2.436   7.530  0.1003 -2.0433 -0.6826
   33CHL1  H18B 2397   5.007   2.348   7.521  1.9888 -1.3896 -0.7116
   33CHL1  H18C 2398   5.094   2.386   7.372 -1.1816 -0.9820 -0.8841
   33CHL1   C12 2399   4.852   2.524   7.351 -0.2200 -0.8176 -0.7113
   33CHL1  H12A 2400   4.798   2.435   7.390  0.8843 -1.3321 -0.3114
   33CHL1  H12B 2401   4.784   2.611   7.336 -0.3268 -0.2013  2.4795
   33CHL1   C11 2402   4.905   2.495   7.210 -0.2333  0.4735 -0.4707
   33CHL1  H11A 2403   4.954   2.396   7.210 -1.7734 -0.4515  3.0858
   33CHL1  H11B 2404   4.817   2.487   7.142 -0.6196  1.8547 -0.1816
   33CHL1    C9 2405   5.007   2.597   7.155 -0.2778 -0.0541  0.0891
   33CHL1    H9 2406   4.952   2.693   7.153 -0.6651 -0.2803 -0.2283
   33CHL1   C10 2407   5.053   2.577   7.012  0.3998 -0.6404  0.8580
   33CHL1   C19 2408   5.089   2.429   6.994  0.0876  0.5862  0.0241
   33CHL1  H19A 2409   5.146   2.375   7.073  1.3827 -0.6725 -1.6987
   33CHL1  H19B 2410   4.990   2.378   6.983 -0.2145  1.2908 -0.5457
   33CHL1  H19C 2411   5.146   2.413   6.900  1.2828  1.7828  0.5183
   33CHL1    C1 2412   4.937   2.612   6.914  0.1796  0.0606  0.7557
   33CHL1   H1A 2413   4.855   2.538   6.926 -0.2657  0.3221 -0.5301
   33CHL1   H1B 2414   4.894   2.713   6.933  0.2814 -0.1319  2.0808
   33CHL1    C2 2415   4.965   2.613   6.764  0.6603 -0.0090  0.2727
   33CHL1   H2A 2416   4.870   2.642   6.714  1.1910 -0.1665 -0.8575
   33CHL1   H2B 2417   4.990   2.514   6.720  1.5271  0.8034 -1.1559
   33CHL1   C20 2418   4.892   2.521   7.707  0.6056  0.9327  0.0877
   33CHL1   H20 2419   4.969   2.441   7.720  0.6265  0.8353 -0.6083
   33CHL1   C21 2420   4.756   2.448   7.688 -1.1066  0.0946 -0.6274
   33CHL1  H21A 2421   4.759   2.401   7.587 -2.8724 -0.3602 -0.4986
   33CHL1  H21B 2422   4.671   2.520   7.684  0.6537  2.3080 -0.2747
   33CHL1  H21C 2423   4.742   2.363   7.758  3.8688 -2.0034 -1.7526
   33CHL1   C22 2424   4.885   2.592   7.843 -0.3779  0.0578  0.0713
   33CHL1  H22A 2425   4.972   2.657   7.864  0.2580  0.0352 -2.1974
   33CHL1  H22B 2426   4.803   2.665   7.827 -0.7600 -0.6257 -1.2553
   33CHL1   C23 2427   4.865   2.511   7.972 -0.3717  0.1338 -0.5029
   33CHL1  H23A 2428   4.768   2.457   7.965 -1.7702  2.5623 -1.1516
   33CHL1  H23B 2429   4.945   2.436   7.987  2.0456  2.8274  1.0497
   33CHL1   C24 2430   4.880   2.597   8.099  0.6138 -0.3098 -0.6532
   33CHL1  H24A 2431   4.899   2.537   8.190  2.0705  1.1395  0.0585
   33CHL1  H24B 2432   4.967   2.663   8.079  0.9093 -0.4083  0.2704
   33CHL1   C25 2433   4.765   2.704   8.126  0.2335  0.9669 -0.3386
   33CHL1   H25 2434   4.729   2.741   8.027 -0.6839 -0.3638 -0.5327
   33CHL1   C26 2435   4.632   2.648   8.183 -0.0119  1.1309  0.3939
   33CHL1  H26A 2436   4.592   2.567   8.119  0.3320  0.8732  0.5042
   33CHL1  H26B 2437   4.648   2.617   8.288  0.8985  0.4097  0.0517
   33CHL1  H26C 2438   4.560   2.732   8.188  0.3998  1.4214  1.9526
   33CHL1   C27 2439   4.818   2.816   8.209 -0.7617 -0.1943 -0.5046
   33CHL1  H27A 2440   4.852   2.779   8.308 -0.3149  0.9923 -0.1998
   33CHL1  H27B 2441   4.911   2.852   8.161 -0.2178 -1.4482 -0.4289
   33CHL1  H27C 2442   4.747   2.900   8.224 -0.9820 -0.5643  0.6301
   34CHL1    C3 2443   5.058   0.736   6.924 -0.6647  0.4540  0.3281
   34CHL1    H3 2444   5.009   0.646   6.967 -1.1262  1.3360  1.7559
   34CHL1    O3 2445   5.062   0.738   6.783  0.3418 -0.1298  0.2014
   34CHL1   H3' 2446   5.155   0.746   6.758 -0.1344  0.1192 -1.6725
   34CHL1    C4 2447   4.978   0.859   6.971 -0.5597  0.3866 -0.0363
   34CHL1   H4A 2448   5.031   0.947   6.929  0.9224  0.9847  2.8365
   34CHL1   H4B 2449   4.874   0.849   6.934 -0.2500  2.8576 -1.7820
   34CHL1    C5 2450   4.975   0.852   7.123 -0.7840  0.1585 -0.1216
   34CHL1    C6 2451   4.863   0.852   7.190  0.7275 -0.0998  0.7169
   34CHL1    H6 2452   4.778   0.851   7.121  1.1083  0.4360  0.2356
   34CHL1    C7 2453   4.852   0.873   7.340  0.6010  0.9941 -0.4581
   34CHL1   H7A 2454   4.779   0.953   7.364  0.9502  1.0534  0.4302
   34CHL1   H7B 2455   4.799   0.787   7.386  0.2086 -0.0892 -2.7620
   34CHL1    C8 2456   4.987   0.905   7.413 -0.1841  0.6376 -0.0517
   34CHL1    H8 2457   5.002   1.015   7.409 -1.0115  0.8243  1.4834
   34CHL1   C14 2458   4.979   0.867   7.567  0.2244 -0.1753  0.5126
   34CHL1   H14 2459   4.956   0.758   7.573  2.5011 -0.6364  5.2874
   34CHL1   C15 2460   4.872   0.933   7.653  0.0111  0.1948 -0.5241
   34CHL1  H15A 2461   4.867   1.039   7.621 -0.3196  0.4298  0.2910
   34CHL1  H15B 2462   4.771   0.886   7.652  1.5622 -3.4983  0.0152
   34CHL1   C16 2463   4.929   0.923   7.796 -0.0765 -0.5977 -0.0916
   34CHL1  H16A 2464   4.960   1.022   7.834  1.4585 -1.3375  0.6517
   34CHL1  H16B 2465   4.857   0.880   7.870 -2.3673  0.9341 -1.3010
   34CHL1   C17 2466   5.064   0.848   7.792 -0.4493  0.6440 -0.7014
   34CHL1   H17 2467   5.056   0.739   7.811 -1.1608  1.0669  1.6167
   34CHL1   C13 2468   5.110   0.878   7.646  0.3306 -0.1172 -1.0327
   34CHL1   C18 2469   5.159   1.025   7.634 -0.9634 -0.4970 -0.1063
   34CHL1  H18A 2470   5.163   1.054   7.526  0.3850 -1.2983 -0.2879
   34CHL1  H18B 2471   5.086   1.101   7.671 -0.3143 -0.8734  2.0461
   34CHL1  H18C 2472   5.253   1.046   7.688 -1.5586 -0.2335  0.8504
   34CHL1   C12 2473   5.213   0.778   7.583  0.2480  0.1728  0.1698
   34CHL1  H12A 2474   5.309   0.778   7.639 -0.4403 -0.5319  1.3701
   34CHL1  H12B 2475   5.172   0.678   7.607  1.5142 -0.3306  0.2936
   34CHL1   C11 2476   5.233   0.805   7.437 -0.7187  0.0521  0.1698
   34CHL1  H11A 2477   5.300   0.893   7.421 -1.4365  0.4928 -0.5210
   34CHL1  H11B 2478   5.285   0.719   7.389 -0.9029  1.9406 -3.8668
   34CHL1    C9 2479   5.098   0.814   7.350  0.2450 -0.0070  0.4023
   34CHL1    H9 2480   5.058   0.710   7.348 -2.5772  0.9748  0.3615
   34CHL1   C10 2481   5.116   0.843   7.196 -0.5714 -0.1302  0.0185
   34CHL1   C19 2482   5.201   0.974   7.185  0.3006 -0.9951 -0.4286
   34CHL1  H19A 2483   5.206   1.007   7.079 -0.6112 -1.2653 -0.5692
   34CHL1  H19B 2484   5.151   1.056   7.242 -2.6792 -1.2413 -2.4430
   34CHL1  H19C 2485   5.305   0.967   7.223  0.4125  0.8475 -0.2755
   34CHL1    C1 2486   5.198   0.730   7.132 -0.0872  0.9007  0.5989
   34CHL1   H1A 2487   5.306   0.739   7.156  0.9828  1.7846 -3.7353
   34CHL1   H1B 2488   5.148   0.632   7.151  0.2622  0.2616 -1.4399
   34CHL1    C2 2489   5.205   0.742   6.975  0.1217 -0.1106  0.3560
   34CHL1   H2A 2490   5.255   0.651   6.935  0.7009  0.8496 -1.1778
   34CHL1   H2B 2491   5.256   0.829   6.928  0.1811  0.6984  1.8543
   34CHL1   C20 2492   5.158   0.895   7.897  0.1130  0.2000 -0.3601
   34CHL1   H20 2493   5.192   1.001   7.888 -1.8554  1.0247  1.2545
   34CHL1   C21 2494   5.286   0.811   7.895 -0.6709  0.0089  0.0351
   34CHL1  H21A 2495   5.267   0.702   7.879 -0.9244 -0.0447  0.6568
   34CHL1  H21B 2496   5.334   0.817   7.995  1.2790 -1.2798 -0.7618
   34CHL1  H21C 2497   5.362   0.844   7.821 -1.4654  2.1302  0.0957
   34CHL1   C22 2498   5.096   0.899   8.038  0.9173  0.5833 -0.7017
   34CHL1  H22A 2499   5.182   0.932   8.100  1.0645 -0.6409 -0.2405
   34CHL1  H22B 2500   5.011   0.971   8.043 -0.2689 -0.8201 -0.1900
   34CHL1   C23 2501   5.046   0.757   8.074 -0.0928  0.8804 -0.5134
   34CHL1  H23A 2502   4.964   0.726   8.005  1.2231 -0.8422 -1.3826
   34CHL1  H23B 2503   5.128   0.683   8.062 -2.3070 -1.8763  0.0349
   34CHL1   C24 2504   5.009   0.753   8.223 -0.1976  0.3909 -0.0738
   34CHL1  H24A 2505   5.002   0.648   8.260  0.8542  0.5021  0.4957
   34CHL1  H24B 2506   5.089   0.795   8.288 -3.3138  1.8281  3.1692
   34CHL1   C25 2507   4.879   0.829   8.264 -0.1266  0.7222  0.3347
   34CHL1   H25 2508   4.894   0.931   8.222 -2.5234  1.0740  0.1872
   34CHL1   C26 2509   4.750   0.764   8.207  0.0582  0.0633 -0.5142
   34CHL1  H26A 2510   4.744   0.770   8.096  2.5559 -1.1495 -0.7813
   34CHL1  H26B 2511   4.735   0.660   8.241 -0.7769  0.8180  1.5902
   34CHL1  H26C 2512   4.664   0.825   8.244 -1.3379 -2.1688  0.0918
   34CHL1   C27 2513   4.864   0.844   8.414  0.2560 -0.3363 -0.5223
   34CHL1  H27A 2514   4.937   0.920   8.452  0.8206 -0.5179 -1.2196
   34CHL1  H27B 2515   4.769   0.892   8.445  0.7480  0.1362  0.3283
   34CHL1  H27C 2516   4.889   0.754   8.474  0.7092  1.1631  1.6911
   35CHL1    C3 2517   2.183   2.818   7.219  0.5925 -0.0934 -0.0761
   35CHL1    H3 2518   2.288   2.784   7.228  0.8068  0.6806  0.3996
   35CHL1    O3 2519   2.148   2.848   7.087  0.2135 -0.2932  0.5271
   35CHL1   H3' 2520   2.229   2.873   7.042 -1.4787 -0.8961 -3.1764
   35CHL1    C4 2521   2.091   2.698   7.264  0.0812 -0.3568 -0.4344
   35CHL1   H4A 2522   1.988   2.738   7.254 -0.5533 -1.7106  0.4545
   35CHL1   H4B 2523   2.106   2.613   7.194 -3.1118  0.7049 -2.6626
   35CHL1    C5 2524   2.103   2.652   7.410 -0.6104  0.1638 -0.3953
   35CHL1    C6 2525   2.132   2.520   7.443 -0.3327  0.4723 -0.2153
   35CHL1    H6 2526   2.144   2.438   7.371 -1.3511 -0.3293  0.4901
   35CHL1    C7 2527   2.166   2.477   7.584  0.2298  0.3290 -0.3689
   35CHL1   H7A 2528   2.122   2.376   7.600  1.5125 -0.1319  0.3302
   35CHL1   H7B 2529   2.276   2.485   7.599  0.0513 -0.0938  1.4337
   35CHL1    C8 2530   2.106   2.578   7.683 -0.2666  0.1487  0.4421
   35CHL1    H8 2531   1.995   2.568   7.686 -0.4130  1.3159 -0.4790
   35CHL1   C14 2532   2.155   2.543   7.825 -0.0589  0.2671  0.5097
   35CHL1   H14 2533   2.264   2.566   7.819  0.1344 -0.8428 -0.7665
   35CHL1   C15 2534   2.162   2.398   7.872  0.7658 -0.1769 -0.7507
   35CHL1  H15A 2535   2.071   2.336   7.855  0.9846 -0.9642  0.8210
   35CHL1  H15B 2536   2.248   2.349   7.820  0.5325 -2.3572  0.8045
   35CHL1   C16 2537   2.171   2.413   8.031 -0.5322  0.4010  0.7452
   35CHL1  H16A 2538   2.081   2.367   8.077 -1.1489  2.4186  1.6444
   35CHL1  H16B 2539   2.268   2.368   8.063 -0.0098  1.2911  0.4560
   35CHL1   C17 2540   2.165   2.569   8.061 -0.4313 -0.2283  0.1819
   35CHL1   H17 2541   2.271   2.601   8.048 -0.5493 -0.6443 -2.2642
   35CHL1   C13 2542   2.095   2.632   7.940 -0.0281 -0.3045  0.1535
   35CHL1   C18 2543   1.945   2.598   7.954 -0.0764  0.3254  0.5205
   35CHL1  H18A 2544   1.896   2.659   8.033 -3.1388 -2.3588  0.9378
   35CHL1  H18B 2545   1.893   2.622   7.858 -0.1460  0.9202  0.7019
   35CHL1  H18C 2546   1.938   2.489   7.975 -0.6743  0.5082  1.2926
   35CHL1   C12 2547   2.128   2.776   7.910 -0.4849  0.7776 -0.4058
   35CHL1  H12A 2548   2.079   2.853   7.972  0.5696  1.4725 -0.4163
   35CHL1  H12B 2549   2.236   2.797   7.920 -0.1448 -0.5174 -1.0838
   35CHL1   C11 2550   2.076   2.819   7.771 -0.7256  0.1736  0.8585
   35CHL1  H11A 2551   1.966   2.806   7.773 -0.4902 -2.3884  0.9451
   35CHL1  H11B 2552   2.116   2.920   7.748 -2.1368  1.0841  2.2342
   35CHL1    C9 2553   2.138   2.730   7.655  0.1463  0.4876 -0.7876
   35CHL1    H9 2554   2.248   2.738   7.669  0.5269 -1.6744 -1.9597
   35CHL1   C10 2555   2.097   2.769   7.513 -0.1941 -0.0786  0.0417
   35CHL1   C19 2556   1.947   2.806   7.506 -0.0982  0.1668 -0.4629
   35CHL1  H19A 2557   1.924   2.846   7.405  0.9881 -0.7851 -1.1162
   35CHL1  H19B 2558   1.881   2.718   7.519 -3.4873  2.4506 -1.0051
   35CHL1  H19C 2559   1.913   2.881   7.581 -2.3112  0.0482 -1.2703
   35CHL1    C1 2560   2.178   2.884   7.465 -0.3754 -0.5045  0.3216
   35CHL1   H1A 2561   2.157   2.968   7.534 -1.5887 -0.0471 -0.5699
   35CHL1   H1B 2562   2.280   2.841   7.465  0.2426  0.9234  0.8178
   35CHL1    C2 2563   2.158   2.934   7.319  0.0993 -0.3973  0.0008
   35CHL1   H2A 2564   2.241   3.007   7.307  0.1784 -0.5113 -0.1551
   35CHL1   H2B 2565   2.060   2.986   7.316 -0.9947 -2.0973  2.4286
   35CHL1   C20 2566   2.116   2.594   8.204 -0.2276  0.4733  0.1481
   35CHL1   H20 2567   2.014   2.552   8.219 -0.9848  2.5371  1.1243
   35CHL1   C21 2568   2.074   2.741   8.237 -0.1350 -0.1491  0.6630
   35CHL1  H21A 2569   2.003   2.748   8.322 -1.2061  1.1183 -0.2937
   35CHL1  H21B 2570   2.020   2.794   8.156  1.7739  1.3870  0.3078
   35CHL1  H21C 2571   2.166   2.797   8.266 -0.7246  1.6047 -0.7144
   35CHL1   C22 2572   2.219   2.542   8.301 -0.1557  0.1504  0.4017
   35CHL1  H22A 2573   2.239   2.435   8.279 -1.5296 -0.0205 -0.1019
   35CHL1  H22B 2574   2.311   2.602   8.285 -1.5735  2.4054  0.2220
   35CHL1   C23 2575   2.177   2.550   8.452  0.2742  0.1534  0.6596
   35CHL1  H23A 2576   2.146   2.653   8.482  0.6809  0.5551 -0.2706
   35CHL1  H23B 2577   2.092   2.480   8.466  1.9235 -1.9054  0.8258
   35CHL1   C24 2578   2.282   2.485   8.550 -0.0154 -0.9745  0.2653
   35CHL1  H24A 2579   2.273   2.375   8.543  0.3745 -0.8772 -3.1795
   35CHL1  H24B 2580   2.381   2.514   8.508 -0.8978  0.3999 -0.9648
   35CHL1   C25 2581   2.281   2.538   8.694 -0.6623 -0.0890  0.0120
   35CHL1   H25 2582   2.175   2.548   8.725 -0.7969  1.7499 -0.8861
   35CHL1   C26 2583   2.362   2.452   8.789  0.1861  0.1817  0.4551
   35CHL1  H26A 2584   2.314   2.352   8.797 -0.5909  0.4613 -0.5251
   35CHL1  H26B 2585   2.462   2.448   8.741  0.2360 -0.8003  0.6241
   35CHL1  H26C 2586   2.372   2.500   8.889  1.5042  1.0660 -0.0692
   35CHL1   C27 2587   2.326   2.687   8.705 -0.6187  0.2229 -0.0890
   35CHL1  H27A 2588   2.424   2.694   8.651 -1.6211 -2.6563 -2.6292
   35CHL1  H27B 2589   2.343   2.722   8.809  1.1594  0.0990 -0.2908
   35CHL1  H27C 2590   2.252   2.749   8.650 -0.0500  1.2653  0.3077
   36CHL1    C3 2591   2.146   0.198   6.833 -0.4628 -0.3901  0.3893
   36CHL1    H3 2592   2.209   0.108   6.815  0.1150  0.6209 -3.8198
   36CHL1    O3 2593   2.099   0.224   6.705  0.2436 -0.0008  0.9619
   36CHL1   H3' 2594   2.041   0.300   6.714  0.9793  0.5217  1.3904
   36CHL1    C4 2595   2.031   0.173   6.931  0.3136  0.1223 -0.2435
   36CHL1   H4A 2596   1.956   0.254   6.925 -0.8242 -0.9790 -1.5982
   36CHL1   H4B 2597   1.967   0.085   6.907  0.5188 -0.6194  1.7073
   36CHL1    C5 2598   2.084   0.162   7.077 -0.2969  0.1129  0.1896
   36CHL1    C6 2599   2.041   0.058   7.153  0.0285  0.6541 -0.6671
   36CHL1    H6 2600   1.971  -0.017   7.114  0.8518 -2.0269  2.5186
   36CHL1    C7 2601   2.072   0.044   7.293  0.2148  1.0339 -0.2789
   36CHL1   H7A 2602   1.980   0.015   7.347  1.5224 -2.1154  0.4701
   36CHL1   H7B 2603   2.130  -0.047   7.318 -0.2837  0.3362 -1.5696
   36CHL1    C8 2604   2.132   0.171   7.354  0.2895 -0.6549  0.2988
   36CHL1    H8 2605   2.051   0.245   7.370  0.6187 -0.6449  2.0793
   36CHL1   C14 2606   2.197   0.137   7.490  0.5438  0.1480  0.6598
   36CHL1   H14 2607   2.276   0.060   7.477  0.8238  0.4025  0.8307
   36CHL1   C15 2608   2.093   0.076   7.588  1.0903  0.1533  0.0634
   36CHL1  H15A 2609   1.994   0.126   7.576  1.6430  1.5235  0.9520
   36CHL1  H15B 2610   2.074  -0.034   7.589  0.6901  0.2204  1.3181
   36CHL1   C16 2611   2.164   0.103   7.722  0.3328  0.5717  0.5293
   36CHL1  H16A 2612   2.085   0.162   7.774 -1.1743 -0.4047 -0.5817
   36CHL1  H16B 2613   2.177   0.008   7.778 -0.2914 -0.2997 -0.7517
   36CHL1   C17 2614   2.301   0.181   7.699 -0.0137 -0.4263 -0.0806
   36CHL1   H17 2615   2.386   0.112   7.683  0.6456  0.5011 -0.6971
   36CHL1   C13 2616   2.269   0.248   7.557 -0.0213  0.7274  0.4212
   36CHL1   C18 2617   2.184   0.371   7.597  0.5528 -0.2734  0.5114
   36CHL1  H18A 2618   2.121   0.407   7.513 -0.0873  1.1312  1.5478
   36CHL1  H18B 2619   2.113   0.347   7.679 -0.5250  2.2995  0.4037
   36CHL1  H18C 2620   2.253   0.453   7.625  0.4794  0.4825 -1.3873
   36CHL1   C12 2621   2.383   0.290   7.466  0.0345  0.1674 -0.4641
   36CHL1  H12A 2622   2.428   0.378   7.516 -0.5336  0.1219  0.1241
   36CHL1  H12B 2623   2.460   0.209   7.462 -1.3626 -1.2595  0.3221
   36CHL1   C11 2624   2.341   0.332   7.327  0.4527 -0.1908 -0.5404
   36CHL1  H11A 2625   2.294   0.433   7.336 -0.2022 -0.6730  2.3870
   36CHL1  H11B 2626   2.431   0.352   7.265 -0.4676  1.7210 -1.3502
   36CHL1    C9 2627   2.236   0.233   7.257  0.3157 -0.8144 -0.5765
   36CHL1    H9 2628   2.301   0.145   7.235  1.5081 -0.8515  2.5399
   36CHL1   C10 2629   2.172   0.275   7.116 -0.7244 -0.3713 -0.5435
   36CHL1   C19 2630   2.077   0.396   7.142  0.0119 -0.6397 -0.0326
   36CHL1  H19A 2631   2.023   0.431   7.052 -1.3010  1.6983  1.5384
   36CHL1  H19B 2632   2.000   0.382   7.221  0.1765 -2.0943 -0.0998
   36CHL1  H19C 2633   2.137   0.485   7.169 -0.2546  0.2989 -2.3757
   36CHL1    C1 2634   2.284   0.303   7.007  0.0332  0.0936  0.1015
   36CHL1   H1A 2635   2.345   0.392   7.033  0.2845  0.4232 -1.5071
   36CHL1   H1B 2636   2.345   0.211   7.005 -1.3161 -0.8239 -0.0601
   36CHL1    C2 2637   2.232   0.320   6.867  0.7012 -0.4488  0.0367
   36CHL1   H2A 2638   2.308   0.342   6.789 -0.6310  0.0455 -1.1736
   36CHL1   H2B 2639   2.164   0.408   6.869 -2.3504 -2.6301 -0.7786
   36CHL1   C20 2640   2.333   0.266   7.814  0.0379 -0.3898  0.0492
   36CHL1   H20 2641   2.263   0.342   7.854 -0.6056 -0.8781 -0.1270
   36CHL1   C21 2642   2.466   0.337   7.796 -0.0983  0.2810 -0.1382
   36CHL1  H21A 2643   2.481   0.410   7.878 -2.6011  0.3624  0.3292
   36CHL1  H21B 2644   2.451   0.403   7.708  3.3842  3.8297  1.6426
   36CHL1  H21C 2645   2.551   0.266   7.782  1.7192  2.4025 -0.3118
   36CHL1   C22 2646   2.343   0.177   7.943 -0.5945  0.2064 -0.2111
   36CHL1  H22A 2647   2.245   0.130   7.969  0.5433 -1.2084  1.8057
   36CHL1  H22B 2648   2.422   0.101   7.926 -1.2999 -0.4989 -0.4203
   36CHL1   C23 2649   2.388   0.256   8.074 -0.6502  0.7668  0.1065
   36CHL1  H23A 2650   2.489   0.297   8.055  0.6368 -1.5085  1.5221
   36CHL1  H23B 2651   2.320   0.342   8.091 -0.1284  0.8533  1.8677
   36CHL1   C24 2652   2.397   0.171   8.200  0.2986 -0.3583 -0.2731
   36CHL1  H24A 2653   2.296   0.130   8.220 -1.0491  1.9129 -1.9488
   36CHL1  H24B 2654   2.458   0.080   8.180 -0.9579 -1.6415  1.4511
   36CHL1   C25 2655   2.447   0.246   8.323 -0.2795  0.0309 -0.2727
   36CHL1   H25 2656   2.556   0.265   8.317 -0.1473 -0.2619  0.9781
   36CHL1   C26 2657   2.377   0.369   8.362  0.5907 -0.0604  0.5175
   36CHL1  H26A 2658   2.408   0.409   8.461  0.8597  2.0383 -0.3567
   36CHL1  H26B 2659   2.383   0.450   8.286  0.4423 -0.4181  0.1164
   36CHL1  H26C 2660   2.272   0.336   8.375  0.1414  1.4892  1.0296
   36CHL1   C27 2661   2.435   0.142   8.438  0.4564 -0.0279 -0.0470
   36CHL1  H27A 2662   2.334   0.111   8.472  1.0144 -2.9514 -0.7602
   36CHL1  H27B 2663   2.478   0.051   8.390 -0.0007  0.7240 -1.9885
   36CHL1  H27C 2664   2.476   0.173   8.537  1.0137 -0.2360 -0.2079
   37CHL1    C3 2665   5.426   4.053   6.829  0.6212 -0.9546  0.6189
   37CHL1    H3 2666   5.408   3.948   6.861  0.0497 -0.1203  3.3192
   37CHL1    O3 2667   5.447   4.051   6.687  0.6309  0.2038 -0.1759
   37CHL1   H3' 2668   5.398   4.123   6.646  2.3887  0.9159 -1.0970
   37CHL1    C4 2669   5.299   4.135   6.865 -0.3716 -0.1655 -0.2395
   37CHL1   H4A 2670   5.290   4.238   6.822  1.0042  0.4426  0.8506
   37CHL1   H4B 2671   5.214   4.073   6.829 -0.4024  0.3802 -1.1497
   37CHL1    C5 2672   5.286   4.145   7.017  0.3169 -0.4959  0.4275
   37CHL1    C6 2673   5.163   4.134   7.078 -0.1675 -0.0148 -0.7516
   37CHL1    H6 2674   5.073   4.117   7.018 -2.5112  3.6808  1.4037
   37CHL1    C7 2675   5.144   4.138   7.227  0.7358 -0.6733 -0.7073
   37CHL1   H7A 2676   5.050   4.193   7.248  0.3085 -0.9444 -1.8399
   37CHL1   H7B 2677   5.118   4.037   7.267 -1.8112 -0.0300 -0.5829
   37CHL1    C8 2678   5.266   4.205   7.304  0.5521  0.5367 -0.6575
   37CHL1    H8 2679   5.265   4.312   7.275  0.1602  0.9840  0.8740
   37CHL1   C14 2680   5.252   4.198   7.459  0.1693 -0.0595 -0.1083
   37CHL1   H14 2681   5.244   4.092   7.493  0.9494  0.1731  0.8283
   37CHL1   C15 2682   5.121   4.250   7.516  0.6615 -0.1971 -0.0022
   37CHL1  H15A 2683   5.109   4.353   7.474 -0.5041 -0.4088 -0.2081
   37CHL1  H15B 2684   5.030   4.191   7.491  2.0510 -2.8172  0.7633
   37CHL1   C16 2685   5.154   4.271   7.665  0.2661 -1.2610  0.3846
   37CHL1  H16A 2686   5.131   4.375   7.695  2.3530  0.6963 -3.9093
   37CHL1  H16B 2687   5.099   4.201   7.732  0.9907 -1.0907  1.1614
   37CHL1   C17 2688   5.311   4.241   7.676  0.3518 -0.3160  0.5385
   37CHL1   H17 2689   5.307   4.134   7.702 -1.3304  0.2520  2.9076
   37CHL1   C13 2690   5.369   4.255   7.530 -0.0059  0.1777 -0.0017
   37CHL1   C18 2691   5.380   4.410   7.505 -0.0494  0.6739 -0.2136
   37CHL1  H18A 2692   5.457   4.455   7.570  1.0755 -0.8102 -0.4496
   37CHL1  H18B 2693   5.397   4.439   7.399 -2.3490  2.5270 -0.1612
   37CHL1  H18C 2694   5.285   4.458   7.536 -0.9132 -0.1906 -1.4016
   37CHL1   C12 2695   5.503   4.186   7.486  0.4809 -0.4882  0.5302
   37CHL1  H12A 2696   5.590   4.230   7.540 -0.3838  0.2819  1.3282
   37CHL1  H12B 2697   5.511   4.079   7.512  0.3526 -1.1040 -1.7320
   37CHL1   C11 2698   5.525   4.204   7.337 -0.5217  0.3064 -0.8442
   37CHL1  H11A 2699   5.537   4.314   7.328 -0.4210  0.6639  2.4198
   37CHL1  H11B 2700   5.620   4.153   7.310  1.1746  2.5926  0.3357
   37CHL1    C9 2701   5.407   4.147   7.251  0.2125 -0.4682 -0.3717
   37CHL1    H9 2702   5.391   4.037   7.262  1.1018 -0.6326 -0.6340
   37CHL1   C10 2703   5.424   4.173   7.099 -0.3788 -0.4135  0.1774
   37CHL1   C19 2704   5.462   4.325   7.068 -0.0355  0.6731  0.0218
   37CHL1  H19A 2705   5.465   4.348   6.960 -3.6974  1.4300 -0.0299
   37CHL1  H19B 2706   5.376   4.383   7.108 -3.0921 -4.2227  1.4470
   37CHL1  H19C 2707   5.554   4.364   7.116 -0.2969  3.2894 -1.4403
   37CHL1    C1 2708   5.536   4.082   7.057 -0.8453 -0.3292  0.8010
   37CHL1   H1A 2709   5.637   4.086   7.104 -0.4307 -2.6509  0.2331
   37CHL1   H1B 2710   5.502   3.978   7.076 -0.6172  0.1347  4.5249
   37CHL1    C2 2711   5.555   4.089   6.903  1.1797 -0.1704  0.6006
   37CHL1   H2A 2712   5.640   4.023   6.877  0.8611 -0.7013  0.9069
   37CHL1   H2B 2713   5.593   4.190   6.875  1.3952 -0.6325 -0.8355
   37CHL1   C20 2714   5.382   4.303   7.796  0.5121  0.4165 -0.1603
   37CHL1   H20 2715   5.373   4.414   7.794  4.0241  0.8769  2.0191
   37CHL1   C21 2716   5.527   4.254   7.802 -0.1645  0.0002  0.9719
   37CHL1  H21A 2717   5.530   4.145   7.779  0.7719  0.5211 -1.8336
   37CHL1  H21B 2718   5.578   4.283   7.896  1.1265 -0.0505  0.3159
   37CHL1  H21C 2719   5.585   4.304   7.722  0.2427 -0.9282  0.6668
   37CHL1   C22 2720   5.315   4.259   7.928 -0.2308  0.1952 -0.0818
   37CHL1  H22A 2721   5.205   4.273   7.921 -0.3361 -1.0801 -1.3655
   37CHL1  H22B 2722   5.340   4.154   7.955 -0.2653  0.5011  1.1745
   37CHL1   C23 2723   5.349   4.335   8.059  0.3269  0.5623 -0.6282
   37CHL1  H23A 2724   5.458   4.325   8.075  0.1062 -1.7683 -0.2519
   37CHL1  H23B 2725   5.330   4.443   8.042 -2.3360  0.1672 -0.5941
   37CHL1   C24 2726   5.276   4.275   8.177  0.4243 -0.4442 -0.8151
   37CHL1  H24A 2727   5.166   4.287   8.166  0.4261  2.3254  1.0455
   37CHL1  H24B 2728   5.295   4.166   8.179  1.3456 -0.2933 -0.9770
   37CHL1   C25 2729   5.327   4.327   8.317  0.3895 -0.3413  0.8054
   37CHL1   H25 2730   5.438   4.318   8.316  0.5742  1.4504 -0.7299
   37CHL1   C26 2731   5.295   4.476   8.328 -0.4832 -0.4612  0.2574
   37CHL1  H26A 2732   5.335   4.512   8.425 -1.8944 -0.7650  0.9745
   37CHL1  H26B 2733   5.350   4.531   8.249 -0.5038  0.0613  0.6031
   37CHL1  H26C 2734   5.186   4.498   8.323 -0.3588  0.2711  0.5796
   37CHL1   C27 2735   5.271   4.245   8.431 -0.4196 -0.0652  0.0383
   37CHL1  H27A 2736   5.161   4.228   8.432 -0.2009 -1.6907  0.6690
   37CHL1  H27B 2737   5.318   4.145   8.443 -1.6894 -0.5823  0.8407
   37CHL1  H27C 2738   5.297   4.295   8.527  4.4392  2.3514 -2.1641
   38CHL1    C3 2739   2.901   4.781   6.689  0.5237 -0.4249  0.5891
   38CHL1    H3 2740   2.927   4.677   6.721  2.1402 -0.3421 -0.3299
   38CHL1    O3 2741   2.882   4.793   6.549  0.0110 -0.5772  1.0821
   38CHL1   H3' 2742   2.849   4.883   6.545 -2.3436 -1.4109  0.2509
   38CHL1    C4 2743   2.770   4.819   6.753 -0.7986 -0.3369 -0.3321
   38CHL1   H4A 2744   2.747   4.922   6.717  1.9900 -0.0926 -1.7156
   38CHL1   H4B 2745   2.691   4.750   6.719 -0.1347  0.3820 -3.7374
   38CHL1    C5 2746   2.776   4.815   6.900  0.5448 -1.2178  0.3954
   38CHL1    C6 2747   2.682   4.765   6.982  0.3410 -0.3887 -0.1390
   38CHL1    H6 2748   2.601   4.712   6.930  0.8376 -0.0333 -1.3068
   38CHL1    C7 2749   2.682   4.768   7.129 -0.0213 -0.6015 -0.1679
   38CHL1   H7A 2750   2.583   4.785   7.175  0.6372  0.3295  0.9641
   38CHL1   H7B 2751   2.716   4.666   7.159  1.7923  0.2372  0.7689
   38CHL1    C8 2752   2.791   4.864   7.190 -0.2652  0.8121 -0.2028
   38CHL1    H8 2753   2.742   4.964   7.190  1.8770  1.9197 -0.5512
   38CHL1   C14 2754   2.830   4.823   7.331 -0.1137 -1.2278 -0.3854
   38CHL1   H14 2755   2.873   4.722   7.309 -2.2836 -1.9689 -1.6179
   38CHL1   C15 2756   2.717   4.794   7.430 -0.1603 -0.1715  0.1163
   38CHL1  H15A 2757   2.626   4.853   7.408  0.2073  0.5017  0.3938
   38CHL1  H15B 2758   2.686   4.688   7.416 -2.2437  0.3337  0.5038
   38CHL1   C16 2759   2.782   4.802   7.566  0.0324  0.1216  0.1239
   38CHL1  H16A 2760   2.730   4.881   7.625 -1.7179  0.9535 -2.3715
   38CHL1  H16B 2761   2.780   4.710   7.629  1.5750  0.3764  0.5881
   38CHL1   C17 2762   2.932   4.854   7.549  0.2777 -0.2970  0.4906
   38CHL1   H17 2763   2.992   4.761   7.546  0.1990 -0.3452  0.3826
   38CHL1   C13 2764   2.935   4.911   7.405  0.0449 -0.4988  0.5415
   38CHL1   C18 2765   2.886   5.057   7.416  0.5439 -0.4227 -0.7488
   38CHL1  H18A 2766   2.954   5.114   7.483  1.4039 -1.1386 -1.0021
   38CHL1  H18B 2767   2.885   5.097   7.313 -1.2458  2.0478  0.1335
   38CHL1  H18C 2768   2.784   5.066   7.460  0.7412  1.0669 -0.5547
   38CHL1   C12 2769   3.069   4.903   7.328  0.4027 -0.7128 -0.2991
   38CHL1  H12A 2770   3.126   4.993   7.359 -0.1250 -0.3380 -0.4159
   38CHL1  H12B 2771   3.131   4.814   7.354  2.2925  0.7105  0.3276
   38CHL1   C11 2772   3.047   4.930   7.175 -0.2394  0.2452  0.3789
   38CHL1  H11A 2773   3.035   5.039   7.157  1.2323  0.0511 -2.2896
   38CHL1  H11B 2774   3.140   4.904   7.121 -0.6543 -0.6266  0.0680
   38CHL1    C9 2775   2.919   4.855   7.110 -0.6100 -0.6190 -0.1274
   38CHL1    H9 2776   2.956   4.751   7.112  0.2344 -0.3917 -2.0073
   38CHL1   C10 2777   2.897   4.894   6.961  0.0645  0.6997  0.7304
   38CHL1   C19 2778   2.870   5.047   6.945  0.4278 -0.3376 -0.2111
   38CHL1  H19A 2779   2.782   5.069   7.009 -0.9735 -0.1415 -2.1196
   38CHL1  H19B 2780   2.960   5.105   6.974  2.5060 -3.3912 -0.1667
   38CHL1  H19C 2781   2.846   5.078   6.841 -1.8986  0.6805  0.5519
   38CHL1    C1 2782   3.030   4.852   6.889  0.0552 -0.0780  0.3286
   38CHL1   H1A 2783   3.113   4.920   6.919 -1.3852  2.6461 -1.4268
   38CHL1   H1B 2784   3.070   4.753   6.919 -2.9552 -1.2331  0.9321
   38CHL1    C2 2785   3.018   4.861   6.736  0.2058 -0.1478 -0.0173
   38CHL1   H2A 2786   3.104   4.836   6.670 -1.2800 -0.3327 -1.9866
   38CHL1   H2B 2787   2.997   4.969   6.718 -1.3437 -0.3280  0.5000
   38CHL1   C20 2788   2.983   4.921   7.675  0.1974  0.2411 -0.6687
   38CHL1   H20 2789   2.945   5.026   7.681  1.5809  0.8879 -2.3212
   38CHL1   C21 2790   3.135   4.928   7.664 -0.4042  0.0439 -0.5934
   38CHL1  H21A 2791   3.167   4.991   7.578  0.7294  1.7417  0.9906
   38CHL1  H21B 2792   3.188   4.833   7.642  1.4772  1.0304 -0.6359
   38CHL1  H21C 2793   3.173   4.975   7.758 -0.7404 -0.0262 -0.4230
   38CHL1   C22 2794   2.938   4.856   7.811 -0.9664  0.0313  0.4970
   38CHL1  H22A 2795   2.828   4.857   7.822 -0.9914  1.4065  0.2549
   38CHL1  H22B 2796   2.977   4.752   7.814  1.4463  0.6732 -2.6460
   38CHL1   C23 2797   2.984   4.926   7.938 -0.5634  0.0662 -0.0181
   38CHL1  H23A 2798   3.093   4.932   7.955 -0.7846  0.5648  1.3556
   38CHL1  H23B 2799   2.946   5.030   7.935 -0.7734  0.0493  1.3181
   38CHL1   C24 2800   2.907   4.870   8.063 -0.5353 -0.0323  0.4339
   38CHL1  H24A 2801   2.801   4.900   8.054 -0.0162  2.3606  1.6111
   38CHL1  H24B 2802   2.910   4.759   8.057 -0.3581  0.0602 -2.0390
   38CHL1   C25 2803   2.977   4.914   8.199  0.4179  0.2409 -0.8920
   38CHL1   H25 2804   3.085   4.891   8.200  0.9090  2.1516 -2.7084
   38CHL1   C26 2805   2.968   5.070   8.213  0.2250  0.4674 -0.3712
   38CHL1  H26A 2806   2.960   5.096   8.321  1.4223 -1.8341  0.3314
   38CHL1  H26B 2807   3.049   5.134   8.173  1.7800 -0.5309  1.0197
   38CHL1  H26C 2808   2.871   5.095   8.166  0.1238  1.4593  0.3250
   38CHL1   C27 2809   2.909   4.843   8.318 -0.7732  0.4748  0.3182
   38CHL1  H27A 2810   2.960   4.876   8.411  0.5018 -2.4658  0.7807
   38CHL1  H27B 2811   2.801   4.863   8.306 -0.9207 -0.7069 -0.5289
   38CHL1  H27C 2812   2.929   4.735   8.304 -1.6447  0.2595  0.6614
   39CHL1    C3 2813   2.257   3.446   6.876 -0.5105 -0.0760  0.1865
   39CHL1    H3 2814   2.147   3.441   6.891 -0.8868  2.1319 -1.3991
   39CHL1    O3 2815   2.291   3.456   6.735 -0.8144 -0.8901 -0.1693
   39CHL1   H3' 2816   2.360   3.522   6.728 -1.1239 -0.2201  2.2797
   39CHL1    C4 2817   2.306   3.570   6.956 -0.2990 -0.4414  0.3902
   39CHL1   H4A 2818   2.415   3.581   6.938  0.2094  0.7404  3.6033
   39CHL1   H4B 2819   2.246   3.651   6.910 -3.0922 -2.4138  0.2498
   39CHL1    C5 2820   2.287   3.564   7.102 -0.1934  0.5069  0.1817
   39CHL1    C6 2821   2.219   3.655   7.165  0.0534  0.3793 -0.0608
   39CHL1    H6 2822   2.190   3.746   7.111 -0.4813  1.5615  2.0887
   39CHL1    C7 2823   2.200   3.650   7.319 -0.6142  0.3518  0.0133
   39CHL1   H7A 2824   2.217   3.751   7.362  0.0046  0.8647 -1.3894
   39CHL1   H7B 2825   2.097   3.623   7.349 -0.3900  1.3748  1.8772
   39CHL1    C8 2826   2.299   3.552   7.394  1.0111 -0.2872  0.2988
   39CHL1    H8 2827   2.400   3.599   7.397  0.9313 -0.0898 -0.0191
   39CHL1   C14 2828   2.244   3.516   7.536  0.0009  0.1716  0.3731
   39CHL1   H14 2829   2.152   3.456   7.520 -0.4682 -0.2179  3.6757
   39CHL1   C15 2830   2.217   3.627   7.632 -0.0162  0.4475  0.4787
   39CHL1  H15A 2831   2.285   3.712   7.608  0.8479 -0.5974 -0.9741
   39CHL1  H15B 2832   2.114   3.665   7.613  0.1564  0.1310 -1.2906
   39CHL1   C16 2833   2.227   3.564   7.769  0.0170  0.6461 -0.2448
   39CHL1  H16A 2834   2.318   3.607   7.815 -0.2435  1.6636 -0.6478
   39CHL1  H16B 2835   2.139   3.574   7.836  0.0068 -0.0282 -0.1501
   39CHL1   C17 2836   2.246   3.409   7.749 -0.5783  0.0468  0.6971
   39CHL1   H17 2837   2.144   3.372   7.725 -0.7785  1.6620 -1.1924
   39CHL1   C13 2838   2.322   3.411   7.612 -0.8069 -0.3162  0.2136
   39CHL1   C18 2839   2.468   3.460   7.642 -1.0099 -0.4977  0.2797
   39CHL1  H18A 2840   2.514   3.516   7.557 -1.6570  2.3027  1.6711
   39CHL1  H18B 2841   2.476   3.535   7.723 -1.7784 -0.1636  0.0507
   39CHL1  H18C 2842   2.533   3.379   7.681 -0.2409  0.3144  0.7241
   39CHL1   C12 2843   2.325   3.284   7.530  0.4170  0.0263  0.3368
   39CHL1  H12A 2844   2.389   3.213   7.588 -0.4803  0.4981  1.9686
   39CHL1  H12B 2845   2.223   3.240   7.521  2.1479 -4.2909 -0.6336
   39CHL1   C11 2846   2.379   3.314   7.392 -0.1303  0.3290  0.2844
   39CHL1  H11A 2847   2.483   3.349   7.404 -0.9474  3.5245 -0.8247
   39CHL1  H11B 2848   2.379   3.217   7.340  1.3785  1.1010 -1.2377
   39CHL1    C9 2849   2.299   3.420   7.316  0.3830  0.2092 -0.7663
   39CHL1    H9 2850   2.191   3.392   7.317  0.7400 -1.2056 -0.0574
   39CHL1   C10 2851   2.339   3.432   7.172  0.0502 -0.7117  0.1297
   39CHL1   C19 2852   2.498   3.441   7.162 -0.2588 -0.2355 -0.0803
   39CHL1  H19A 2853   2.550   3.522   7.218 -1.1214  1.1694 -1.2237
   39CHL1  H19B 2854   2.547   3.343   7.181  0.8185  0.1556 -0.7646
   39CHL1  H19C 2855   2.523   3.448   7.054 -0.6218 -1.6418 -0.2750
   39CHL1    C1 2856   2.292   3.314   7.089 -0.4928  0.3317  0.0243
   39CHL1   H1A 2857   2.331   3.221   7.134  1.2090 -0.0597 -2.0804
   39CHL1   H1B 2858   2.181   3.307   7.086 -0.4709  0.0917 -2.3659
   39CHL1    C2 2859   2.330   3.319   6.940  0.6391  0.4831  0.8218
   39CHL1   H2A 2860   2.281   3.231   6.893 -0.3933  0.7634  1.3228
   39CHL1   H2B 2861   2.438   3.324   6.918  0.3606 -3.6643 -2.7527
   39CHL1   C20 2862   2.320   3.336   7.869 -0.0547  0.5206 -0.1706
   39CHL1   H20 2863   2.418   3.385   7.885 -0.9186  1.6697  2.1161
   39CHL1   C21 2864   2.350   3.186   7.844  1.3819 -0.1584 -0.0101
   39CHL1  H21A 2865   2.378   3.118   7.927  0.4650 -1.3280 -0.6284
   39CHL1  H21B 2866   2.444   3.179   7.784  2.0434  1.6856  0.7348
   39CHL1  H21C 2867   2.266   3.143   7.787  0.1436 -0.1836  1.7747
   39CHL1   C22 2868   2.245   3.349   8.005 -0.0518 -0.4219  0.5045
   39CHL1  H22A 2869   2.232   3.459   8.015 -0.2982 -0.3700 -0.3048
   39CHL1  H22B 2870   2.143   3.305   8.001 -1.0227  1.6376  1.0000
   39CHL1   C23 2871   2.332   3.314   8.126 -0.0769  0.4386  0.0654
   39CHL1  H23A 2872   2.257   3.314   8.207  0.6126  0.9711  0.7169
   39CHL1  H23B 2873   2.367   3.208   8.125  2.2706  1.0751  2.4472
   39CHL1   C24 2874   2.443   3.416   8.158  0.3690  0.1675  0.4776
   39CHL1  H24A 2875   2.525   3.419   8.083 -0.2835 -0.3717 -0.2862
   39CHL1  H24B 2876   2.385   3.510   8.165 -1.3648 -0.8709  0.6401
   39CHL1   C25 2877   2.496   3.400   8.301 -0.1752 -0.3854 -0.1259
   39CHL1   H25 2878   2.409   3.399   8.370 -0.2901 -0.1812 -0.2673
   39CHL1   C26 2879   2.585   3.280   8.336  0.2920 -0.0377  0.4458
   39CHL1  H26A 2880   2.544   3.185   8.296 -1.6927  0.9149  0.0800
   39CHL1  H26B 2881   2.685   3.290   8.289  0.4243  0.2675  0.7886
   39CHL1  H26C 2882   2.603   3.261   8.444  3.4299 -0.8935 -0.1409
   39CHL1   C27 2883   2.576   3.530   8.325 -0.8656  0.1001  0.1059
   39CHL1  H27A 2884   2.592   3.542   8.434  1.3292 -1.7880  0.0727
   39CHL1  H27B 2885   2.673   3.524   8.270 -1.6504  1.0091 -1.4371
   39CHL1  H27C 2886   2.520   3.619   8.289 -1.0851  0.4024  1.1521
   40CHL1    C3 2887   5.564   2.395   6.703  1.0403 -0.0398  0.0145
   40CHL1    H3 2888   5.543   2.502   6.684  0.2140  0.5288  3.5302
   40CHL1    O3 2889   5.559   2.321   6.581  0.1790  0.2601  0.5668
   40CHL1   H3' 2890   5.596   2.237   6.610 -0.6644 -0.3728 -0.1518
   40CHL1    C4 2891   5.704   2.389   6.759 -0.0591 -0.1219 -0.0606
   40CHL1   H4A 2892   5.742   2.285   6.769  2.8067  0.9804  2.1923
   40CHL1   H4B 2893   5.761   2.442   6.680 -0.7013  2.6735  1.2299
   40CHL1    C5 2894   5.705   2.450   6.896  0.4732 -0.2988  0.3389
   40CHL1    C6 2895   5.802   2.543   6.926 -0.0376  0.6927  0.2292
   40CHL1    H6 2896   5.870   2.585   6.851 -0.7966  1.0291 -0.2814
   40CHL1    C7 2897   5.817   2.604   7.062 -0.2922 -0.7190 -0.0905
   40CHL1   H7A 2898   5.927   2.608   7.075 -0.0019  0.3115 -2.4183
   40CHL1   H7B 2899   5.775   2.707   7.057  1.7094  0.0890 -1.5986
   40CHL1    C8 2900   5.741   2.532   7.178 -0.1421  0.2470 -0.3363
   40CHL1    H8 2901   5.801   2.441   7.199  2.1873  2.0066  1.1901
   40CHL1   C14 2902   5.723   2.618   7.300 -0.0360 -0.4965 -0.5024
   40CHL1   H14 2903   5.652   2.699   7.275 -0.6198 -0.0816  2.1738
   40CHL1   C15 2904   5.855   2.689   7.362  0.7457 -0.6179 -0.1454
   40CHL1  H15A 2905   5.944   2.624   7.352  1.9349  0.9514 -0.0958
   40CHL1  H15B 2906   5.859   2.779   7.298  2.7272 -0.5787 -0.0220
   40CHL1   C16 2907   5.816   2.721   7.505 -0.1878 -0.3649 -0.0863
   40CHL1  H16A 2908   5.887   2.665   7.569  0.0694 -0.1664 -0.1983
   40CHL1  H16B 2909   5.823   2.830   7.526  1.2166 -0.6407  1.0386
   40CHL1   C17 2910   5.670   2.667   7.531 -0.3508  0.5360 -0.1413
   40CHL1   H17 2911   5.601   2.749   7.501 -2.6782 -0.8802  1.1327
   40CHL1   C13 2912   5.655   2.551   7.430  1.3523  0.1638  0.6087
   40CHL1   C18 2913   5.732   2.426   7.479 -0.0372  0.0148 -0.8113
   40CHL1  H18A 2914   5.836   2.456   7.503 -0.0253 -0.7657  0.2279
   40CHL1  H18B 2915   5.681   2.385   7.569 -0.4888  0.9206 -0.6386
   40CHL1  H18C 2916   5.746   2.348   7.401  2.5346 -0.7404  0.2851
   40CHL1   C12 2917   5.514   2.508   7.386  1.0802 -0.3019  0.5560
   40CHL1  H12A 2918   5.464   2.446   7.463 -1.3700 -1.0954 -1.5160
   40CHL1  H12B 2919   5.446   2.595   7.397 -0.7280 -1.5511 -0.3134
   40CHL1   C11 2920   5.513   2.425   7.249 -0.9066 -0.0440  0.3823
   40CHL1  H11A 2921   5.552   2.325   7.275  0.0877 -0.1492 -1.4112
   40CHL1  H11B 2922   5.406   2.425   7.219 -0.3563 -2.2712 -1.9246
   40CHL1    C9 2923   5.595   2.484   7.130  0.0302  0.0149 -0.0972
   40CHL1    H9 2924   5.547   2.583   7.113  1.8565  0.8978 -0.3065
   40CHL1   C10 2925   5.600   2.401   6.997  0.3386 -0.1147 -0.5265
   40CHL1   C19 2926   5.634   2.256   7.035 -0.5040 -0.1856  0.5063
   40CHL1  H19A 2927   5.643   2.191   6.944  0.3063  1.3688 -0.5661
   40CHL1  H19B 2928   5.729   2.251   7.093 -0.8987 -0.6442  1.1246
   40CHL1  H19C 2929   5.546   2.217   7.090 -0.4091 -0.7770  0.2593
   40CHL1    C1 2930   5.465   2.406   6.931  0.1885  0.3037 -0.0430
   40CHL1   H1A 2931   5.392   2.365   7.005 -0.7485  1.5428 -0.2602
   40CHL1   H1B 2932   5.425   2.509   6.933  1.7029  0.9068  1.5197
   40CHL1    C2 2933   5.464   2.332   6.796  0.0428 -0.6742 -0.4343
   40CHL1   H2A 2934   5.362   2.348   6.755  0.2333  0.4682 -0.5059
   40CHL1   H2B 2935   5.471   2.221   6.801 -3.0009 -1.0963 -2.6513
   40CHL1   C20 2936   5.642   2.633   7.685  0.3148  0.2658  1.3769
   40CHL1   H20 2937   5.683   2.532   7.705 -0.2772 -0.5926 -1.2391
   40CHL1   C21 2938   5.484   2.629   7.698 -0.2511 -0.1943  0.0053
   40CHL1  H21A 2939   5.448   2.724   7.654  0.4219  0.4745  0.8621
   40CHL1  H21B 2940   5.448   2.633   7.803 -2.1514  0.5215 -0.6398
   40CHL1  H21C 2941   5.431   2.548   7.643 -0.5483  0.5654 -0.8413
   40CHL1   C22 2942   5.700   2.738   7.781 -1.0114  0.1576 -0.3687
   40CHL1  H22A 2943   5.803   2.767   7.753 -1.0052  0.3007 -0.2032
   40CHL1  H22B 2944   5.646   2.832   7.755  1.0165  1.7422  0.8294
   40CHL1   C23 2945   5.686   2.716   7.930  0.2011  0.8604  0.9635
   40CHL1  H23A 2946   5.605   2.644   7.955 -1.2945  1.4472 -1.8057
   40CHL1  H23B 2947   5.771   2.659   7.973 -0.3050  0.5136  1.5186
   40CHL1   C24 2948   5.682   2.847   8.002  0.3659 -0.2902 -0.6384
   40CHL1  H24A 2949   5.773   2.906   7.982  0.4907 -0.5026 -0.7037
   40CHL1  H24B 2950   5.602   2.912   7.958 -1.2405 -1.7233  0.0463
   40CHL1   C25 2951   5.668   2.836   8.154  0.2418 -0.3324  0.0551
   40CHL1   H25 2952   5.762   2.792   8.195  1.5223  1.5777 -0.6534
   40CHL1   C26 2953   5.645   2.981   8.211  1.1513  0.8453 -0.1554
   40CHL1  H26A 2954   5.535   2.999   8.213  1.1044  0.7691  3.0208
   40CHL1  H26B 2955   5.678   2.986   8.317 -0.0676  2.6534  0.1962
   40CHL1  H26C 2956   5.698   3.062   8.156  1.7577 -0.2739 -1.2441
   40CHL1   C27 2957   5.555   2.738   8.209 -0.6490  0.4769 -0.2231
   40CHL1  H27A 2958   5.539   2.759   8.317  0.3345  0.5707 -0.0933
   40CHL1  H27B 2959   5.454   2.741   8.163 -1.9457 -1.8029  2.1914
   40CHL1  H27C 2960   5.586   2.632   8.211  2.8381  1.3725 -0.2093
   41CHL1    C3 2961   5.091   3.314   6.834  0.3262  0.3887 -0.7554
   41CHL1    H3 2962   5.096   3.421   6.865 -0.4141 -0.0044  0.8271
   41CHL1    O3 2963   5.143   3.298   6.703  0.1523 -0.0228  0.3844
   41CHL1   H3' 2964   5.073   3.331   6.647  1.0362 -0.1209 -0.7974
   41CHL1    C4 2965   5.179   3.236   6.933 -0.2286 -0.0459  0.4504
   41CHL1   H4A 2966   5.174   3.129   6.902  0.8438 -0.4417  1.5614
   41CHL1   H4B 2967   5.283   3.275   6.925 -1.0717  2.1721 -0.5015
   41CHL1    C5 2968   5.126   3.244   7.078 -0.7204 -0.4108  0.8899
   41CHL1    C6 2969   5.199   3.293   7.178  0.3346  0.1554 -0.4498
   41CHL1    H6 2970   5.301   3.327   7.153 -0.1586  1.7300 -0.4723
   41CHL1    C7 2971   5.164   3.305   7.326 -0.5857 -0.0961  0.4018
   41CHL1   H7A 2972   5.244   3.275   7.397 -0.7198 -0.3389  0.4499
   41CHL1   H7B 2973   5.143   3.413   7.345 -1.2079 -0.2342  0.5133
   41CHL1    C8 2974   5.034   3.228   7.349  0.4551 -0.1989 -0.3621
   41CHL1    H8 2975   5.079   3.127   7.347  0.2245 -0.2924 -1.4667
   41CHL1   C14 2976   4.972   3.272   7.486  0.0752  0.3024  0.0810
   41CHL1   H14 2977   4.941   3.378   7.473  0.1788  0.2201 -0.8815
   41CHL1   C15 2978   5.055   3.281   7.617 -0.5497 -0.6106  0.7253
   41CHL1  H15A 2979   5.116   3.192   7.642 -2.3493 -2.0536  0.1677
   41CHL1  H15B 2980   5.119   3.371   7.601  0.8286 -1.0390  3.3348
   41CHL1   C16 2981   4.946   3.305   7.726  1.0282  0.2661  0.4901
   41CHL1  H16A 2982   4.971   3.232   7.806  0.3873 -0.1614  0.3182
   41CHL1  H16B 2983   4.946   3.404   7.776  1.3364  0.8458 -0.6248
   41CHL1   C17 2984   4.807   3.260   7.662 -0.3637 -0.2109 -0.1163
   41CHL1   H17 2985   4.766   3.359   7.630  1.3947 -0.7573 -4.8663
   41CHL1   C13 2986   4.843   3.195   7.524 -0.3300  0.4771 -0.0914
   41CHL1   C18 2987   4.880   3.042   7.539 -0.1036 -0.7388  0.1946
   41CHL1  H18A 2988   4.937   3.012   7.448  1.8697  1.3309  0.6738
   41CHL1  H18B 2989   4.938   3.020   7.631  0.1734 -2.9681 -0.4410
   41CHL1  H18C 2990   4.785   2.983   7.543 -1.6216  1.5145 -0.5060
   41CHL1   C12 2991   4.735   3.215   7.413  0.2715  0.5708  0.0416
   41CHL1  H12A 2992   4.650   3.149   7.439 -1.6499  1.7125 -2.8462
   41CHL1  H12B 2993   4.714   3.324   7.404  0.5374  0.5009 -2.0370
   41CHL1   C11 2994   4.797   3.165   7.276  0.0115  0.0719  0.4810
   41CHL1  H11A 2995   4.813   3.055   7.282 -2.9396 -0.4180  0.4918
   41CHL1  H11B 2996   4.734   3.182   7.187 -0.2893  0.2723  0.7330
   41CHL1    C9 2997   4.929   3.242   7.239  0.6225 -1.0050 -0.4317
   41CHL1    H9 2998   4.901   3.350   7.233  1.0862 -0.9500 -1.7355
   41CHL1   C10 2999   4.982   3.207   7.098  0.2530 -0.4789  1.5680
   41CHL1   C19 3000   4.968   3.056   7.080 -0.0160 -1.1604 -0.5194
   41CHL1  H19A 3001   4.863   3.019   7.081 -0.7482  0.7841 -0.1608
   41CHL1  H19B 3002   5.005   3.013   6.984  0.3762 -0.7909 -0.5371
   41CHL1  H19C 3003   5.016   3.011   7.169 -0.1902  0.8123  0.6204
   41CHL1    C1 3004   4.903   3.284   6.991  0.2870  0.3093  0.0393
   41CHL1   H1A 3005   4.795   3.267   7.007  0.3596  0.7160  1.0957
   41CHL1   H1B 3006   4.914   3.391   7.017  2.4492 -0.1278  1.1837
   41CHL1    C2 3007   4.947   3.269   6.843 -0.6183  0.4991 -0.0987
   41CHL1   H2A 3008   4.891   3.341   6.781 -1.2161  0.1667  0.0540
   41CHL1   H2B 3009   4.937   3.168   6.797  1.6471  0.1087  0.1111
   41CHL1   C20 3010   4.706   3.189   7.750  0.3821 -0.1256 -0.8103
   41CHL1   H20 3011   4.747   3.086   7.757  2.3125  0.6143 -0.3324
   41CHL1   C21 3012   4.562   3.169   7.698 -0.5955 -0.2923 -0.0674
   41CHL1  H21A 3013   4.555   3.085   7.627  0.0061 -3.3440  3.1932
   41CHL1  H21B 3014   4.524   3.270   7.671 -0.4916 -0.0749  0.5627
   41CHL1  H21C 3015   4.490   3.124   7.770 -2.3156  1.8569 -0.3236
   41CHL1   C22 3016   4.702   3.244   7.897  0.1448  0.2374  1.1170
   41CHL1  H22A 3017   4.649   3.164   7.953  1.3446 -3.3271 -2.3844
   41CHL1  H22B 3018   4.803   3.255   7.941 -0.2360  0.2613  2.0262
   41CHL1   C23 3019   4.637   3.381   7.909 -0.1084 -0.7159 -0.0635
   41CHL1  H23A 3020   4.695   3.464   7.863  0.7273 -0.0738  2.0282
   41CHL1  H23B 3021   4.537   3.387   7.861  0.2630  0.1213 -0.7668
   41CHL1   C24 3022   4.635   3.420   8.050 -0.0436 -0.3510 -0.1621
   41CHL1  H24A 3023   4.557   3.365   8.107 -0.5833 -0.5235 -1.0447
   41CHL1  H24B 3024   4.735   3.393   8.092 -0.4742  1.3852  2.1942
   41CHL1   C25 3025   4.600   3.573   8.063  0.5029 -0.0009 -0.4873
   41CHL1   H25 3026   4.691   3.624   8.025 -0.0527  0.2632 -1.4963
   41CHL1   C26 3027   4.476   3.618   7.980  0.1339 -0.7481  0.1248
   41CHL1  H26A 3028   4.515   3.623   7.876 -1.5050 -1.5313 -0.5488
   41CHL1  H26B 3029   4.384   3.556   7.985 -1.1296  0.9229 -1.3179
   41CHL1  H26C 3030   4.446   3.722   8.006  0.4413  0.3608 -3.4719
   41CHL1   C27 3031   4.568   3.617   8.208  0.2464  0.1041  0.0348
   41CHL1  H27A 3032   4.582   3.727   8.211 -0.1773  0.1529  0.3819
   41CHL1  H27B 3033   4.467   3.574   8.228  1.5600 -4.7101 -2.1619
   41CHL1  H27C 3034   4.632   3.568   8.285 -0.4920  0.2605  0.7672
   42CHL1    C3 3035   1.290   1.675   6.825 -0.2059  0.0777 -0.0089
   42CHL1    H3 3036   1.318   1.569   6.837 -0.6644 -0.0400  0.0458
   42CHL1    O3 3037   1.259   1.695   6.686  0.4458 -0.0178  0.1524
   42CHL1   H3' 3038   1.259   1.791   6.687 -1.0552  0.0138  0.0053
   42CHL1    C4 3039   1.167   1.722   6.909  0.3006  0.0348  0.2201
   42CHL1   H4A 3040   1.143   1.830   6.899 -0.7549 -0.3546 -2.1021
   42CHL1   H4B 3041   1.079   1.670   6.866  1.4946 -1.4221 -0.5367
   42CHL1    C5 3042   1.191   1.678   7.052 -0.8708  0.3839 -0.4546
   42CHL1    C6 3043   1.105   1.599   7.120 -0.4744  0.3955 -0.3309
   42CHL1    H6 3044   1.016   1.562   7.068  0.8305 -2.1256 -0.9100
   42CHL1    C7 3045   1.122   1.545   7.257  0.5845  0.5346  0.1149
   42CHL1   H7A 3046   1.027   1.555   7.314  0.2298 -0.9066 -0.1705
   42CHL1   H7B 3047   1.139   1.435   7.247 -4.0066 -0.1982 -2.9327
   42CHL1    C8 3048   1.237   1.612   7.337 -1.0002  1.1925  0.9159
   42CHL1    H8 3049   1.198   1.709   7.376 -0.3143  2.3650 -1.1483
   42CHL1   C14 3050   1.270   1.523   7.453  0.1937  0.4729 -0.6986
   42CHL1   H14 3051   1.307   1.424   7.418  2.0083  1.4137 -1.5671
   42CHL1   C15 3052   1.159   1.479   7.553  0.4546  0.1168  0.3630
   42CHL1  H15A 3053   1.087   1.559   7.578 -0.8430 -0.2816 -1.8036
   42CHL1  H15B 3054   1.102   1.395   7.508 -1.4459  0.8935  1.2306
   42CHL1   C16 3055   1.244   1.427   7.678  0.2399  0.5499 -0.0126
   42CHL1  H16A 3056   1.210   1.473   7.773 -2.4342 -0.0733 -0.5938
   42CHL1  H16B 3057   1.228   1.317   7.678 -0.7436  0.6758 -1.0839
   42CHL1   C17 3058   1.388   1.465   7.657 -0.1268  0.0642  0.0852
   42CHL1   H17 3059   1.443   1.377   7.617  2.6086  0.6449  2.2450
   42CHL1   C13 3060   1.380   1.577   7.541 -0.5336 -0.5860 -0.1458
   42CHL1   C18 3061   1.338   1.711   7.610  0.3929 -0.2669 -0.1697
   42CHL1  H18A 3062   1.415   1.736   7.686 -1.9529  0.8712  2.0096
   42CHL1  H18B 3063   1.349   1.796   7.539  2.7728 -1.7234 -1.6641
   42CHL1  H18C 3064   1.234   1.706   7.649  0.4241 -0.5257 -0.1192
   42CHL1   C12 3065   1.505   1.600   7.458 -0.8404  0.3794 -0.0138
   42CHL1  H12A 3066   1.577   1.662   7.515 -0.4774  0.1926 -0.2622
   42CHL1  H12B 3067   1.548   1.501   7.431  2.3168  1.4045  0.8035
   42CHL1   C11 3068   1.484   1.684   7.328 -0.0826  1.0375  0.2563
   42CHL1  H11A 3069   1.475   1.792   7.352  0.1210  1.5376 -1.6957
   42CHL1  H11B 3070   1.571   1.664   7.261 -0.5907 -1.3821  0.2249
   42CHL1    C9 3071   1.358   1.641   7.243 -0.3173 -0.0104 -0.5608
   42CHL1    H9 3072   1.388   1.539   7.209  2.5636  0.1869  1.0836
   42CHL1   C10 3073   1.333   1.727   7.113 -0.0815 -0.5176 -0.0416
   42CHL1   C19 3074   1.317   1.874   7.153 -0.2405 -0.1319 -0.1290
   42CHL1  H19A 3075   1.250   1.876   7.241  0.1860  3.4335  0.2547
   42CHL1  H19B 3076   1.415   1.917   7.182 -0.5284 -1.2766  2.9140
   42CHL1  H19C 3077   1.284   1.930   7.063  0.7022 -0.0696 -0.4480
   42CHL1    C1 3078   1.449   1.713   7.010  0.1341 -0.4454  0.1090
   42CHL1   H1A 3079   1.537   1.771   7.043  1.1584 -1.2221 -1.1352
   42CHL1   H1B 3080   1.460   1.602   7.008 -1.6712 -0.7041  1.5318
   42CHL1    C2 3081   1.414   1.761   6.869 -0.1928  0.1132  0.0262
   42CHL1   H2A 3082   1.499   1.753   6.798  0.9765 -0.1591  1.4389
   42CHL1   H2B 3083   1.396   1.871   6.871  1.9620  0.4874  0.2528
   42CHL1   C20 3084   1.466   1.490   7.785 -0.4645  0.1437  0.1127
   42CHL1   H20 3085   1.424   1.586   7.824  2.1570  1.2890  0.2723
   42CHL1   C21 3086   1.617   1.519   7.765 -0.0961 -0.1328 -0.3970
   42CHL1  H21A 3087   1.647   1.612   7.713  0.1303 -1.1136 -2.0961
   42CHL1  H21B 3088   1.676   1.443   7.709  1.4816  1.3998 -0.9253
   42CHL1  H21C 3089   1.667   1.520   7.864 -0.8181  0.5172 -0.0352
   42CHL1   C22 3090   1.440   1.371   7.884 -0.1164  0.0616 -0.2967
   42CHL1  H22A 3091   1.330   1.359   7.895 -0.3702  1.9976 -0.3596
   42CHL1  H22B 3092   1.478   1.289   7.819  0.0018 -1.1189  1.1946
   42CHL1   C23 3093   1.508   1.366   8.018  0.1122  0.0562 -0.6921
   42CHL1  H23A 3094   1.618   1.375   8.011  0.5489 -2.6395  0.9584
   42CHL1  H23B 3095   1.475   1.446   8.087  1.8868 -0.7064  1.1304
   42CHL1   C24 3096   1.498   1.224   8.086 -0.8481  0.0356  0.1633
   42CHL1  H24A 3097   1.388   1.204   8.087 -0.6622 -1.2681 -1.4536
   42CHL1  H24B 3098   1.546   1.149   8.020 -1.2507  0.0229 -0.1199
   42CHL1   C25 3099   1.555   1.217   8.228  0.4652 -0.1938  0.4521
   42CHL1   H25 3100   1.641   1.288   8.228  0.9379 -0.7401  1.4651
   42CHL1   C26 3101   1.455   1.270   8.328 -0.3124 -0.7269  0.3181
   42CHL1  H26A 3102   1.372   1.198   8.344  0.6882 -3.0585 -3.6028
   42CHL1  H26B 3103   1.509   1.279   8.424  0.4178 -1.4614 -0.0135
   42CHL1  H26C 3104   1.411   1.365   8.291 -1.6147 -1.7676 -0.9448
   42CHL1   C27 3105   1.615   1.080   8.266  0.1071 -0.6301  0.1037
   42CHL1  H27A 3106   1.676   1.036   8.184  1.7309  2.9191 -0.7905
   42CHL1  H27B 3107   1.533   1.016   8.305 -0.5897  0.0055 -0.2881
   42CHL1  H27C 3108   1.688   1.102   8.347  3.3403 -0.6743 -2.5796
   43CHL1    C3 3109   0.226   4.388   6.954 -0.1212 -0.2882 -0.0591
   43CHL1    H3 3110   0.237   4.300   7.021 -0.2150 -0.3671 -0.1457
   43CHL1    O3 3111   0.302   4.374   6.839 -0.0456  0.3068  0.2223
   43CHL1   H3' 3112   0.287   4.280   6.828  1.7935 -0.1994  1.6643
   43CHL1    C4 3113   0.078   4.400   6.909 -0.0039  0.5158  0.9453
   43CHL1   H4A 3114   0.061   4.479   6.832  1.5819  1.8716  1.9144
   43CHL1   H4B 3115   0.051   4.299   6.872  1.7902 -0.7943  2.9653
   43CHL1    C5 3116  -0.009   4.449   7.018 -0.2130 -0.0962  0.0632
   43CHL1    C6 3117  -0.121   4.381   7.052 -0.9125 -0.7196 -0.5466
   43CHL1    H6 3118  -0.148   4.295   6.989  1.0184 -3.1636  1.7033
   43CHL1    C7 3119  -0.214   4.415   7.166  0.5654  0.0282  0.2825
   43CHL1   H7A 3120  -0.319   4.422   7.130  0.4209  0.0114  0.6887
   43CHL1   H7B 3121  -0.200   4.343   7.250  2.7416 -0.0222 -0.0823
   43CHL1    C8 3122  -0.188   4.549   7.235  0.4958  0.2687 -0.6455
   43CHL1    H8 3123  -0.244   4.621   7.172  0.2215 -0.7317 -1.5779
   43CHL1   C14 3124  -0.257   4.561   7.373  0.0085 -0.5107 -0.1254
   43CHL1   H14 3125  -0.197   4.491   7.435 -1.2930 -1.2293  0.3836
   43CHL1   C15 3126  -0.402   4.508   7.391 -0.6027 -0.5992 -0.4277
   43CHL1  H15A 3127  -0.474   4.537   7.312 -2.1161 -0.5586  0.9333
   43CHL1  H15B 3128  -0.396   4.397   7.392  1.6040 -0.5240 -0.7139
   43CHL1   C16 3129  -0.441   4.581   7.519  0.2703  0.5220  0.3065
   43CHL1  H16A 3130  -0.523   4.653   7.499 -0.5387 -0.2277  0.8682
   43CHL1  H16B 3131  -0.477   4.517   7.601  2.5055  0.2255  1.1226
   43CHL1   C17 3132  -0.320   4.666   7.569  0.3526  0.2786 -0.5106
   43CHL1   H17 3133  -0.250   4.602   7.628  0.0505 -1.1433 -1.6518
   43CHL1   C13 3134  -0.241   4.700   7.441 -0.0647  0.5978 -0.6420
   43CHL1   C18 3135  -0.310   4.804   7.351  0.1316 -0.1421  0.0355
   43CHL1  H18A 3136  -0.314   4.896   7.413  2.0105 -0.5153  0.7638
   43CHL1  H18B 3137  -0.259   4.820   7.253  0.0305  0.8863  0.1399
   43CHL1  H18C 3138  -0.412   4.773   7.321  0.3164 -0.1885 -0.5581
   43CHL1   C12 3139  -0.087   4.725   7.455 -0.3712  0.1505 -0.1777
   43CHL1  H12A 3140  -0.070   4.824   7.502 -0.5392  0.8042 -1.4526
   43CHL1  H12B 3141  -0.048   4.644   7.521  0.0006  0.4374 -0.0442
   43CHL1   C11 3142  -0.011   4.717   7.318 -0.1031 -0.0256  0.4966
   43CHL1  H11A 3143  -0.046   4.804   7.258  0.1458 -1.0345 -1.1858
   43CHL1  H11B 3144   0.098   4.719   7.341 -0.1340 -1.1244  0.7587
   43CHL1    C9 3145  -0.039   4.583   7.242 -0.0120  0.0123 -0.0420
   43CHL1    H9 3146  -0.008   4.498   7.306  2.4854  1.5798  0.9833
   43CHL1   C10 3147   0.042   4.569   7.108  0.0489 -0.0347 -0.1092
   43CHL1   C19 3148   0.034   4.702   7.024  0.0454 -0.3152  0.4670
   43CHL1  H19A 3149  -0.068   4.706   6.981 -0.0077  3.6576  0.5966
   43CHL1  H19B 3150   0.055   4.793   7.084 -0.7183  1.3250 -1.6464
   43CHL1  H19C 3151   0.111   4.706   6.943  0.1454 -1.7841  0.4628
   43CHL1    C1 3152   0.188   4.554   7.153 -0.0453 -0.1586 -0.5001
   43CHL1   H1A 3153   0.228   4.646   7.202 -0.6954 -0.8102  1.3581
   43CHL1   H1B 3154   0.196   4.481   7.237  2.5815 -1.0764 -1.4279
   43CHL1    C2 3155   0.276   4.516   7.028  0.1548 -0.1123 -0.4008
   43CHL1   H2A 3156   0.382   4.498   7.058 -0.4663 -1.5496  1.1132
   43CHL1   H2B 3157   0.280   4.601   6.958  0.9700  0.3756  0.2203
   43CHL1   C20 3158  -0.376   4.784   7.648  0.3375  0.1808  0.1259
   43CHL1   H20 3159  -0.422   4.862   7.584  0.9972  0.6657  0.2353
   43CHL1   C21 3160  -0.267   4.864   7.721  1.0484  0.3418  0.2390
   43CHL1  H21A 3161  -0.310   4.937   7.793 -1.4799  2.0906 -2.7812
   43CHL1  H21B 3162  -0.214   4.925   7.644  2.2529 -0.8163  0.1102
   43CHL1  H21C 3163  -0.194   4.799   7.773  2.0577  0.1040 -1.3761
   43CHL1   C22 3164  -0.490   4.744   7.755  0.8729 -0.0451 -0.4113
   43CHL1  H22A 3165  -0.578   4.696   7.707 -3.3241  2.3226  4.0049
   43CHL1  H22B 3166  -0.445   4.675   7.830  1.9247 -0.0029 -0.9878
   43CHL1   C23 3167  -0.541   4.864   7.839  0.7394 -0.5002  0.0031
   43CHL1  H23A 3168  -0.475   4.874   7.928  1.6961  3.3959 -0.9483
   43CHL1  H23B 3169  -0.520   4.955   7.780 -0.1541  0.4152  1.0610
   43CHL1   C24 3170  -0.691   4.859   7.880  0.0125 -0.1818  1.3260
   43CHL1  H24A 3171  -0.752   4.834   7.790  1.0306 -2.1991  1.1319
   43CHL1  H24B 3172  -0.709   4.777   7.952 -0.5553 -2.3320 -1.0855
   43CHL1   C25 3173  -0.735   4.999   7.932 -0.2870 -0.6251 -0.0960
   43CHL1   H25 3174  -0.641   5.035   7.979 -0.8964 -0.2791  0.8991
   43CHL1   C26 3175  -0.771   5.094   7.815 -0.2585  1.1448 -0.0730
   43CHL1  H26A 3176  -0.697   5.075   7.735 -0.7259 -4.0651  0.4375
   43CHL1  H26B 3177  -0.874   5.076   7.778 -0.2292  2.4828 -0.8688
   43CHL1  H26C 3178  -0.770   5.201   7.847  1.9130  1.5279 -1.2371
   43CHL1   C27 3179  -0.836   4.993   8.046  0.6923 -0.1433 -0.0160
   43CHL1  H27A 3180  -0.796   4.931   8.129  1.2295  0.7494  0.3927
   43CHL1  H27B 3181  -0.848   5.098   8.078  1.4939  0.3847 -1.3865
   43CHL1  H27C 3182  -0.932   4.952   8.006  0.2284  0.1229  0.7951
   44CHL1    C3 3183   0.295   2.847   6.609 -0.0717  0.2065  0.1815
   44CHL1    H3 3184   0.402   2.826   6.627  0.1895 -0.6750 -2.0590
   44CHL1    O3 3185   0.263   2.817   6.474  0.2669 -0.1684 -0.3736
   44CHL1   H3' 3186   0.175   2.779   6.473 -0.2238  0.9498 -0.7551
   44CHL1    C4 3187   0.200   2.768   6.701 -0.3425 -0.5055  0.7949
   44CHL1   H4A 3188   0.093   2.787   6.674 -0.8766 -0.5248  2.7599
   44CHL1   H4B 3189   0.219   2.663   6.669 -0.8456 -0.0439 -1.1819
   44CHL1    C5 3190   0.230   2.803   6.841  0.1325 -0.1571  0.0870
   44CHL1    C6 3191   0.266   2.701   6.923  0.0909  0.1944  0.4300
   44CHL1    H6 3192   0.265   2.598   6.886 -0.3434  0.0568  0.8100
   44CHL1    C7 3193   0.293   2.728   7.067 -0.0417  0.2324 -0.2985
   44CHL1   H7A 3194   0.246   2.643   7.121  2.8003 -2.0582 -1.2104
   44CHL1   H7B 3195   0.401   2.713   7.082  0.0971 -2.1858 -2.9548
   44CHL1    C8 3196   0.243   2.869   7.114 -0.3067  0.2774  0.1405
   44CHL1    H8 3197   0.132   2.864   7.111 -0.3196  0.6949 -0.0949
   44CHL1   C14 3198   0.298   2.910   7.251  0.3491 -0.4718  0.0086
   44CHL1   H14 3199   0.409   2.917   7.247  0.6111  4.9216  4.4579
   44CHL1   C15 3200   0.253   2.821   7.375 -0.1143  0.4438  0.0021
   44CHL1  H15A 3201   0.150   2.790   7.349 -0.1135  0.7972 -0.4376
   44CHL1  H15B 3202   0.325   2.737   7.383 -0.9667 -0.1023  3.6990
   44CHL1   C16 3203   0.263   2.903   7.500 -0.1940  0.3992 -0.1233
   44CHL1  H16A 3204   0.161   2.916   7.540  0.1906  2.0494  0.4180
   44CHL1  H16B 3205   0.324   2.865   7.585  0.1600 -0.2994 -0.6792
   44CHL1   C17 3206   0.304   3.042   7.450 -0.1752  0.0486  0.2055
   44CHL1   H17 3207   0.414   3.025   7.448  0.0673  1.4289  0.5760
   44CHL1   C13 3208   0.261   3.048   7.303 -0.2949 -0.6283 -0.2914
   44CHL1   C18 3209   0.105   3.077   7.307  0.5020  0.7758  0.1730
   44CHL1  H18A 3210   0.087   3.186   7.319 -1.3375  0.3134  2.1004
   44CHL1  H18B 3211   0.061   3.047   7.209 -1.5339 -0.7189  1.4439
   44CHL1  H18C 3212   0.045   3.016   7.377 -1.4595  0.8543 -1.3553
   44CHL1   C12 3213   0.324   3.151   7.204 -0.2303 -0.1163  0.2757
   44CHL1  H12A 3214   0.285   3.252   7.230  0.4484  1.0034 -2.6654
   44CHL1  H12B 3215   0.434   3.159   7.213 -0.4183  3.6150  0.8290
   44CHL1   C11 3216   0.268   3.124   7.062 -0.5300 -0.7075  0.3273
   44CHL1  H11A 3217   0.165   3.165   7.067 -0.8737 -1.5695  0.5478
   44CHL1  H11B 3218   0.333   3.182   6.994 -0.3238 -0.7624  0.4755
   44CHL1    C9 3219   0.282   2.973   7.018 -0.3546 -0.3796  0.5871
   44CHL1    H9 3220   0.391   2.954   7.018 -0.3259 -0.2344  1.1235
   44CHL1   C10 3221   0.223   2.951   6.874  0.8750 -0.2078  0.7677
   44CHL1   C19 3222   0.079   3.013   6.859  0.1546 -0.2621 -0.3379
   44CHL1  H19A 3223   0.084   3.123   6.845  3.4250 -0.6973 -5.0307
   44CHL1  H19B 3224   0.019   2.965   6.779 -0.5130 -1.1216  0.6494
   44CHL1  H19C 3225   0.014   3.008   6.949 -0.8628  0.4555 -1.0167
   44CHL1    C1 3226   0.316   3.033   6.770 -0.5219  0.7276 -0.1370
   44CHL1   H1A 3227   0.305   3.143   6.782  1.2631  1.0634 -1.2167
   44CHL1   H1B 3228   0.417   2.990   6.788 -0.7807 -0.1005 -0.5834
   44CHL1    C2 3229   0.286   3.002   6.621  0.3694 -0.0659  0.1254
   44CHL1   H2A 3230   0.353   3.065   6.560 -1.3857  0.9313 -0.8583
   44CHL1   H2B 3231   0.182   3.033   6.597  0.3941 -0.8512 -1.0813
   44CHL1   C20 3232   0.277   3.157   7.543  0.1415 -0.1923  0.0569
   44CHL1   H20 3233   0.180   3.201   7.512 -0.5904 -0.5749  1.6847
   44CHL1   C21 3234   0.386   3.269   7.524 -0.7586 -0.2239  0.3116
   44CHL1  H21A 3235   0.409   3.268   7.415 -1.9751  0.2900  0.0357
   44CHL1  H21B 3236   0.480   3.236   7.572 -1.0561 -0.4923  0.7243
   44CHL1  H21C 3237   0.348   3.372   7.545  0.0115  0.6046 -2.0537
   44CHL1   C22 3238   0.261   3.122   7.695  0.1273 -0.1943 -0.6290
   44CHL1  H22A 3239   0.183   3.044   7.710 -2.0312  1.6602 -1.4901
   44CHL1  H22B 3240   0.353   3.089   7.746  0.7266 -0.3781 -1.8031
   44CHL1   C23 3241   0.210   3.234   7.786 -0.7693  0.1791 -0.2006
   44CHL1  H23A 3242   0.274   3.323   7.766 -0.1125  0.1203  1.4998
   44CHL1  H23B 3243   0.106   3.260   7.755 -0.6331  1.1767  0.1367
   44CHL1   C24 3244   0.219   3.179   7.931 -0.1413  0.3964 -0.2402
   44CHL1  H24A 3245   0.167   3.081   7.931 -0.4501  0.4667  2.7463
   44CHL1  H24B 3246   0.327   3.176   7.958 -0.0865  0.7791 -0.4183
   44CHL1   C25 3247   0.150   3.262   8.041 -0.6824  0.2929 -0.4411
   44CHL1   H25 3248   0.144   3.191   8.126 -0.2498 -2.0600 -2.2818
   44CHL1   C26 3249   0.221   3.385   8.074 -0.2010 -0.2741 -0.0890
   44CHL1  H26A 3250   0.187   3.438   8.165 -1.5124  0.1655 -0.8206
   44CHL1  H26B 3251   0.331   3.371   8.086 -0.0073  1.0231 -0.2005
   44CHL1  H26C 3252   0.209   3.444   7.981 -0.6065 -1.7431 -0.9930
   44CHL1   C27 3253   0.003   3.278   8.004 -0.1277 -0.4078  0.3531
   44CHL1  H27A 3254  -0.006   3.348   7.918  1.0395 -1.0859 -0.3300
   44CHL1  H27B 3255  -0.034   3.179   7.969 -0.0640 -0.3697  0.1786
   44CHL1  H27C 3256  -0.058   3.306   8.093 -1.6163 -0.9009 -0.4748
   45CHL1    C3 3257   0.449   0.409   6.745  0.2729  0.4960 -0.2919
   45CHL1    H3 3258   0.345   0.435   6.773 -0.6648 -2.2504 -0.8467
   45CHL1    O3 3259   0.436   0.348   6.617  0.6041  0.2921  0.1575
   45CHL1   H3' 3260   0.518   0.368   6.571  1.1885  0.2934  1.1722
   45CHL1    C4 3261   0.541   0.532   6.743 -0.1698  0.4888  0.2148
   45CHL1   H4A 3262   0.639   0.511   6.696 -0.0845  0.2026  0.5186
   45CHL1   H4B 3263   0.487   0.595   6.669 -0.3605  1.1009  0.8649
   45CHL1    C5 3264   0.553   0.594   6.882  0.7080 -0.5295  0.4524
   45CHL1    C6 3265   0.505   0.713   6.912 -0.2291  0.0844  0.6312
   45CHL1    H6 3266   0.454   0.767   6.831  0.6908 -0.1076 -0.0957
   45CHL1    C7 3267   0.519   0.772   7.048  0.3869 -0.3770  0.7981
   45CHL1   H7A 3268   0.573   0.868   7.036 -0.0742 -0.0788  1.0422
   45CHL1   H7B 3269   0.418   0.786   7.092  0.2133 -0.7492  0.5223
   45CHL1    C8 3270   0.608   0.689   7.146  0.1915 -0.2579  0.2866
   45CHL1    H8 3271   0.711   0.703   7.108  1.2436 -4.5382  1.0834
   45CHL1   C14 3272   0.599   0.739   7.291 -0.0295 -1.0349  0.5388
   45CHL1   H14 3273   0.497   0.703   7.316 -0.1226 -0.3613  1.1722
   45CHL1   C15 3274   0.592   0.889   7.317  0.0806 -0.0207 -0.3421
   45CHL1  H15A 3275   0.669   0.948   7.262  1.8401 -2.4619 -0.6856
   45CHL1  H15B 3276   0.489   0.924   7.296  0.1199 -0.7612 -1.9257
   45CHL1   C16 3277   0.618   0.900   7.469  0.1364 -0.3853  0.2639
   45CHL1  H16A 3278   0.708   0.959   7.494 -1.7751  1.4163  3.6154
   45CHL1  H16B 3279   0.528   0.935   7.524  0.2392 -1.0393  0.8739
   45CHL1   C17 3280   0.657   0.749   7.519  0.3358 -0.7649 -0.5457
   45CHL1   H17 3281   0.559   0.708   7.554  0.1570 -0.1474 -0.3219
   45CHL1   C13 3282   0.687   0.672   7.392 -0.2379  0.0490  0.2959
   45CHL1   C18 3283   0.837   0.706   7.357  0.4472 -0.3233 -0.0483
   45CHL1  H18A 3284   0.867   0.637   7.275  1.4750 -1.7952  1.5049
   45CHL1  H18B 3285   0.847   0.813   7.327 -2.9938  0.0876 -0.0884
   45CHL1  H18C 3286   0.892   0.673   7.448  0.0077 -1.1151 -0.0686
   45CHL1   C12 3287   0.651   0.520   7.388 -0.5042 -0.5112  0.2099
   45CHL1  H12A 3288   0.715   0.475   7.467 -2.0033 -0.0834  1.7224
   45CHL1  H12B 3289   0.542   0.507   7.403 -0.9562  1.2707 -1.2187
   45CHL1   C11 3290   0.666   0.457   7.253 -0.2682 -0.3873  0.0228
   45CHL1  H11A 3291   0.774   0.457   7.225  0.0614  0.5876  1.2099
   45CHL1  H11B 3292   0.633   0.351   7.258 -0.8341 -0.1732  1.0973
   45CHL1    C9 3293   0.586   0.535   7.135 -0.1973 -0.4598 -0.2671
   45CHL1    H9 3294   0.483   0.534   7.176  0.4763 -0.1981  1.5575
   45CHL1   C10 3295   0.605   0.490   6.988 -0.8417  0.6476 -0.1019
   45CHL1   C19 3296   0.751   0.454   6.955  0.7470  0.0934  0.4639
   45CHL1  H19A 3297   0.777   0.428   6.850  1.5598 -1.3378  0.9971
   45CHL1  H19B 3298   0.816   0.542   6.976  1.4915  0.1540 -1.7811
   45CHL1  H19C 3299   0.782   0.372   7.023 -1.1617 -0.4293  0.7650
   45CHL1    C1 3300   0.518   0.362   6.975  0.0244  0.7036 -0.8443
   45CHL1   H1A 3301   0.549   0.270   7.029 -3.3790 -1.0229 -1.5763
   45CHL1   H1B 3302   0.419   0.373   7.023 -0.8060 -1.7342 -1.8565
   45CHL1    C2 3303   0.496   0.305   6.839 -0.2934  0.1848  0.8348
   45CHL1   H2A 3304   0.424   0.222   6.852 -0.9567  0.6981  0.4752
   45CHL1   H2B 3305   0.588   0.259   6.796 -2.8629 -5.2574  0.4329
   45CHL1   C20 3306   0.745   0.754   7.652 -0.1778  0.1364  0.1265
   45CHL1   H20 3307   0.838   0.811   7.629  0.7017 -1.7231 -1.1935
   45CHL1   C21 3308   0.787   0.614   7.696 -0.6944 -0.2766 -0.4417
   45CHL1  H21A 3309   0.863   0.631   7.775  0.0918  1.3367 -1.4846
   45CHL1  H21B 3310   0.839   0.565   7.611 -2.9250  0.1607 -2.1514
   45CHL1  H21C 3311   0.700   0.546   7.713 -0.2885 -0.8070 -0.4523
   45CHL1   C22 3312   0.658   0.819   7.762 -0.4205  0.0581  0.1686
   45CHL1  H22A 3313   0.665   0.928   7.743  2.3434  0.2180  1.5338
   45CHL1  H22B 3314   0.550   0.793   7.767 -0.4065  0.1925  2.3568
   45CHL1   C23 3315   0.702   0.780   7.907 -0.8120 -0.0555 -0.1568
   45CHL1  H23A 3316   0.709   0.670   7.923  3.5844 -0.3599 -2.5675
   45CHL1  H23B 3317   0.803   0.819   7.932 -0.2344  0.2407 -2.6978
   45CHL1   C24 3318   0.595   0.835   8.005 -0.3794 -0.4891  0.0580
   45CHL1  H24A 3319   0.585   0.945   7.989  0.3150 -0.1696  1.6233
   45CHL1  H24B 3320   0.495   0.801   7.972 -0.0477 -1.2520 -0.1767
   45CHL1   C25 3321   0.628   0.801   8.151  0.1387  0.0474 -1.1307
   45CHL1   H25 3322   0.725   0.853   8.171  1.4732 -2.3352 -1.0283
   45CHL1   C26 3323   0.532   0.870   8.251 -0.1494  0.5604 -0.6546
   45CHL1  H26A 3324   0.425   0.846   8.230 -0.0764  0.1793 -0.5909
   45CHL1  H26B 3325   0.556   0.837   8.354 -1.3714  0.5655 -0.3494
   45CHL1  H26C 3326   0.542   0.980   8.263 -2.9414  0.7173  1.2625
   45CHL1   C27 3327   0.652   0.654   8.184  0.1811 -0.2339 -0.9719
   45CHL1  H27A 3328   0.717   0.604   8.109  0.1797  0.2410 -1.2906
   45CHL1  H27B 3329   0.694   0.635   8.285 -2.7073  1.3076  0.6512
   45CHL1  H27C 3330   0.564   0.585   8.184 -0.8808  1.0689  0.3953
   46CHL1    C3 3331   0.783   2.314   7.000 -0.2182  0.3620  0.8706
   46CHL1    H3 3332   0.860   2.239   7.027  2.0450  1.8329 -1.0974
   46CHL1    O3 3333   0.756   2.342   6.867 -0.3920 -0.5020 -0.0234
   46CHL1   H3' 3334   0.669   2.383   6.867  0.1995  0.8102  0.7061
   46CHL1    C4 3335   0.650   2.286   7.076 -0.1026 -0.2402  0.1642
   46CHL1   H4A 3336   0.581   2.369   7.047  0.7062  0.5343  0.4132
   46CHL1   H4B 3337   0.613   2.194   7.025  1.8927 -1.4048  0.7329
   46CHL1    C5 3338   0.663   2.271   7.225  0.2218 -0.6923 -0.3390
   46CHL1    C6 3339   0.630   2.159   7.283  0.4544  0.1207 -0.1017
   46CHL1    H6 3340   0.570   2.092   7.220  1.1136  0.0639 -0.6842
   46CHL1    C7 3341   0.632   2.133   7.433 -0.5055 -1.3615  0.2348
   46CHL1   H7A 3342   0.535   2.094   7.470 -0.6178 -1.4805 -0.1823
   46CHL1   H7B 3343   0.706   2.053   7.452 -0.3362 -2.0619 -2.8660
   46CHL1    C8 3344   0.666   2.265   7.512 -0.1806  0.5839  0.1569
   46CHL1    H8 3345   0.574   2.328   7.509  0.4759  1.6826  1.6569
   46CHL1   C14 3346   0.697   2.237   7.662  0.5801 -0.7979 -0.0247
   46CHL1   H14 3347   0.792   2.181   7.650 -0.2912 -2.5427  0.8060
   46CHL1   C15 3348   0.602   2.148   7.742 -0.3622 -0.7192  0.5040
   46CHL1  H15A 3349   0.497   2.169   7.714  0.3157 -0.6930 -2.2867
   46CHL1  H15B 3350   0.628   2.041   7.726 -1.0638 -0.5604 -2.2544
   46CHL1   C16 3351   0.627   2.172   7.889 -0.4774 -0.1960 -0.4445
   46CHL1  H16A 3352   0.530   2.207   7.932 -1.3631 -0.9127 -1.8211
   46CHL1  H16B 3353   0.679   2.083   7.930  3.5863  1.8766 -0.6330
   46CHL1   C17 3354   0.734   2.291   7.889  0.6406  0.7895  0.3952
   46CHL1   H17 3355   0.835   2.244   7.884  1.2574  2.1953 -1.7675
   46CHL1   C13 3356   0.730   2.358   7.751 -0.8183 -0.0381  0.2432
   46CHL1   C18 3357   0.612   2.458   7.754 -0.0307 -0.2018  0.2168
   46CHL1  H18A 3358   0.650   2.553   7.799 -1.0336 -0.5361  1.8477
   46CHL1  H18B 3359   0.572   2.486   7.655 -0.0098  0.7492  0.4633
   46CHL1  H18C 3360   0.533   2.433   7.828  0.7041  1.5876  1.7027
   46CHL1   C12 3361   0.861   2.406   7.681 -0.1546  0.1305  0.4267
   46CHL1  H12A 3362   0.911   2.486   7.740 -1.2597  0.9010  0.3516
   46CHL1  H12B 3363   0.941   2.329   7.674  0.7097  1.1358 -1.9286
   46CHL1   C11 3364   0.835   2.449   7.536 -0.2709  0.6515 -0.1876
   46CHL1  H11A 3365   0.752   2.523   7.539 -2.5852 -1.8100 -0.1028
   46CHL1  H11B 3366   0.926   2.489   7.485  0.9211 -1.9792 -0.2847
   46CHL1    C9 3367   0.776   2.340   7.443 -0.8266 -0.4661  0.2924
   46CHL1    H9 3368   0.861   2.270   7.429 -0.9667 -0.3138 -1.5335
   46CHL1   C10 3369   0.741   2.384   7.300  0.1331 -0.0564  0.8683
   46CHL1   C19 3370   0.641   2.506   7.307  0.4448  0.3453  0.3353
   46CHL1  H19A 3371   0.613   2.532   7.202  0.4861 -0.4360  0.1278
   46CHL1  H19B 3372   0.548   2.479   7.362  0.8359  0.9994  1.3261
   46CHL1  H19C 3373   0.686   2.600   7.347  0.4870 -0.0362  1.1871
   46CHL1    C1 3374   0.867   2.429   7.215 -0.4786 -0.1451  0.2070
   46CHL1   H1A 3375   0.935   2.510   7.248  0.7965 -1.0695 -0.0340
   46CHL1   H1B 3376   0.937   2.343   7.224  1.5476  1.3603 -0.3005
   46CHL1    C2 3377   0.846   2.442   7.059 -0.2954 -0.0105 -0.0339
   46CHL1   H2A 3378   0.935   2.469   6.998 -2.0850  1.1565 -2.3154
   46CHL1   H2B 3379   0.772   2.523   7.039 -0.8278 -0.2517  0.9061
   46CHL1   C20 3380   0.745   2.373   8.016  0.4184 -0.1262 -0.4055
   46CHL1   H20 3381   0.664   2.447   8.036  1.6983  1.0700  0.5250
   46CHL1   C21 3382   0.874   2.463   8.016 -0.1840 -0.0595  0.4163
   46CHL1  H21A 3383   0.891   2.488   8.123 -1.2857  0.8665  0.3939
   46CHL1  H21B 3384   0.863   2.557   7.957 -0.0185  0.5846  1.3922
   46CHL1  H21C 3385   0.955   2.402   7.970  0.2552 -0.1673  1.3112
   46CHL1   C22 3386   0.750   2.276   8.143 -0.7153 -0.2522  0.1864
   46CHL1  H22A 3387   0.691   2.185   8.119  0.7652 -1.4228  0.8334
   46CHL1  H22B 3388   0.850   2.230   8.155 -1.3151 -1.2503  1.7630
   46CHL1   C23 3389   0.704   2.349   8.266 -0.8610  0.2601 -0.7817
   46CHL1  H23A 3390   0.739   2.297   8.358  0.2885  0.8310 -0.8703
   46CHL1  H23B 3391   0.746   2.451   8.284 -2.2932  0.3789  2.6913
   46CHL1   C24 3392   0.549   2.365   8.275  0.6196  0.4311 -0.2297
   46CHL1  H24A 3393   0.535   2.457   8.215  1.0988  1.5837  1.3714
   46CHL1  H24B 3394   0.494   2.278   8.233 -0.9889  0.8143  0.9692
   46CHL1   C25 3395   0.497   2.401   8.408 -0.2058 -0.1012 -0.6764
   46CHL1   H25 3396   0.520   2.314   8.474  0.9089 -0.4070 -1.4383
   46CHL1   C26 3397   0.582   2.524   8.464  0.1025  0.5828 -0.3529
   46CHL1  H26A 3398   0.686   2.487   8.480  0.0522 -0.3798 -1.9551
   46CHL1  H26B 3399   0.577   2.611   8.395  0.9577  1.8965  1.1880
   46CHL1  H26C 3400   0.530   2.545   8.560 -1.7207 -1.3061 -0.8361
   46CHL1   C27 3401   0.345   2.404   8.409  0.6879 -0.1645  0.0163
   46CHL1  H27A 3402   0.312   2.495   8.354 -1.0250 -1.0664 -0.5349
   46CHL1  H27B 3403   0.301   2.319   8.352 -3.4887  2.1013 -0.5763
   46CHL1  H27C 3404   0.302   2.413   8.511  0.2206 -0.0906 -0.1820
   47CHL1    C3 3405   6.506   1.874   6.560 -0.0184  0.2328  0.3628
   47CHL1    H3 3406   6.424   1.949   6.551 -2.4247 -2.0457  1.6584
   47CHL1    O3 3407   6.512   1.815   6.435  0.1726  0.5780 -0.2512
   47CHL1   H3' 3408   6.573   1.741   6.438 -1.7730 -1.0718  1.1301
   47CHL1    C4 3409   6.637   1.943   6.603 -0.6851  0.0276 -0.2900
   47CHL1   H4A 3410   6.712   1.862   6.609 -0.8996 -0.0782  1.6309
   47CHL1   H4B 3411   6.664   2.023   6.531  1.0758 -0.1990  0.0835
   47CHL1    C5 3412   6.616   1.998   6.751 -0.2460 -0.1574 -0.1231
   47CHL1    C6 3413   6.621   2.130   6.770 -0.0960  0.2811 -0.2601
   47CHL1    H6 3414   6.638   2.209   6.695  2.0145  1.0320  0.9133
   47CHL1    C7 3415   6.622   2.186   6.916 -0.0862  1.1030  0.1190
   47CHL1   H7A 3416   6.707   2.257   6.923  0.2608  0.8852 -1.4495
   47CHL1   H7B 3417   6.535   2.256   6.918 -0.8871  0.1490  2.8784
   47CHL1    C8 3418   6.628   2.084   7.032  0.3282  0.3881 -0.3976
   47CHL1    H8 3419   6.734   2.053   7.046 -0.0932 -0.7188  0.4902
   47CHL1   C14 3420   6.572   2.154   7.158  0.0990  0.6015 -0.8173
   47CHL1   H14 3421   6.470   2.182   7.123  0.1937  1.2142 -0.6129
   47CHL1   C15 3422   6.645   2.278   7.205  0.2399  0.3820  0.1083
   47CHL1  H15A 3423   6.755   2.263   7.195  0.3426  1.4789 -0.6189
   47CHL1  H15B 3424   6.610   2.358   7.137 -2.2564 -1.5718 -1.1068
   47CHL1   C16 3425   6.609   2.289   7.362 -0.1182  0.6523  0.3696
   47CHL1  H16A 3426   6.705   2.296   7.419 -0.0673  2.0514  0.1460
   47CHL1  H16B 3427   6.553   2.379   7.393 -0.4889  0.0915  1.3664
   47CHL1   C17 3428   6.515   2.161   7.389  0.0310  0.3871  0.6808
   47CHL1   H17 3429   6.412   2.199   7.373 -0.1938  0.0173  1.2078
   47CHL1   C13 3430   6.556   2.065   7.284 -0.0967 -0.5357  0.9692
   47CHL1   C18 3431   6.699   2.012   7.320  0.3903 -0.1965 -0.2331
   47CHL1  H18A 3432   6.762   2.094   7.360 -2.5553  0.9712  2.3820
   47CHL1  H18B 3433   6.688   1.939   7.403 -0.2312 -0.2466 -0.3532
   47CHL1  H18C 3434   6.741   1.953   7.235  3.0441 -0.6653  1.2845
   47CHL1   C12 3435   6.452   1.948   7.243  0.3278  1.1425 -0.1583
   47CHL1  H12A 3436   6.425   1.877   7.325 -1.7873  1.0351 -0.8809
   47CHL1  H12B 3437   6.361   2.008   7.220  0.6868  2.1011  0.8285
   47CHL1   C11 3438   6.494   1.878   7.108  0.1718  0.0428  1.0909
   47CHL1  H11A 3439   6.579   1.815   7.141 -1.0370 -1.4428  1.5378
   47CHL1  H11B 3440   6.412   1.807   7.079 -1.1892  0.1879  4.2306
   47CHL1    C9 3441   6.533   1.965   6.992  0.0846  0.0012  0.0996
   47CHL1    H9 3442   6.431   2.002   6.967  0.3908  0.8440  0.0772
   47CHL1   C10 3443   6.571   1.893   6.856 -1.0502 -0.1600 -0.0869
   47CHL1   C19 3444   6.686   1.794   6.884 -0.3140  0.1653 -0.1824
   47CHL1  H19A 3445   6.709   1.724   6.801 -0.0609 -1.6044  1.3139
   47CHL1  H19B 3446   6.771   1.849   6.929 -2.1328  2.5785  0.5278
   47CHL1  H19C 3447   6.657   1.715   6.956  2.1387  0.3997  1.1754
   47CHL1    C1 3448   6.448   1.817   6.801  0.4024 -0.2280  0.3080
   47CHL1   H1A 3449   6.423   1.734   6.870  0.9164 -0.3630  0.3359
   47CHL1   H1B 3450   6.361   1.886   6.791  0.6499  0.5685  2.8927
   47CHL1    C2 3451   6.469   1.760   6.661 -0.1576 -0.4883  0.4881
   47CHL1   H2A 3452   6.371   1.715   6.635  0.2498 -0.9230 -0.3520
   47CHL1   H2B 3453   6.551   1.685   6.653  0.2438  0.0924 -1.3017
   47CHL1   C20 3454   6.528   2.109   7.531  0.5348 -0.6121 -0.2283
   47CHL1   H20 3455   6.638   2.103   7.550  0.7766 -0.7573 -1.5867
   47CHL1   C21 3456   6.455   1.973   7.566 -0.6851 -0.2584 -0.2597
   47CHL1  H21A 3457   6.348   1.986   7.538 -0.7249 -0.7391 -0.3370
   47CHL1  H21B 3458   6.456   1.960   7.676 -2.9137 -0.6517 -0.2380
   47CHL1  H21C 3459   6.505   1.887   7.518  1.6262  1.1013 -0.4347
   47CHL1   C22 3460   6.481   2.217   7.638 -0.1943  0.6336  0.8557
   47CHL1  H22A 3461   6.471   2.314   7.584 -1.8586 -0.6760 -1.3986
   47CHL1  H22B 3462   6.382   2.177   7.670 -1.7661  0.6229 -3.3539
   47CHL1   C23 3463   6.580   2.239   7.753 -0.4285 -0.6678 -0.4512
   47CHL1  H23A 3464   6.536   2.178   7.834 -1.7229 -0.2787 -0.8501
   47CHL1  H23B 3465   6.685   2.207   7.734 -0.8296 -2.1329 -0.3208
   47CHL1   C24 3466   6.579   2.389   7.808  0.2428 -0.2696 -0.0739
   47CHL1  H24A 3467   6.604   2.450   7.719 -1.5401 -0.3604 -0.6733
   47CHL1  H24B 3468   6.479   2.428   7.834  0.2639 -0.2156 -0.0718
   47CHL1   C25 3469   6.669   2.417   7.932  0.3391  0.2471 -0.0038
   47CHL1   H25 3470   6.774   2.395   7.904  1.1743 -0.1363  3.0236
   47CHL1   C26 3471   6.663   2.564   7.965 -0.3727  0.6195 -0.8230
   47CHL1  H26A 3472   6.564   2.587   8.012  0.3342 -2.2932  2.5946
   47CHL1  H26B 3473   6.745   2.590   8.035 -0.1238 -0.5372 -0.6589
   47CHL1  H26C 3474   6.683   2.614   7.868 -2.3254  1.6391 -0.7593
   47CHL1   C27 3475   6.652   2.343   8.062 -0.2841  0.2240  0.8498
   47CHL1  H27A 3476   6.558   2.352   8.119 -1.7416 -1.2431 -1.1603
   47CHL1  H27B 3477   6.659   2.236   8.031 -2.0173  0.2382  0.2884
   47CHL1  H27C 3478   6.741   2.362   8.126 -0.8831 -0.8964  2.0654
   48CHL1    C3 3479   4.609   3.015   6.458 -0.4243 -0.2630  0.0932
   48CHL1    H3 3480   4.576   2.912   6.430  0.2507 -1.0009  1.8917
   48CHL1    O3 3481   4.660   3.078   6.339 -0.4106  0.0599  0.2511
   48CHL1   H3' 3482   4.580   3.094   6.288 -1.0442  1.8572  1.6589
   48CHL1    C4 3483   4.491   3.096   6.514  0.4608 -0.5844 -0.6089
   48CHL1   H4A 3484   4.536   3.196   6.527  1.9766 -1.4132  0.8831
   48CHL1   H4B 3485   4.403   3.109   6.448 -1.4866 -0.4711  1.8294
   48CHL1    C5 3486   4.448   3.035   6.645  0.1284  0.7995 -0.7458
   48CHL1    C6 3487   4.322   2.991   6.667 -0.6603 -0.9170 -0.7252
   48CHL1    H6 3488   4.246   3.005   6.588 -2.2903  2.6918  1.2267
   48CHL1    C7 3489   4.272   2.946   6.801  0.3017  0.1574 -0.4357
   48CHL1   H7A 3490   4.179   2.997   6.835 -0.1870 -0.9702 -0.0503
   48CHL1   H7B 3491   4.268   2.835   6.802  3.3564 -0.0475 -0.6521
   48CHL1    C8 3492   4.363   2.974   6.921 -0.5998 -0.1883 -0.2133
   48CHL1    H8 3493   4.366   3.083   6.940 -2.3167  0.6263 -3.9180
   48CHL1   C14 3494   4.317   2.895   7.040  0.1852  0.3693 -0.5453
   48CHL1   H14 3495   4.316   2.787   7.014  0.4236  0.4731 -0.9809
   48CHL1   C15 3496   4.176   2.919   7.091  1.0850  0.6270 -0.9164
   48CHL1  H15A 3497   4.139   3.023   7.077 -1.3647 -0.2059 -1.2618
   48CHL1  H15B 3498   4.104   2.869   7.022 -0.5064  1.2116  0.2665
   48CHL1   C16 3499   4.175   2.860   7.236 -0.6248  0.2564  0.4627
   48CHL1  H16A 3500   4.139   2.934   7.311 -0.9713 -0.9420  1.4997
   48CHL1  H16B 3501   4.106   2.773   7.237  0.2662 -0.5724 -1.8818
   48CHL1   C17 3502   4.325   2.815   7.264  0.1076 -0.0855  0.0141
   48CHL1   H17 3503   4.330   2.710   7.227 -1.4333  0.0049 -0.5538
   48CHL1   C13 3504   4.403   2.899   7.165 -0.0117  0.2333 -0.7198
   48CHL1   C18 3505   4.409   3.047   7.212  0.0563 -0.2833 -0.3756
   48CHL1  H18A 3506   4.444   3.110   7.128 -0.1056 -1.6920 -1.5384
   48CHL1  H18B 3507   4.309   3.076   7.250  1.0500  2.3614  0.4493
   48CHL1  H18C 3508   4.482   3.060   7.295  0.5514 -1.0877 -0.6674
   48CHL1   C12 3509   4.542   2.845   7.113  0.4161  0.0232 -0.0129
   48CHL1  H12A 3510   4.613   2.862   7.197 -0.5709  0.8752  0.6651
   48CHL1  H12B 3511   4.532   2.736   7.089 -1.2385 -0.3720  2.1685
   48CHL1   C11 3512   4.599   2.928   6.999 -0.7575 -0.5193 -0.1841
   48CHL1  H11A 3513   4.597   3.029   7.045 -0.6027 -0.8773  0.6339
   48CHL1  H11B 3514   4.705   2.900   6.980 -1.0632 -1.1960 -0.9532
   48CHL1    C9 3515   4.507   2.933   6.873  0.0606  0.0537 -0.2196
   48CHL1    H9 3516   4.510   2.825   6.847 -0.2448 -0.1420  0.5254
   48CHL1   C10 3517   4.555   3.017   6.753 -0.2066  0.3851  0.0448
   48CHL1   C19 3518   4.591   3.164   6.792 -0.5575 -0.2681  0.1785
   48CHL1  H19A 3519   4.656   3.167   6.883  1.3921  1.6195 -1.2013
   48CHL1  H19B 3520   4.647   3.218   6.713 -2.8511  0.9576 -0.6915
   48CHL1  H19C 3521   4.502   3.221   6.826  1.1395  1.0057  2.8918
   48CHL1    C1 3522   4.679   2.942   6.679 -0.0785 -0.8709  0.7344
   48CHL1   H1A 3523   4.763   2.952   6.751 -0.2998 -1.3164  1.0566
   48CHL1   H1B 3524   4.649   2.836   6.668 -3.6281  0.1300 -0.4029
   48CHL1    C2 3525   4.729   3.004   6.551 -0.2228 -0.1071 -0.1338
   48CHL1   H2A 3526   4.809   2.936   6.514 -1.2651 -1.7275  0.4780
   48CHL1   H2B 3527   4.781   3.099   6.575  2.5575 -1.7330  0.7510
   48CHL1   C20 3528   4.374   2.825   7.410 -0.5695 -0.3698  0.4847
   48CHL1   H20 3529   4.346   2.920   7.461 -0.7228 -0.4403  0.5310
   48CHL1   C21 3530   4.532   2.803   7.422  0.4181 -0.0614  0.4029
   48CHL1  H21A 3531   4.585   2.896   7.393 -1.5951  1.3741  1.0947
   48CHL1  H21B 3532   4.567   2.711   7.370  1.1377 -0.2778  1.2457
   48CHL1  H21C 3533   4.562   2.788   7.528 -0.0617 -2.9973  0.2264
   48CHL1   C22 3534   4.294   2.719   7.488  0.3856  0.0706  0.0231
   48CHL1  H22A 3535   4.184   2.721   7.470 -0.5047 -3.6257  3.5434
   48CHL1  H22B 3536   4.319   2.618   7.450 -0.0247  0.3965 -1.1587
   48CHL1   C23 3537   4.308   2.728   7.642 -0.2517  0.0624  0.7045
   48CHL1  H23A 3538   4.236   2.659   7.691 -0.7307  0.1835  0.1775
   48CHL1  H23B 3539   4.407   2.697   7.682  0.2979 -1.0566 -1.3613
   48CHL1   C24 3540   4.267   2.855   7.704 -0.4425  0.3090  0.2775
   48CHL1  H24A 3541   4.340   2.932   7.670 -0.8058  0.8532  0.7145
   48CHL1  H24B 3542   4.166   2.889   7.672 -0.4475  1.6600  1.5899
   48CHL1   C25 3543   4.265   2.852   7.861 -0.4026 -0.0395 -0.6364
   48CHL1   H25 3544   4.195   2.776   7.901 -0.6819  1.1101  1.1929
   48CHL1   C26 3545   4.400   2.818   7.920 -0.3110  0.4663 -0.1121
   48CHL1  H26A 3546   4.474   2.891   7.882 -0.3789  0.9974  0.7552
   48CHL1  H26B 3547   4.406   2.826   8.031 -0.5482  1.8848 -0.1779
   48CHL1  H26C 3548   4.433   2.718   7.885  0.1218  0.9763 -1.2180
   48CHL1   C27 3549   4.226   2.986   7.915  0.0433 -0.8905  0.2586
   48CHL1  H27A 3550   4.196   2.992   8.022  0.5867 -3.0433  0.5721
   48CHL1  H27B 3551   4.311   3.056   7.901 -0.5292 -0.6224 -2.5492
   48CHL1  H27C 3552   4.139   3.022   7.855 -0.0318 -1.2278  0.1662
   49CHL1    C3 3553   2.439   6.537   6.403  0.5120 -0.3772 -0.4918
   49CHL1    H3 3554   2.438   6.431   6.437 -1.7836 -0.5475 -0.9370
   49CHL1    O3 3555   2.386   6.548   6.271 -0.3845  0.2408 -0.4218
   49CHL1   H3' 3556   2.291   6.539   6.273 -0.3076 -1.7047 -2.2663
   49CHL1    C4 3557   2.346   6.629   6.488 -0.3048  0.0810 -0.0575
   49CHL1   H4A 3558   2.362   6.732   6.450 -1.1167  0.5897  0.9641
   49CHL1   H4B 3559   2.240   6.596   6.481  0.1966 -1.3714 -1.6073
   49CHL1    C5 3560   2.379   6.632   6.635  0.2268 -0.6726  0.0864
   49CHL1    C6 3561   2.294   6.580   6.726  0.3104 -0.0098  0.0699
   49CHL1    H6 3562   2.193   6.542   6.707  0.1957  0.1560  0.3470
   49CHL1    C7 3563   2.330   6.587   6.874  0.3334  0.5455 -0.1478
   49CHL1   H7A 3564   2.238   6.627   6.922 -0.1673  0.7212 -1.2352
   49CHL1   H7B 3565   2.335   6.484   6.917 -4.0451  0.6671  1.2032
   49CHL1    C8 3566   2.456   6.674   6.904  0.1907 -0.4783  0.3509
   49CHL1    H8 3567   2.417   6.778   6.900  1.6065  0.0795  0.3387
   49CHL1   C14 3568   2.497   6.636   7.046  0.4087  0.1500 -0.4575
   49CHL1   H14 3569   2.524   6.529   7.035 -0.7812 -0.2761  0.5144
   49CHL1   C15 3570   2.395   6.647   7.158 -0.4768 -0.4497  0.1057
   49CHL1  H15A 3571   2.331   6.737   7.144  0.4004  0.2229  0.2985
   49CHL1  H15B 3572   2.325   6.561   7.158 -0.7583 -0.2270 -0.5978
   49CHL1   C16 3573   2.482   6.649   7.285 -0.1448 -0.3303  0.2476
   49CHL1  H16A 3574   2.455   6.726   7.360  1.6283 -0.7766  1.3994
   49CHL1  H16B 3575   2.474   6.548   7.329  3.2688 -1.0939 -0.6282
   49CHL1   C17 3576   2.624   6.664   7.239 -0.0034  0.3040 -0.0148
   49CHL1   H17 3577   2.665   6.561   7.236 -0.3968  0.1614 -1.9619
   49CHL1   C13 3578   2.623   6.710   7.091  0.2861 -0.2120  0.0973
   49CHL1   C18 3579   2.597   6.868   7.088  0.7087 -0.5514 -0.5652
   49CHL1  H18A 3580   2.503   6.881   7.145  0.7265 -2.4425 -0.0516
   49CHL1  H18B 3581   2.680   6.927   7.134  0.5944 -0.6267 -0.2670
   49CHL1  H18C 3582   2.567   6.905   6.987 -1.6523 -0.2608  0.1921
   49CHL1   C12 3583   2.738   6.673   6.990  0.8714 -0.2111  0.1194
   49CHL1  H12A 3584   2.835   6.724   7.008 -0.4617  1.4049  3.7795
   49CHL1  H12B 3585   2.758   6.565   7.004  2.6818 -0.1754 -1.7608
   49CHL1   C11 3586   2.705   6.709   6.847  0.9591  0.1317 -0.3334
   49CHL1  H11A 3587   2.709   6.820   6.842 -1.2781  0.6906  4.3009
   49CHL1  H11B 3588   2.784   6.670   6.779  2.2733  0.9409  0.6890
   49CHL1    C9 3589   2.566   6.647   6.802 -0.1993 -0.4951 -0.1412
   49CHL1    H9 3590   2.576   6.536   6.811 -3.2168 -0.7897  0.6567
   49CHL1   C10 3591   2.526   6.679   6.659 -0.3281  0.9669 -0.4695
   49CHL1   C19 3592   2.526   6.837   6.641  0.0623 -0.0134 -0.6432
   49CHL1  H19A 3593   2.455   6.875   6.564 -2.2325 -0.0115  1.3531
   49CHL1  H19B 3594   2.486   6.891   6.729 -2.1377  1.3703 -2.3800
   49CHL1  H19C 3595   2.629   6.877   6.626 -0.7760  3.0998  1.1212
   49CHL1    C1 3596   2.621   6.603   6.551  0.0931  0.1319 -0.1959
   49CHL1   H1A 3597   2.719   6.656   6.555  2.2556 -3.5318  0.2751
   49CHL1   H1B 3598   2.624   6.496   6.581 -1.9823 -0.1616 -0.9002
   49CHL1    C2 3599   2.580   6.602   6.406 -0.2979  0.1659  0.0179
   49CHL1   H2A 3600   2.646   6.540   6.342  2.2326  0.0767  2.5239
   49CHL1   H2B 3601   2.572   6.704   6.362 -0.8154  0.8071  1.5225
   49CHL1   C20 3602   2.702   6.747   7.351 -0.2588  0.8026 -0.3470
   49CHL1   H20 3603   2.666   6.852   7.360  1.5090  1.3221  1.3867
   49CHL1   C21 3604   2.846   6.753   7.311  0.0793 -0.1315 -0.4068
   49CHL1  H21A 3605   2.865   6.821   7.224 -1.2191 -0.6651 -1.1395
   49CHL1  H21B 3606   2.879   6.650   7.288  1.5751 -0.0864  1.3468
   49CHL1  H21C 3607   2.906   6.781   7.400  1.0178  1.1600 -1.3928
   49CHL1   C22 3608   2.694   6.683   7.492 -0.0679  0.5734  0.7783
   49CHL1  H22A 3609   2.589   6.652   7.511 -0.3365  1.4792  0.8217
   49CHL1  H22B 3610   2.751   6.588   7.491 -2.8459 -1.2103 -0.9113
   49CHL1   C23 3611   2.731   6.783   7.609 -0.1921  0.6313 -0.0217
   49CHL1  H23A 3612   2.838   6.806   7.592 -0.4029  1.2771 -0.5166
   49CHL1  H23B 3613   2.676   6.877   7.585  1.3388  1.0516 -2.0883
   49CHL1   C24 3614   2.685   6.748   7.751 -0.7626  0.0018 -0.5773
   49CHL1  H24A 3615   2.702   6.839   7.812  1.0381  0.3693 -1.5847
   49CHL1  H24B 3616   2.574   6.740   7.746 -0.6124 -2.9399 -1.1247
   49CHL1   C25 3617   2.737   6.615   7.818  0.5551  0.2674 -0.2520
   49CHL1   H25 3618   2.701   6.525   7.764  1.5552 -0.7102  0.6673
   49CHL1   C26 3619   2.883   6.621   7.804 -0.2871  0.2829  0.5845
   49CHL1  H26A 3620   2.934   6.541   7.861 -2.7971 -0.5247  1.8942
   49CHL1  H26B 3621   2.913   6.632   7.698  0.3206  0.9790  0.8182
   49CHL1  H26C 3622   2.927   6.707   7.859  0.3338  2.1869 -2.6279
   49CHL1   C27 3623   2.701   6.593   7.974 -0.2734 -0.4422  0.2560
   49CHL1  H27A 3624   2.693   6.692   8.025 -0.0719 -0.6346  0.6614
   49CHL1  H27B 3625   2.602   6.543   7.973 -0.0107 -0.9613  0.2296
   49CHL1  H27C 3626   2.770   6.523   8.024  3.0045  1.4450 -1.3217
   50CHL1    C3 3627   2.850   0.515   6.703  0.1298  0.0558  0.1993
   50CHL1    H3 3628   2.953   0.556   6.704  0.2710 -0.2889  1.6869
   50CHL1    O3 3629   2.815   0.516   6.563 -0.4398  0.0524 -0.1021
   50CHL1   H3' 3630   2.727   0.479   6.560  0.2299 -1.5563 -1.2209
   50CHL1    C4 3631   2.851   0.368   6.755  0.1220 -0.0863 -0.5184
   50CHL1   H4A 3632   2.746   0.335   6.735 -0.4495  1.9510 -1.1118
   50CHL1   H4B 3633   2.924   0.314   6.691  1.6805  0.9549  0.3213
   50CHL1    C5 3634   2.881   0.374   6.908  0.8358  0.4352  0.3348
   50CHL1    C6 3635   2.987   0.306   6.959 -0.8014 -0.2263  0.6950
   50CHL1    H6 3636   3.052   0.236   6.905  0.6320  1.4499  0.1634
   50CHL1    C7 3637   3.020   0.311   7.104 -0.1740  0.4462  0.4675
   50CHL1   H7A 3638   3.052   0.214   7.146 -2.3641 -0.0286  1.1619
   50CHL1   H7B 3639   3.111   0.375   7.109 -0.1554  1.0503 -3.8011
   50CHL1    C8 3640   2.908   0.368   7.196  0.5580 -0.1222 -1.0821
   50CHL1    H8 3641   2.832   0.287   7.202  0.9911 -0.4407  0.4048
   50CHL1   C14 3642   2.949   0.393   7.342  0.1693  0.2066  0.0036
   50CHL1   H14 3643   3.034   0.465   7.336  1.4296 -1.1800  0.6498
   50CHL1   C15 3644   3.020   0.262   7.407  0.5363 -0.6922 -0.0669
   50CHL1  H15A 3645   2.950   0.178   7.388  0.9895 -1.0795 -0.0608
   50CHL1  H15B 3646   3.124   0.241   7.373  0.7981 -0.8257  0.7887
   50CHL1   C16 3647   3.019   0.309   7.558 -0.3809  0.6682  0.0762
   50CHL1  H16A 3648   2.998   0.223   7.624  1.1832 -1.8069 -2.3919
   50CHL1  H16B 3649   3.115   0.359   7.581 -1.3017  1.9962  1.1421
   50CHL1   C17 3650   2.917   0.428   7.569  0.2425 -0.2868 -0.3629
   50CHL1   H17 3651   2.983   0.515   7.588  2.7117 -2.0707 -0.3340
   50CHL1   C13 3652   2.840   0.438   7.435  0.5332  0.4396 -0.2036
   50CHL1   C18 3653   2.721   0.337   7.444 -0.2028  0.4112  0.1767
   50CHL1  H18A 3654   2.637   0.366   7.511 -0.7554  1.0824 -0.7743
   50CHL1  H18B 3655   2.670   0.324   7.346 -1.1662 -2.8877  1.0162
   50CHL1  H18C 3656   2.752   0.233   7.468 -1.8010  0.0700  0.8518
   50CHL1   C12 3657   2.799   0.573   7.377 -0.1288  0.4319 -0.3513
   50CHL1  H12A 3658   2.728   0.626   7.445 -1.2117  1.7727 -2.4116
   50CHL1  H12B 3659   2.882   0.646   7.383  0.9432 -0.7150 -0.8209
   50CHL1   C11 3660   2.742   0.565   7.233  0.5630  0.0290 -0.5712
   50CHL1  H11A 3661   2.650   0.505   7.251  0.5874  0.7573  2.3370
   50CHL1  H11B 3662   2.710   0.665   7.195 -2.6183  0.4772  2.7633
   50CHL1    C9 3663   2.844   0.492   7.133 -0.2663  0.5762 -0.1754
   50CHL1    H9 3664   2.934   0.557   7.142 -0.4810  0.8713 -0.1515
   50CHL1   C10 3665   2.787   0.474   6.989  0.3092 -0.8546 -0.6190
   50CHL1   C19 3666   2.647   0.408   6.998 -0.1231 -0.0577  0.4189
   50CHL1  H19A 3667   2.600   0.363   6.909 -2.1298 -1.4097  2.0788
   50CHL1  H19B 3668   2.636   0.341   7.086 -1.9693  0.4320  0.5920
   50CHL1  H19C 3669   2.572   0.486   7.021 -1.8863 -0.5967 -2.9370
   50CHL1    C1 3670   2.782   0.619   6.926  1.0443  0.7154  0.8399
   50CHL1   H1A 3671   2.718   0.694   6.977 -1.6012 -0.6311 -0.3264
   50CHL1   H1B 3672   2.886   0.656   6.917  2.1027 -2.2252 -0.3140
   50CHL1    C2 3673   2.748   0.602   6.776  0.5165  0.4921 -0.3269
   50CHL1   H2A 3674   2.750   0.698   6.720 -0.5074 -0.9606 -3.0384
   50CHL1   H2B 3675   2.643   0.565   6.777 -0.6443  3.5074  0.5034
   50CHL1   C20 3676   2.832   0.434   7.704  0.2944  0.0171  0.4534
   50CHL1   H20 3677   2.751   0.359   7.688  0.7131 -0.6925  1.5565
   50CHL1   C21 3678   2.773   0.577   7.727  0.4350  0.2600  0.1881
   50CHL1  H21A 3679   2.710   0.607   7.641 -0.7968 -0.6992  0.7270
   50CHL1  H21B 3680   2.858   0.648   7.735 -0.9255  1.8418  1.2484
   50CHL1  H21C 3681   2.705   0.585   7.815 -0.8890  0.8158 -0.8560
   50CHL1   C22 3682   2.903   0.388   7.835  0.2004 -0.3739 -0.1627
   50CHL1  H22A 3683   3.011   0.369   7.817  0.5105  1.6946 -0.7263
   50CHL1  H22B 3684   2.894   0.467   7.913 -0.2416  0.6367 -1.1969
   50CHL1   C23 3685   2.857   0.259   7.888  0.0922 -0.8222  0.1513
   50CHL1  H23A 3686   2.748   0.256   7.906 -0.0465  2.3450  0.5514
   50CHL1  H23B 3687   2.886   0.184   7.812  2.3090 -0.4556  0.5685
   50CHL1   C24 3688   2.943   0.219   8.020  0.0918  0.1538  0.2383
   50CHL1  H24A 3689   3.050   0.205   7.994 -0.0443 -1.7414  0.6032
   50CHL1  H24B 3690   2.948   0.310   8.084 -0.4516  0.9678 -0.8348
   50CHL1   C25 3691   2.882   0.106   8.101 -0.5748 -0.6845  0.7951
   50CHL1   H25 3692   2.866   0.022   8.030  0.0934  1.8521 -2.5768
   50CHL1   C26 3693   2.977   0.045   8.207  0.2121 -0.3598 -0.1798
   50CHL1  H26A 3694   2.941  -0.054   8.243 -0.2429  1.1698  4.0070
   50CHL1  H26B 3695   3.080   0.031   8.166 -1.0218 -2.6473 -2.8807
   50CHL1  H26C 3696   2.976   0.115   8.293  1.4439 -0.4713 -0.0497
   50CHL1   C27 3697   2.750   0.149   8.160  0.7569  0.2535 -0.4182
   50CHL1  H27A 3698   2.771   0.245   8.213 -0.5565  2.0642 -2.9541
   50CHL1  H27B 3699   2.668   0.171   8.089 -0.3934  1.9713  1.3371
   50CHL1  H27C 3700   2.707   0.079   8.234 -2.1237  1.9048 -0.3632
   51CHL1    C3 3701   3.297   5.664   6.654 -0.2548  0.4634  0.3577
   51CHL1    H3 3702   3.224   5.581   6.644 -0.7606  0.8532  0.7552
   51CHL1    O3 3703   3.347   5.703   6.526 -0.3536  0.1320 -0.3614
   51CHL1   H3' 3704   3.420   5.759   6.554 -0.1617 -0.1394 -0.3195
   51CHL1    C4 3705   3.220   5.786   6.696  0.2456 -0.0386  0.6120
   51CHL1   H4A 3706   3.270   5.878   6.660 -2.2360  0.5027 -1.8698
   51CHL1   H4B 3707   3.127   5.778   6.635 -0.0427 -0.2472  1.0662
   51CHL1    C5 3708   3.182   5.776   6.843 -0.4271  0.0578  0.1301
   51CHL1    C6 3709   3.057   5.792   6.877 -0.5958  0.7115  0.2305
   51CHL1    H6 3710   2.990   5.831   6.799 -1.0920 -1.7287 -0.6589
   51CHL1    C7 3711   3.005   5.792   7.023 -0.2558 -0.7402 -0.0071
   51CHL1   H7A 3712   2.932   5.873   7.043  2.2608  1.7407 -0.2796
   51CHL1   H7B 3713   2.960   5.692   7.043 -0.5508 -0.9299 -1.5362
   51CHL1    C8 3714   3.123   5.807   7.122 -0.4216 -0.2844 -0.0172
   51CHL1    H8 3715   3.149   5.915   7.116 -0.2313 -0.2046  1.8020
   51CHL1   C14 3716   3.085   5.763   7.261 -0.2735  0.4383 -0.1876
   51CHL1   H14 3717   3.067   5.653   7.255 -0.0355  0.4138 -0.4695
   51CHL1   C15 3718   2.961   5.828   7.319  0.0020  0.3103  0.1378
   51CHL1  H15A 3719   2.959   5.934   7.288  0.9522  0.2723 -0.0837
   51CHL1  H15B 3720   2.863   5.804   7.272  1.2486 -1.9588 -1.4959
   51CHL1   C16 3721   2.981   5.818   7.471  0.4702  0.5308 -0.9469
   51CHL1  H16A 3722   2.984   5.923   7.508 -0.8128  0.2942 -0.1034
   51CHL1  H16B 3723   2.894   5.767   7.518 -1.4580  3.2034 -1.3684
   51CHL1   C17 3724   3.110   5.744   7.493  0.1832 -0.3380 -0.5265
   51CHL1   H17 3725   3.078   5.638   7.478 -3.0315  0.6299 -1.2445
   51CHL1   C13 3726   3.197   5.774   7.369  0.0664 -0.0149 -0.1650
   51CHL1   C18 3727   3.248   5.927   7.377  0.4692  0.2445  0.2722
   51CHL1  H18A 3728   3.279   5.957   7.275 -1.0532 -0.1431 -0.3331
   51CHL1  H18B 3729   3.175   5.999   7.420  0.6865  0.0415  0.9937
   51CHL1  H18C 3730   3.334   5.943   7.445  0.9115  1.8707 -0.6296
   51CHL1   C12 3731   3.304   5.669   7.327  0.7776 -0.4618  0.0275
   51CHL1  H12A 3732   3.388   5.684   7.398  1.7880  0.4482 -1.3228
   51CHL1  H12B 3733   3.259   5.567   7.322  0.5103 -0.2971 -2.5337
   51CHL1   C11 3734   3.359   5.712   7.189  0.1767 -0.0614  0.3720
   51CHL1  H11A 3735   3.405   5.813   7.204 -1.3491  0.6782  0.2923
   51CHL1  H11B 3736   3.428   5.633   7.155 -3.3764 -2.3469 -2.2287
   51CHL1    C9 3737   3.250   5.713   7.082  0.0349 -0.6917 -0.3432
   51CHL1    H9 3738   3.214   5.608   7.078  3.0734 -1.7883 -1.6858
   51CHL1   C10 3739   3.299   5.741   6.944  0.8019 -0.5622  0.5067
   51CHL1   C19 3740   3.391   5.871   6.938  0.2523  0.4202  0.4370
   51CHL1  H19A 3741   3.492   5.840   6.971 -0.7714 -2.5495  1.1122
   51CHL1  H19B 3742   3.402   5.923   6.841  2.5532 -0.0621  0.3827
   51CHL1  H19C 3743   3.349   5.948   7.007 -0.4930  0.0887  0.3687
   51CHL1    C1 3744   3.374   5.615   6.888 -0.2118 -0.1710  0.2375
   51CHL1   H1A 3745   3.464   5.593   6.949  1.5349  3.5550 -0.7116
   51CHL1   H1B 3746   3.305   5.529   6.902 -1.5729  1.3359  3.8927
   51CHL1    C2 3747   3.412   5.625   6.738  0.4777  0.2161 -0.4758
   51CHL1   H2A 3748   3.459   5.537   6.690  0.7890 -0.3030  0.7530
   51CHL1   H2B 3749   3.474   5.717   6.737  0.3766  0.3016  0.3758
   51CHL1   C20 3750   3.167   5.767   7.638 -0.1936 -0.0196  0.3470
   51CHL1   H20 3751   3.172   5.878   7.650 -0.6509  0.3210 -2.0771
   51CHL1   C21 3752   3.308   5.708   7.662 -0.4997 -0.8883  0.2817
   51CHL1  H21A 3753   3.303   5.598   7.643 -0.6857 -0.5426 -2.0107
   51CHL1  H21B 3754   3.334   5.733   7.767 -0.1526  1.1147 -0.2350
   51CHL1  H21C 3755   3.391   5.742   7.596 -0.6837 -0.2724  0.3690
   51CHL1   C22 3756   3.083   5.718   7.755 -0.1587 -0.1483 -0.1411
   51CHL1  H22A 3757   2.977   5.702   7.728 -0.8125 -0.2085  2.1818
   51CHL1  H22B 3758   3.114   5.615   7.782 -0.4701 -0.9287 -2.5231
   51CHL1   C23 3759   3.104   5.803   7.881 -0.2248 -0.0701 -0.0655
   51CHL1  H23A 3760   3.203   5.784   7.929  0.2083 -0.7076 -1.1744
   51CHL1  H23B 3761   3.087   5.910   7.856 -2.2347 -0.5022 -0.6851
   51CHL1   C24 3762   3.001   5.767   7.990  0.2865 -0.1354  0.7185
   51CHL1  H24A 3763   2.901   5.776   7.942  0.5801  2.2220  0.4172
   51CHL1  H24B 3764   3.020   5.658   8.002 -0.5560 -0.6099 -1.7011
   51CHL1   C25 3765   3.022   5.846   8.121 -0.0270 -1.0362  0.8229
   51CHL1   H25 3766   3.125   5.838   8.162  0.1702 -0.9572  0.3574
   51CHL1   C26 3767   2.983   5.997   8.106 -0.3867  0.1771 -0.3775
   51CHL1  H26A 3768   2.994   6.046   8.205  0.9885  0.2098 -0.5315
   51CHL1  H26B 3769   3.062   6.049   8.047 -0.4247  0.6847  0.0161
   51CHL1  H26C 3770   2.884   6.019   8.060  0.2596  0.9204 -1.4829
   51CHL1   C27 3771   2.940   5.776   8.228 -0.0113 -1.1974 -0.8289
   51CHL1  H27A 3772   2.832   5.766   8.203  0.1167  0.2250 -2.0246
   51CHL1  H27B 3773   2.970   5.671   8.250  1.4474 -0.8168 -0.9195
   51CHL1  H27C 3774   2.956   5.830   8.324  1.4714 -0.6162 -1.3892
   52CHL1    C3 3775   5.567   6.517   6.835  0.1321 -0.1608 -0.9107
   52CHL1    H3 3776   5.619   6.420   6.845 -0.0793 -0.2514 -0.6822
   52CHL1    O3 3777   5.559   6.564   6.702  0.5957  0.4715  0.0663
   52CHL1   H3' 3778   5.542   6.658   6.696  2.5054  0.7826 -1.6049
   52CHL1    C4 3779   5.424   6.499   6.892  0.0588  0.8091 -0.3093
   52CHL1   H4A 3780   5.359   6.588   6.877  0.3537  0.8788 -1.2355
   52CHL1   H4B 3781   5.381   6.417   6.830 -0.1323  1.2030 -0.7074
   52CHL1    C5 3782   5.414   6.476   7.041 -0.6417  0.1493  0.0876
   52CHL1    C6 3783   5.352   6.367   7.084 -0.7185  0.4681  0.0134
   52CHL1    H6 3784   5.312   6.294   7.012  1.5268 -2.1099  1.1628
   52CHL1    C7 3785   5.340   6.330   7.231 -0.4318  0.0864 -0.6006
   52CHL1   H7A 3786   5.234   6.306   7.253 -0.9275  0.9085 -1.9602
   52CHL1   H7B 3787   5.399   6.239   7.253 -2.8010 -1.1458  1.1386
   52CHL1    C8 3788   5.390   6.438   7.333  0.2452  0.1308  0.2559
   52CHL1    H8 3789   5.315   6.521   7.337 -0.5753 -0.4555 -1.7151
   52CHL1   C14 3790   5.415   6.378   7.470  0.0714 -0.0993 -0.2899
   52CHL1   H14 3791   5.499   6.309   7.446 -0.6726 -1.4842  0.9425
   52CHL1   C15 3792   5.314   6.275   7.533  0.3011 -0.8291 -0.7815
   52CHL1  H15A 3793   5.209   6.312   7.537  0.4790 -0.3930  1.6998
   52CHL1  H15B 3794   5.310   6.174   7.487 -2.8826 -0.9944 -0.3721
   52CHL1   C16 3795   5.365   6.273   7.684 -0.7816 -0.6693 -0.4384
   52CHL1  H16A 3796   5.276   6.286   7.750  0.1619 -1.7848  1.1360
   52CHL1  H16B 3797   5.398   6.172   7.715 -1.4684 -0.4962  0.9492
   52CHL1   C17 3798   5.475   6.385   7.704 -0.2192  0.0767  0.3851
   52CHL1   H17 3799   5.558   6.311   7.696 -0.5025 -0.1499 -0.5436
   52CHL1   C13 3800   5.469   6.471   7.580 -0.1459  0.4729  0.5799
   52CHL1   C18 3801   5.368   6.583   7.614  0.7266  0.1829 -0.5099
   52CHL1  H18A 3802   5.287   6.541   7.677 -0.5335  1.1647 -1.4154
   52CHL1  H18B 3803   5.408   6.673   7.665 -2.0883  0.4043  1.5350
   52CHL1  H18C 3804   5.328   6.613   7.515 -1.1376 -2.3959 -0.6358
   52CHL1   C12 3805   5.594   6.536   7.521  0.4008  0.0621 -0.1410
   52CHL1  H12A 3806   5.621   6.609   7.600  1.4492 -1.1630  0.6746
   52CHL1  H12B 3807   5.677   6.462   7.518  1.1396  0.7296  2.1932
   52CHL1   C11 3808   5.576   6.603   7.379 -0.1155 -0.7438 -0.1110
   52CHL1  H11A 3809   5.525   6.700   7.392  2.3111  0.6771 -0.5299
   52CHL1  H11B 3810   5.682   6.629   7.356 -1.1424  1.8666 -2.3781
   52CHL1    C9 3811   5.512   6.507   7.277 -0.6526  1.0817 -0.0162
   52CHL1    H9 3812   5.592   6.433   7.257 -1.3729  1.0646 -3.2956
   52CHL1   C10 3813   5.493   6.566   7.136 -0.3623 -0.2187 -0.2416
   52CHL1   C19 3814   5.417   6.700   7.143 -0.0059  0.0195 -0.5880
   52CHL1  H19A 3815   5.391   6.725   7.038  1.0670  0.5469 -0.7369
   52CHL1  H19B 3816   5.320   6.684   7.195  1.2468 -1.5906  1.4610
   52CHL1  H19C 3817   5.480   6.777   7.192 -1.4321  1.6786 -1.2478
   52CHL1    C1 3818   5.630   6.582   7.072  0.0946 -0.1331 -0.0053
   52CHL1   H1A 3819   5.680   6.667   7.125 -2.6021  2.4642 -1.3661
   52CHL1   H1B 3820   5.698   6.494   7.081  0.1077 -0.1953 -0.6806
   52CHL1    C2 3821   5.632   6.626   6.927 -0.1497 -0.4314  0.4306
   52CHL1   H2A 3822   5.733   6.642   6.886 -0.9526  0.5377 -1.2539
   52CHL1   H2B 3823   5.579   6.724   6.923 -1.1552 -0.9823 -0.3392
   52CHL1   C20 3824   5.476   6.447   7.843  0.5618 -0.0439  0.1199
   52CHL1   H20 3825   5.393   6.519   7.857  1.2710  0.8603 -0.1818
   52CHL1   C21 3826   5.611   6.528   7.871 -0.1527 -0.0724  0.1134
   52CHL1  H21A 3827   5.627   6.607   7.795  0.7096 -0.1061  0.2498
   52CHL1  H21B 3828   5.699   6.462   7.857 -1.0531 -1.4708  0.7753
   52CHL1  H21C 3829   5.606   6.561   7.977  1.1224 -1.2954  0.5937
   52CHL1   C22 3830   5.460   6.339   7.954 -0.0215  0.0696 -0.1859
   52CHL1  H22A 3831   5.354   6.308   7.962 -0.3355  1.3051  0.6502
   52CHL1  H22B 3832   5.534   6.261   7.925 -0.7564 -1.5689  2.0431
   52CHL1   C23 3833   5.489   6.382   8.103 -0.4771 -0.6684  0.1414
   52CHL1  H23A 3834   5.597   6.365   8.119 -0.0780 -0.1935 -1.8700
   52CHL1  H23B 3835   5.471   6.490   8.121 -0.4281 -0.5185 -0.6776
   52CHL1   C24 3836   5.404   6.294   8.201 -0.3546  0.5098 -0.4547
   52CHL1  H24A 3837   5.423   6.328   8.305 -2.0536  0.6521 -0.1537
   52CHL1  H24B 3838   5.295   6.306   8.181 -0.5850 -0.0556  0.3989
   52CHL1   C25 3839   5.418   6.147   8.185  0.0147  0.1939  0.7685
   52CHL1   H25 3840   5.363   6.108   8.097  0.2482  1.1480  0.1821
   52CHL1   C26 3841   5.566   6.090   8.177 -0.0235  0.7495  0.5769
   52CHL1  H26A 3842   5.569   5.986   8.217 -2.0921 -0.7335 -2.6564
   52CHL1  H26B 3843   5.593   6.080   8.070 -0.5941 -0.9813  0.5679
   52CHL1  H26C 3844   5.633   6.163   8.228 -1.6895  2.5826  0.2530
   52CHL1   C27 3845   5.356   6.078   8.309  0.0241 -1.0140  0.1958
   52CHL1  H27A 3846   5.260   6.130   8.330  0.4521  0.7667 -1.8008
   52CHL1  H27B 3847   5.351   5.972   8.276  0.4396 -0.3995 -1.9905
   52CHL1  H27C 3848   5.428   6.092   8.392  0.3549  0.6226 -0.3189
   53CHL1    C3 3849   1.687   3.515   6.961 -0.0817 -0.0602 -0.1975
   53CHL1    H3 3850   1.646   3.416   6.991  0.6661 -0.5094 -0.6303
   53CHL1    O3 3851   1.699   3.510   6.821  0.1578 -0.1351 -0.3367
   53CHL1   H3' 3852   1.617   3.542   6.782  0.7114  1.7774 -0.0192
   53CHL1    C4 3853   1.586   3.631   6.999 -0.5189 -0.0221  0.8141
   53CHL1   H4A 3854   1.620   3.720   6.942 -1.8405  0.7765  1.2154
   53CHL1   H4B 3855   1.488   3.617   6.949 -0.1536  4.0304 -1.4505
   53CHL1    C5 3856   1.577   3.650   7.151  0.9477 -0.5486 -0.2392
   53CHL1    C6 3857   1.457   3.643   7.218 -0.1359  0.3685  0.0380
   53CHL1    H6 3858   1.361   3.642   7.165  0.2579 -0.1443 -0.6981
   53CHL1    C7 3859   1.451   3.651   7.369  0.2502 -0.5630  0.0711
   53CHL1   H7A 3860   1.368   3.720   7.396 -1.7557 -2.2978 -1.3994
   53CHL1   H7B 3861   1.420   3.553   7.411 -0.2537 -0.1125  0.7759
   53CHL1    C8 3862   1.578   3.688   7.438 -0.7165 -0.8031  0.0457
   53CHL1    H8 3863   1.593   3.798   7.431 -2.0701 -0.5367  0.8619
   53CHL1   C14 3864   1.560   3.672   7.591 -0.0874  0.0374  0.6439
   53CHL1   H14 3865   1.571   3.562   7.597 -0.0809  0.0440  0.7617
   53CHL1   C15 3866   1.431   3.711   7.662  0.0366  0.2371  0.1601
   53CHL1  H15A 3867   1.401   3.813   7.627 -0.5780 -0.4802 -1.4760
   53CHL1  H15B 3868   1.343   3.646   7.644  0.3460 -0.6434  1.6585
   53CHL1   C16 3869   1.480   3.713   7.806  0.0607 -0.2615  0.4551
   53CHL1  H16A 3870   1.458   3.810   7.855  1.5294 -1.2518  3.3233
   53CHL1  H16B 3871   1.430   3.636   7.869  0.5771  0.7180  2.1273
   53CHL1   C17 3872   1.628   3.689   7.810  0.1787 -0.3108 -0.2363
   53CHL1   H17 3873   1.634   3.579   7.823 -2.8174 -0.2986  2.4570
   53CHL1   C13 3874   1.678   3.722   7.673 -0.4226  0.2923  0.0814
   53CHL1   C18 3875   1.691   3.880   7.660 -0.5011 -0.3907 -0.8099
   53CHL1  H18A 3876   1.606   3.938   7.702 -2.1218 -1.0769 -2.9097
   53CHL1  H18B 3877   1.783   3.914   7.711 -1.1877 -0.4411  0.5109
   53CHL1  H18C 3878   1.690   3.916   7.555 -0.5202 -0.3348 -0.7903
   53CHL1   C12 3879   1.803   3.647   7.617 -0.2668  0.7958 -0.2656
   53CHL1  H12A 3880   1.895   3.683   7.668  0.7948  0.5272 -1.9362
   53CHL1  H12B 3881   1.796   3.543   7.656 -0.0881  0.7318 -0.4092
   53CHL1   C11 3882   1.821   3.666   7.469  0.5779  0.0292 -0.0665
   53CHL1  H11A 3883   1.855   3.771   7.455 -0.1940  0.6526  2.2917
   53CHL1  H11B 3884   1.905   3.607   7.427 -0.0772  0.2447 -1.7670
   53CHL1    C9 3885   1.704   3.637   7.377 -0.4372 -0.0765 -0.1926
   53CHL1    H9 3886   1.685   3.529   7.389  1.7636 -0.4305  0.5233
   53CHL1   C10 3887   1.710   3.657   7.225  0.0542  0.1586  0.0587
   53CHL1   C19 3888   1.765   3.795   7.205 -0.2751  0.0110  0.2934
   53CHL1  H19A 3889   1.872   3.804   7.234 -0.8414 -0.8004  2.8374
   53CHL1  H19B 3890   1.753   3.825   7.098 -0.1263  4.2242  1.3035
   53CHL1  H19C 3891   1.713   3.872   7.265  0.5072  0.5797  0.2553
   53CHL1    C1 3892   1.814   3.552   7.176 -0.2341 -0.2477  0.4988
   53CHL1   H1A 3893   1.914   3.587   7.211 -1.2618  2.3775  0.9860
   53CHL1   H1B 3894   1.802   3.447   7.213 -1.4219 -0.4857 -0.4957
   53CHL1    C2 3895   1.826   3.546   7.026  0.3648  0.1335  0.4236
   53CHL1   H2A 3896   1.907   3.474   7.001  0.6620  0.3005  0.8817
   53CHL1   H2B 3897   1.865   3.645   6.997 -2.6433  1.2946  0.0519
   53CHL1   C20 3898   1.688   3.745   7.940 -0.1622  0.6320  0.2494
   53CHL1   H20 3899   1.699   3.855   7.929  0.0363  0.6572  0.6758
   53CHL1   C21 3900   1.834   3.682   7.951 -0.6803  0.6350  0.1990
   53CHL1  H21A 3901   1.911   3.709   7.875 -0.3220  1.9375  0.9916
   53CHL1  H21B 3902   1.813   3.574   7.940  0.0879  0.4271  0.7250
   53CHL1  H21C 3903   1.880   3.694   8.051  0.9161  0.3318 -0.4679
   53CHL1   C22 3904   1.603   3.723   8.066  0.3254 -0.7169  0.6283
   53CHL1  H22A 3905   1.512   3.783   8.045 -0.0916 -1.3554  0.5847
   53CHL1  H22B 3906   1.564   3.619   8.076 -0.6945 -0.4897 -0.7691
   53CHL1   C23 3907   1.666   3.757   8.200  1.1485  0.4456  0.2124
   53CHL1  H23A 3908   1.732   3.671   8.225  3.0796  1.8885  0.2288
   53CHL1  H23B 3909   1.727   3.849   8.190  0.6004  0.7226 -0.7170
   53CHL1   C24 3910   1.559   3.778   8.312  0.4502  0.6802  0.3295
   53CHL1  H24A 3911   1.511   3.877   8.292 -0.4882  0.0170 -0.8161
   53CHL1  H24B 3912   1.476   3.705   8.308 -0.0027  1.0578  1.9868
   53CHL1   C25 3913   1.611   3.781   8.458 -0.5324  0.4254 -0.4465
   53CHL1   H25 3914   1.644   3.680   8.490  3.0377  1.5129 -0.2187
   53CHL1   C26 3915   1.740   3.865   8.476  0.6160 -0.6214 -0.1153
   53CHL1  H26A 3916   1.822   3.798   8.441 -0.0685 -0.5484 -1.9882
   53CHL1  H26B 3917   1.740   3.946   8.400 -3.9295 -2.4540 -2.4453
   53CHL1  H26C 3918   1.774   3.892   8.578  0.4735 -0.5314 -0.0910
   53CHL1   C27 3919   1.491   3.837   8.546 -1.1994  0.5774 -0.7531
   53CHL1  H27A 3920   1.521   3.834   8.653 -0.8128  1.0562 -0.8404
   53CHL1  H27B 3921   1.458   3.940   8.521 -1.4437  2.0069  4.3459
   53CHL1  H27C 3922   1.399   3.776   8.542  0.1958 -1.6347 -0.5574
   54CHL1    C3 3923   1.481   6.006   6.892 -0.2237 -0.7552 -0.9154
   54CHL1    H3 3924   1.548   5.918   6.883  2.1765  0.5415  2.4812
   54CHL1    O3 3925   1.433   6.019   6.760  0.3023  0.2906 -0.6845
   54CHL1   H3' 3926   1.365   6.086   6.755 -0.2449  0.0512  2.0197
   54CHL1    C4 3927   1.369   5.971   6.988  0.1930  0.1605  0.1222
   54CHL1   H4A 3928   1.290   6.047   6.972  0.2380  0.6367  2.0104
   54CHL1   H4B 3929   1.330   5.873   6.950 -0.6011  0.5682 -0.1363
   54CHL1    C5 3930   1.424   5.948   7.131 -0.2875  0.1333  0.4845
   54CHL1    C6 3931   1.396   5.831   7.188 -0.4940  0.0257 -0.0646
   54CHL1    H6 3932   1.336   5.766   7.123  0.7539 -0.0433 -1.2029
   54CHL1    C7 3933   1.440   5.798   7.325 -0.5556 -0.0888 -0.0826
   54CHL1   H7A 3934   1.345   5.784   7.381 -0.6665 -0.6897 -0.4201
   54CHL1   H7B 3935   1.507   5.709   7.332 -0.4684  0.0747  1.6791
   54CHL1    C8 3936   1.501   5.912   7.403 -0.9533  0.0333  0.3704
   54CHL1    H8 3937   1.424   5.980   7.444 -0.3921 -0.0357  1.5688
   54CHL1   C14 3938   1.591   5.865   7.516  0.2261  0.2563 -0.5631
   54CHL1   H14 3939   1.686   5.825   7.474  0.2330  0.3591 -0.6430
   54CHL1   C15 3940   1.538   5.750   7.604  0.2388  0.5659 -0.4182
   54CHL1  H15A 3941   1.428   5.764   7.613  0.5716  3.2416  0.6732
   54CHL1  H15B 3942   1.567   5.656   7.553 -0.6549  0.4495 -0.7254
   54CHL1   C16 3943   1.602   5.766   7.738 -0.8374  0.2095  0.0869
   54CHL1  H16A 3944   1.537   5.790   7.826  0.0682 -0.2244  0.8870
   54CHL1  H16B 3945   1.655   5.673   7.769 -1.8184 -1.0192 -1.7133
   54CHL1   C17 3946   1.703   5.891   7.721  0.6442  0.2284 -0.4252
   54CHL1   H17 3947   1.785   5.840   7.667 -1.0374  1.1795 -4.2104
   54CHL1   C13 3948   1.635   5.976   7.612 -0.0602  0.1718 -0.2233
   54CHL1   C18 3949   1.524   6.060   7.675  0.2879 -0.0650  0.0133
   54CHL1  H18A 3950   1.453   6.093   7.596  2.7585  1.5936 -1.6607
   54CHL1  H18B 3951   1.470   6.008   7.757 -2.0406 -0.0206 -1.4202
   54CHL1  H18C 3952   1.569   6.153   7.716 -0.4154  0.2355  0.1198
   54CHL1   C12 3953   1.732   6.070   7.533  0.2752 -0.6132  0.4988
   54CHL1  H12A 3954   1.759   6.166   7.582 -1.2869  0.1200 -0.0263
   54CHL1  H12B 3955   1.824   6.012   7.510  0.7061 -0.5893  2.0634
   54CHL1   C11 3956   1.662   6.118   7.398  0.5447 -0.2722  0.7763
   54CHL1  H11A 3957   1.579   6.185   7.430 -1.1174  0.7738 -4.6819
   54CHL1  H11B 3958   1.727   6.173   7.327 -0.9177  0.8530  0.2539
   54CHL1    C9 3959   1.588   6.006   7.317  0.9515 -0.6174 -0.3224
   54CHL1    H9 3960   1.677   5.953   7.278  1.9813  1.5693 -1.1035
   54CHL1   C10 3961   1.514   6.062   7.191  0.2720  0.6010 -0.0249
   54CHL1   C19 3962   1.412   6.172   7.234 -0.5835  0.1322  0.8107
   54CHL1  H19A 3963   1.338   6.141   7.311 -0.1252 -0.9583  0.8292
   54CHL1  H19B 3964   1.460   6.264   7.274  0.2729  0.8461 -1.6872
   54CHL1  H19C 3965   1.366   6.213   7.141  3.7806  0.2885 -1.5524
   54CHL1    C1 3966   1.619   6.104   7.092 -0.7456  0.1306  0.1393
   54CHL1   H1A 3967   1.687   6.189   7.115  1.0727 -1.6133  1.6949
   54CHL1   H1B 3968   1.689   6.018   7.082 -1.4826 -0.3900 -0.5909
   54CHL1    C2 3969   1.557   6.127   6.948 -0.3937 -0.2572  0.6173
   54CHL1   H2A 3970   1.649   6.147   6.888 -0.4977  2.9299  1.3157
   54CHL1   H2B 3971   1.477   6.204   6.944  0.0834  0.5924  3.9765
   54CHL1   C20 3972   1.765   5.952   7.851  0.2891 -0.1134  0.6159
   54CHL1   H20 3973   1.682   6.020   7.880  1.2196  0.7231  1.3930
   54CHL1   C21 3974   1.888   6.048   7.823 -0.2925  0.3389 -0.2011
   54CHL1  H21A 3975   1.947   6.064   7.915 -1.7147 -2.0856  1.2370
   54CHL1  H21B 3976   1.851   6.144   7.781  0.6193  0.6360 -0.3404
   54CHL1  H21C 3977   1.960   6.003   7.750 -1.2970 -1.7908  0.0507
   54CHL1   C22 3978   1.784   5.843   7.962  0.2551 -1.3688  0.3389
   54CHL1  H22A 3979   1.696   5.778   7.980 -0.9394  0.3112  0.8605
   54CHL1  H22B 3980   1.870   5.781   7.929  1.2317 -0.6747  1.4738
   54CHL1   C23 3981   1.831   5.904   8.100 -0.0365  0.4578  0.3581
   54CHL1  H23A 3982   1.917   5.971   8.080 -0.7239  1.5053  0.8089
   54CHL1  H23B 3983   1.750   5.968   8.141 -1.0991 -0.1845 -0.6705
   54CHL1   C24 3984   1.859   5.795   8.205 -0.2740  0.2079 -0.0119
   54CHL1  H24A 3985   1.776   5.722   8.212  0.0410 -0.0127  1.7257
   54CHL1  H24B 3986   1.946   5.742   8.161 -0.2569  0.7590 -0.6581
   54CHL1   C25 3987   1.898   5.860   8.335  0.5397  0.2770  0.3608
   54CHL1   H25 3988   1.972   5.943   8.328  2.9843 -1.5640  2.3520
   54CHL1   C26 3989   1.786   5.932   8.406 -0.0641  0.2236 -0.1991
   54CHL1  H26A 3990   1.717   5.855   8.448  1.5684 -2.0018 -1.4020
   54CHL1  H26B 3991   1.828   5.992   8.490  1.9583 -1.3716 -0.0021
   54CHL1  H26C 3992   1.725   5.999   8.341 -0.4763  0.8564  0.8150
   54CHL1   C27 3993   1.966   5.758   8.421 -0.2037 -0.2258 -0.1186
   54CHL1  H27A 3994   2.069   5.743   8.383 -1.0242 -1.3411 -2.0689
   54CHL1  H27B 3995   1.977   5.787   8.527 -0.4379 -1.9762  0.4081
   54CHL1  H27C 3996   1.919   5.657   8.427  1.8156 -1.1995  0.3406
   55CHL1    C3 3997   1.258   0.685   7.041  0.3683  0.5340  0.1591
   55CHL1    H3 3998   1.189   0.771   7.026 -1.7123 -1.3674 -2.1168
   55CHL1    O3 3999   1.293   0.641   6.908  0.4129  0.4225  0.0775
   55CHL1   H3' 4000   1.211   0.650   6.859 -0.2337  1.4155  1.2949
   55CHL1    C4 4001   1.386   0.714   7.116 -0.2271  0.4420 -0.6352
   55CHL1   H4A 4002   1.462   0.633   7.106 -0.6837  0.1611 -2.1328
   55CHL1   H4B 4003   1.440   0.793   7.061 -2.4539  1.1422 -1.9554
   55CHL1    C5 4004   1.372   0.751   7.260  0.3170  0.8146 -0.2120
   55CHL1    C6 4005   1.421   0.861   7.313  0.1694 -0.6695 -0.2731
   55CHL1    H6 4006   1.488   0.925   7.254  0.0575  0.5789  0.8970
   55CHL1    C7 4007   1.408   0.901   7.460  0.1640 -0.4359  0.4792
   55CHL1   H7A 4008   1.509   0.934   7.493  1.0533 -1.2388 -1.3212
   55CHL1   H7B 4009   1.338   0.987   7.453  1.1427  0.2501 -1.5753
   55CHL1    C8 4010   1.355   0.789   7.547 -0.1900  0.1715  0.2618
   55CHL1    H8 4011   1.440   0.721   7.566  0.6811  1.8144  2.6257
   55CHL1   C14 4012   1.303   0.845   7.670  0.7023  0.0951 -0.0577
   55CHL1   H14 4013   1.212   0.900   7.638  0.5027  1.0295  1.9299
   55CHL1   C15 4014   1.381   0.956   7.751  0.2054 -0.4880 -0.2455
   55CHL1  H15A 4015   1.485   0.918   7.748  1.0939  1.7037  0.6346
   55CHL1  H15B 4016   1.374   1.060   7.713 -0.3689 -0.7945 -0.9951
   55CHL1   C16 4017   1.321   0.953   7.893  0.0499  0.3577 -0.2109
   55CHL1  H16A 4018   1.401   0.922   7.964 -1.6554 -3.4139  0.2709
   55CHL1  H16B 4019   1.281   1.053   7.921 -1.8591 -1.0538  2.4296
   55CHL1   C17 4020   1.210   0.840   7.890  0.1107  0.2978  0.0163
   55CHL1   H17 4021   1.118   0.893   7.855  0.0187  0.0997 -0.0408
   55CHL1   C13 4022   1.253   0.746   7.769  0.4536  0.5242 -0.0158
   55CHL1   C18 4023   1.359   0.645   7.811  0.0149 -0.4984 -0.5914
   55CHL1  H18A 4024   1.313   0.598   7.900  0.4874  1.6279  0.8405
   55CHL1  H18B 4025   1.393   0.566   7.741 -2.5914  0.5188 -3.1832
   55CHL1  H18C 4026   1.450   0.695   7.851 -0.5650  0.7609 -0.7939
   55CHL1   C12 4027   1.137   0.675   7.702 -0.8040  0.2049 -0.4702
   55CHL1  H12A 4028   1.108   0.595   7.773 -2.6076  4.0100  3.5102
   55CHL1  H12B 4029   1.061   0.753   7.685 -0.7438 -0.2388 -3.4775
   55CHL1   C11 4030   1.173   0.609   7.565  0.4586  0.8869 -0.5420
   55CHL1  H11A 4031   1.215   0.508   7.587 -0.0284  0.8338  0.1745
   55CHL1  H11B 4032   1.078   0.588   7.511  0.3304  0.1135 -0.0460
   55CHL1    C9 4033   1.246   0.709   7.470  0.1078 -0.4809 -0.2253
   55CHL1    H9 4034   1.170   0.786   7.444 -1.9890 -2.4600 -0.2742
   55CHL1   C10 4035   1.288   0.643   7.338  0.0454 -0.6072  0.6073
   55CHL1   C19 4036   1.376   0.522   7.363 -0.2557  0.0558 -0.4567
   55CHL1  H19A 4037   1.326   0.432   7.405 -0.4727 -0.3939 -1.6329
   55CHL1  H19B 4038   1.421   0.487   7.268  1.6561  1.7743 -0.2614
   55CHL1  H19C 4039   1.459   0.549   7.432 -0.1276 -1.2497 -0.0593
   55CHL1    C1 4040   1.158   0.613   7.253 -0.2533  0.0308  0.2076
   55CHL1   H1A 4041   1.120   0.522   7.304  0.9657 -0.7276 -0.1904
   55CHL1   H1B 4042   1.098   0.706   7.259 -1.0607 -0.1471 -3.1104
   55CHL1    C2 4043   1.182   0.571   7.106 -0.1637  0.0814  0.3503
   55CHL1   H2A 4044   1.083   0.552   7.059  0.0776 -2.6511  0.8077
   55CHL1   H2B 4045   1.250   0.483   7.101  1.9357  1.6881 -1.3701
   55CHL1   C20 4046   1.184   0.789   8.031  0.0288  0.1399  0.3856
   55CHL1   H20 4047   1.280   0.743   8.064  0.6849  0.3293 -1.1809
   55CHL1   C21 4048   1.077   0.679   8.020 -0.6025 -0.0155 -1.4719
   55CHL1  H21A 4049   1.033   0.658   8.120  0.8496 -0.4706 -0.8928
   55CHL1  H21B 4050   1.127   0.584   7.988 -0.0028 -0.1630 -0.1809
   55CHL1  H21C 4051   1.009   0.711   7.939 -0.7471 -1.0224 -1.7691
   55CHL1   C22 4052   1.141   0.895   8.132  0.3021  0.3739  0.3036
   55CHL1  H22A 4053   1.206   0.983   8.113 -0.6899  1.3429  1.2425
   55CHL1  H22B 4054   1.035   0.924   8.116 -0.2144 -0.5652  1.8317
   55CHL1   C23 4055   1.151   0.854   8.284 -0.9158 -0.5867  0.7896
   55CHL1  H23A 4056   1.073   0.776   8.304 -0.2311 -2.0334 -1.7571
   55CHL1  H23B 4057   1.253   0.814   8.300  0.6899  3.0287  0.4935
   55CHL1   C24 4058   1.141   0.970   8.385 -0.0167  0.3965 -0.5630
   55CHL1  H24A 4059   1.194   1.055   8.338  3.0344 -0.9766  0.1618
   55CHL1  H24B 4060   1.034   1.000   8.394  0.1910  1.1836 -0.6532
   55CHL1   C25 4061   1.189   0.928   8.530  0.9584 -1.4828 -0.1782
   55CHL1   H25 4062   1.281   0.868   8.514 -0.7679 -3.8811 -1.9063
   55CHL1   C26 4063   1.222   1.056   8.609  0.2329  0.1181  0.3945
   55CHL1  H26A 4064   1.144   1.134   8.606  0.6156  0.4958 -2.0543
   55CHL1  H26B 4065   1.229   1.042   8.719  1.5149 -0.4603  0.2686
   55CHL1  H26C 4066   1.319   1.099   8.576 -1.2482  2.7847 -0.7750
   55CHL1   C27 4067   1.090   0.846   8.597 -0.3476  0.4184 -0.1076
   55CHL1  H27A 4068   1.006   0.904   8.640 -0.8674  0.2109 -0.8401
   55CHL1  H27B 4069   1.057   0.771   8.522  0.5905  0.6190 -0.7315
   55CHL1  H27C 4070   1.145   0.790   8.676  0.5250  0.1365 -0.9021
   56CHL1    C3 4071   0.943   4.834   6.841  0.4578  0.5176  0.5839
   56CHL1    H3 4072   0.980   4.939   6.841  2.5071 -0.1438  0.1404
   56CHL1    O3 4073   0.972   4.775   6.716 -0.1183 -0.3942  0.3022
   56CHL1   H3' 4074   0.921   4.694   6.711  0.9631 -1.1566  1.3196
   56CHL1    C4 4075   1.017   4.757   6.944  0.3665  0.2529 -0.4380
   56CHL1   H4A 4076   0.977   4.653   6.943 -2.3182  1.2181 -0.9913
   56CHL1   H4B 4077   1.124   4.737   6.921  0.7636 -1.9028  2.6015
   56CHL1    C5 4078   0.994   4.833   7.077 -0.0305 -0.1211 -0.9484
   56CHL1    C6 4079   1.093   4.879   7.149 -0.5527  0.1249 -1.0046
   56CHL1    H6 4080   1.196   4.866   7.112 -0.4062  0.1255 -0.6022
   56CHL1    C7 4081   1.080   4.947   7.287  0.5590  0.5504  0.1266
   56CHL1   H7A 4082   1.151   4.897   7.357  1.8096  0.5205 -1.1369
   56CHL1   H7B 4083   1.100   5.055   7.274 -2.4411  1.0929 -0.7908
   56CHL1    C8 4084   0.939   4.932   7.357 -0.0007  0.5121 -0.6470
   56CHL1    H8 4085   0.930   4.837   7.415  1.5831  0.5020 -0.3709
   56CHL1   C14 4086   0.920   5.049   7.450  0.4744 -0.3811  0.2575
   56CHL1   H14 4087   0.926   5.143   7.391 -1.5959 -1.8156 -2.5005
   56CHL1   C15 4088   1.019   5.069   7.566 -0.4510 -0.3297  0.1237
   56CHL1  H15A 4089   1.050   4.976   7.618 -1.7546 -0.5286  0.5862
   56CHL1  H15B 4090   1.107   5.124   7.525  0.0098 -0.7593  0.5243
   56CHL1   C16 4091   0.948   5.166   7.662  0.4088  0.1552  1.0839
   56CHL1  H16A 4092   0.931   5.127   7.764 -2.1245  1.9259  1.4254
   56CHL1  H16B 4093   0.992   5.268   7.664  0.6488  0.1892 -1.7814
   56CHL1   C17 4094   0.803   5.179   7.604  0.5615  0.4710  0.1541
   56CHL1   H17 4095   0.805   5.264   7.533  2.0250 -0.9964 -1.6412
   56CHL1   C13 4096   0.784   5.056   7.521 -0.5777 -1.0364  0.1271
   56CHL1   C18 4097   0.751   4.934   7.609  0.2317 -0.0127  0.0711
   56CHL1  H18A 4098   0.826   4.904   7.686  0.1029  0.3844  0.3532
   56CHL1  H18B 4099   0.654   4.938   7.663  0.4794 -0.1571  0.5396
   56CHL1  H18C 4100   0.734   4.844   7.546 -0.1758  0.7230 -0.8768
   56CHL1   C12 4101   0.680   5.062   7.404 -0.6099 -0.1374  0.0678
   56CHL1  H12A 4102   0.585   5.058   7.460 -0.5667 -0.8075  0.1008
   56CHL1  H12B 4103   0.666   5.155   7.345 -0.8458 -0.3414 -0.1972
   56CHL1   C11 4104   0.689   4.948   7.306 -0.0199 -0.1260  0.6821
   56CHL1  H11A 4105   0.672   4.843   7.338  1.9215 -0.5030  0.5537
   56CHL1  H11B 4106   0.620   4.959   7.219  0.1341 -0.0710  0.5655
   56CHL1    C9 4107   0.835   4.945   7.242  0.4964  0.5972  0.5048
   56CHL1    H9 4108   0.845   5.045   7.196 -0.6048 -0.7620 -3.0343
   56CHL1   C10 4109   0.849   4.848   7.122  0.1316 -0.7577 -0.5161
   56CHL1   C19 4110   0.812   4.700   7.163  0.0440 -0.4583 -0.0366
   56CHL1  H19A 4111   0.816   4.639   7.070 -1.1622  0.3418 -0.6503
   56CHL1  H19B 4112   0.875   4.657   7.244 -0.0562 -1.3419 -0.4145
   56CHL1  H19C 4113   0.708   4.707   7.200  1.0219  4.6286  2.5764
   56CHL1    C1 4114   0.772   4.907   6.999 -0.8229  0.7410  0.4584
   56CHL1   H1A 4115   0.667   4.897   7.034 -1.0178  1.1430 -0.0038
   56CHL1   H1B 4116   0.805   5.013   6.985  1.4546  0.1525  0.9051
   56CHL1    C2 4117   0.793   4.838   6.862 -0.2040  0.2920  0.4901
   56CHL1   H2A 4118   0.742   4.884   6.775 -0.5210 -1.2504 -0.1702
   56CHL1   H2B 4119   0.763   4.731   6.863  1.4151 -0.1932 -0.1916
   56CHL1   C20 4120   0.698   5.219   7.706  0.2109 -0.1467 -0.2806
   56CHL1   H20 4121   0.687   5.138   7.781 -0.8324  1.8457  1.8513
   56CHL1   C21 4122   0.561   5.239   7.639  0.0745 -0.2426 -0.5190
   56CHL1  H21A 4123   0.486   5.297   7.697  0.9530 -0.8794  1.3426
   56CHL1  H21B 4124   0.517   5.138   7.628 -0.2183 -0.3465  1.3023
   56CHL1  H21C 4125   0.573   5.296   7.544 -0.5271 -0.2834 -0.6237
   56CHL1   C22 4126   0.739   5.350   7.789 -0.1442  0.7144  0.0374
   56CHL1  H22A 4127   0.847   5.336   7.814  0.7130  0.7347 -3.1736
   56CHL1  H22B 4128   0.734   5.434   7.717 -1.5918  0.6305  0.0080
   56CHL1   C23 4129   0.665   5.361   7.922  0.2121 -0.0450 -0.6100
   56CHL1  H23A 4130   0.566   5.408   7.907 -0.4023 -1.2688 -0.5344
   56CHL1  H23B 4131   0.659   5.263   7.975  0.2765 -0.9458 -2.2250
   56CHL1   C24 4132   0.738   5.461   8.023 -0.0013  0.0006  0.7434
   56CHL1  H24A 4133   0.824   5.406   8.067 -0.5337 -0.3724  1.3370
   56CHL1  H24B 4134   0.781   5.550   7.973  0.9233 -0.8645 -0.0363
   56CHL1   C25 4135   0.647   5.509   8.142  0.5541 -0.0972  0.6245
   56CHL1   H25 4136   0.548   5.537   8.100  0.6954  0.9965  1.0013
   56CHL1   C26 4137   0.638   5.398   8.246 -0.4265 -0.1303 -0.5382
   56CHL1  H26A 4138   0.560   5.330   8.206  0.0289 -0.8777 -0.1617
   56CHL1  H26B 4139   0.591   5.430   8.342  0.9978  1.0670 -0.2027
   56CHL1  H26C 4140   0.739   5.355   8.260 -0.7052 -0.7064 -0.2940
   56CHL1   C27 4141   0.708   5.643   8.205  0.2129 -0.1399  0.8853
   56CHL1  H27A 4142   0.812   5.636   8.244  0.4398 -0.1051  0.2968
   56CHL1  H27B 4143   0.710   5.703   8.111  0.5367  2.4086  2.4516
   56CHL1  H27C 4144   0.647   5.701   8.277  0.0915  0.6825  0.1411
   57SAPC     N 4145   1.797   1.715  10.914 -0.1788  0.1588 -0.1990
   57SAPC   C12 4146   1.690   1.704  10.809 -0.3074  0.3787 -0.1409
   57SAPC  H12A 4147   1.696   1.780  10.733 -1.4381  1.8474  1.1625
   57SAPC  H12B 4148   1.597   1.729  10.858 -1.4728 -2.6257 -0.6091
   57SAPC   C13 4149   1.760   1.628  11.034  0.0486 -0.1584 -1.0866
   57SAPC  H13A 4150   1.663   1.654  11.072  0.4372  0.4281 -0.4632
   57SAPC  H13B 4151   1.752   1.526  11.000  1.4249 -0.4611 -0.5746
   57SAPC  H13C 4152   1.836   1.633  11.111  1.6972  2.2010 -2.7273
   57SAPC   C14 4153   1.924   1.678  10.856  0.1321 -0.3095  0.0770
   57SAPC  H14A 4154   1.959   1.753  10.787 -0.0115 -0.0713  0.2609
   57SAPC  H14B 4155   1.996   1.649  10.930 -0.4260 -0.3402  0.6142
   57SAPC  H14C 4156   1.896   1.600  10.786  2.1213  0.3662 -1.5931
   57SAPC   C15 4157   1.816   1.860  10.964  0.2400  0.2325 -0.2053
   57SAPC  H15A 4158   1.903   1.876  11.026  0.0388  0.1271  0.1071
   57SAPC  H15B 4159   1.822   1.923  10.876  1.8641 -0.7912 -0.8635
   57SAPC  H15C 4160   1.730   1.895  11.020 -0.1661 -1.4536  0.2582
   57SAPC   C11 4161   1.667   1.572  10.738  0.1823 -0.6366 -0.5726
   57SAPC  H11A 4162   1.574   1.587  10.680  0.8269  0.7639 -1.2892
   57SAPC  H11B 4163   1.651   1.489  10.811  0.0280  1.4669  1.9134
   57SAPC     P 4164   1.813   1.591  10.523  0.1448  0.0030  0.2588
   57SAPC   O13 4165   1.789   1.735  10.518 -0.1892  0.2032  0.0764
   57SAPC   O14 4166   1.946   1.540  10.476 -0.0533 -0.4637  0.0630
   57SAPC   O12 4167   1.782   1.535  10.663  0.0404  0.0898 -0.1650
   57SAPC   O11 4168   1.703   1.514  10.436  0.3142  0.2916 -0.7939
   57SAPC    C1 4169   1.709   1.372  10.417 -0.4537 -0.4030  0.2446
   57SAPC    HA 4170   1.803   1.330  10.459  1.6200  2.7001 -0.8993
   57SAPC    HB 4171   1.623   1.320  10.464 -0.5398  0.3816  0.9702
   57SAPC    C2 4172   1.702   1.325  10.267 -0.1002 -0.3802  0.0216
   57SAPC    HS 4173   1.678   1.216  10.265  0.6357 -0.5969  1.6048
   57SAPC   O21 4174   1.829   1.351  10.198  0.6620 -0.3447 -0.8631
   57SAPC   C21 4175   1.930   1.288  10.249  0.2715  0.0881 -0.0383
   57SAPC   O22 4176   1.930   1.186  10.316 -0.2674  0.3656  0.0956
   57SAPC   C22 4177   2.056   1.362  10.182  0.0237 -0.3005 -0.0191
   57SAPC   H2R 4178   2.038   1.383  10.075 -1.6235  1.6447  0.5588
   57SAPC   H2S 4179   2.049   1.467  10.218  1.5530  0.0915 -0.8002
   57SAPC    C3 4180   1.587   1.405  10.195  0.6712 -0.0568  0.7438
   57SAPC    HX 4181   1.621   1.510  10.211  1.6320 -0.2341 -0.0013
   57SAPC    HY 4182   1.486   1.397  10.239 -0.6110  1.8715 -1.5963
   57SAPC   O31 4183   1.566   1.381  10.056  0.1458 -0.4241 -0.1724
   57SAPC   C31 4184   1.493   1.281  10.017 -1.0198 -0.7605 -0.4226
   57SAPC   O32 4185   1.438   1.202  10.091  0.4627  0.5322  0.3661
   57SAPC   C32 4186   1.479   1.287   9.870  0.1029 -0.7829 -0.2144
   57SAPC   H2X 4187   1.545   1.211   9.822  1.6252  2.0552 -2.9698
   57SAPC   H2Y 4188   1.512   1.386   9.833 -2.1271 -0.4184 -1.4155
   57SAPC   C23 4189   2.188   1.293  10.202  0.1098 -0.1873 -0.0570
   57SAPC   H3R 4190   2.193   1.196  10.148 -1.0082  0.4605 -1.3976
   57SAPC   H3S 4191   2.209   1.266  10.308 -1.6553 -0.6060  0.2177
   57SAPC   C24 4192   2.292   1.385  10.139  0.9965 -0.3392  0.3881
   57SAPC   H4R 4193   2.303   1.469  10.211  1.5196 -1.4171  1.6102
   57SAPC   H4S 4194   2.241   1.421  10.047 -0.1427  0.8102  1.4289
   57SAPC   C25 4195   2.417   1.316  10.098  0.0195 -0.8417  0.8369
   57SAPC   H5R 4196   2.469   1.264  10.180  1.4876 -0.5969  0.0943
   57SAPC   C26 4197   2.479   1.310   9.975 -0.1448  0.1326 -0.1095
   57SAPC   H6R 4198   2.564   1.241   9.978  0.1777  0.5642  1.7386
   57SAPC   C27 4199   2.429   1.364   9.842  0.0276  0.1416 -0.6518
   57SAPC   H7R 4200   2.497   1.448   9.814  3.2087 -2.3568 -0.9608
   57SAPC   H7S 4201   2.324   1.400   9.849  0.2448  0.5198  1.2740
   57SAPC   C28 4202   2.448   1.264   9.729 -0.6395 -0.0210 -0.2571
   57SAPC   H8R 4203   2.492   1.165   9.749  1.6975  0.8998 -0.5945
   57SAPC   C29 4204   2.400   1.276   9.605  0.4775  0.3583 -0.0673
   57SAPC   H9R 4205   2.438   1.208   9.527  1.2860  1.5889 -0.7860
   57SAPC  C210 4206   2.332   1.401   9.542  0.0747 -0.1140  0.3048
   57SAPC  H10R 4207   2.315   1.483   9.616 -2.2490 -0.2873  0.0542
   57SAPC  H10S 4208   2.230   1.364   9.518 -0.9340 -0.0287  3.7975
   57SAPC  C211 4209   2.403   1.444   9.411  0.7904 -0.0162  0.1269
   57SAPC  H11R 4210   2.388   1.374   9.327 -1.2791  2.5144 -1.7599
   57SAPC  C212 4211   2.477   1.552   9.398 -0.6606 -0.2827 -0.4498
   57SAPC  H12R 4212   2.504   1.573   9.294  0.3847 -1.3912 -0.4212
   57SAPC  C213 4213   2.517   1.650   9.499  0.5858  0.0346 -0.4589
   57SAPC  H13R 4214   2.621   1.685   9.482  0.2951  1.3915  0.4624
   57SAPC  H13S 4215   2.495   1.613   9.601  0.4749  3.2222  0.7640
   57SAPC  C214 4216   2.424   1.768   9.467 -0.6257  0.1246 -1.7147
   57SAPC  H14R 4217   2.395   1.779   9.362  2.1780  0.1765 -2.5537
   57SAPC  C215 4218   2.394   1.869   9.552 -0.2405 -0.7783  0.6916
   57SAPC  H15R 4219   2.302   1.926   9.532 -0.3485 -1.4593 -0.9796
   57SAPC  C216 4220   2.440   1.880   9.697 -0.3233  0.5036 -0.3753
   57SAPC  H16R 4221   2.411   1.978   9.742 -0.5425  0.3436 -0.1673
   57SAPC  H16S 4222   2.550   1.886   9.690 -0.1213 -1.1041  0.9410
   57SAPC  C217 4223   2.405   1.770   9.804  0.1109  0.6367  0.5158
   57SAPC  H17R 4224   2.460   1.676   9.783  0.9448  1.3057 -0.3968
   57SAPC  H17S 4225   2.297   1.745   9.794  0.8916 -3.6888  0.9646
   57SAPC  C218 4226   2.439   1.811   9.945  0.0319  0.1812 -0.8964
   57SAPC  H18R 4227   2.378   1.897   9.980 -1.6617 -1.0065 -0.8339
   57SAPC  H18S 4228   2.547   1.837   9.945 -0.4074  2.4201  1.4837
   57SAPC  C219 4229   2.434   1.685  10.047 -0.0390 -0.0904  0.3482
   57SAPC  H19R 4230   2.491   1.603   9.999 -0.5866  0.0336 -0.5459
   57SAPC  H19S 4231   2.327   1.654  10.046 -0.7434  2.1255  0.2576
   57SAPC  C220 4232   2.476   1.717  10.190  0.1214 -0.3211  0.8671
   57SAPC  H20R 4233   2.429   1.808  10.234  4.3224  1.9545  1.1119
   57SAPC  H20S 4234   2.585   1.733  10.197  0.1873  0.6955 -1.4278
   57SAPC  H20T 4235   2.465   1.625  10.250  2.4494 -2.4241 -1.6829
   57SAPC   C33 4236   1.330   1.269   9.815 -0.1157  0.9384  0.4730
   57SAPC   H3X 4237   1.258   1.341   9.858  0.8143  1.1628  1.7068
   57SAPC   H3Y 4238   1.286   1.173   9.847 -1.4293  0.4641 -2.4299
   57SAPC   C34 4239   1.334   1.299   9.667  0.3911  0.8849 -0.0779
   57SAPC   H4X 4240   1.415   1.366   9.633  0.6228  0.1178 -1.0922
   57SAPC   H4Y 4241   1.230   1.321   9.634 -0.7985 -1.4385  1.7742
   57SAPC   C35 4242   1.342   1.163   9.591 -0.7205 -1.1830  0.1154
   57SAPC   H5X 4243   1.247   1.109   9.614 -0.9077  0.3136  3.4910
   57SAPC   H5Y 4244   1.427   1.098   9.623 -1.7078 -2.5810  0.0172
   57SAPC   C36 4245   1.338   1.188   9.440  0.0713  0.2221  0.2193
   57SAPC   H6X 4246   1.410   1.263   9.401 -0.6416  0.3073 -0.9893
   57SAPC   H6Y 4247   1.238   1.230   9.420  0.8337  0.7987 -2.8714
   57SAPC   C37 4248   1.361   1.066   9.345 -0.6814  0.8753 -0.0628
   57SAPC   H7X 4249   1.271   1.003   9.361 -1.5011  1.0415 -3.2533
   57SAPC   H7Y 4250   1.453   1.012   9.379  0.1731  2.4637  0.2340
   57SAPC   C38 4251   1.376   1.087   9.192  0.4924 -0.0791  0.1656
   57SAPC   H8X 4252   1.465   1.150   9.172  0.5535  0.1819  1.1981
   57SAPC   H8Y 4253   1.295   1.152   9.152  0.7534  0.8453  1.0695
   57SAPC   C39 4254   1.379   0.962   9.108  0.7132 -0.0438  0.4783
   57SAPC   H9X 4255   1.280   0.913   9.100  0.2663  1.0822 -2.7646
   57SAPC   H9Y 4256   1.456   0.897   9.155  0.0944 -2.4081 -1.5405
   57SAPC  C310 4257   1.438   0.989   8.966  0.4743  0.7573  0.1590
   57SAPC  H10X 4258   1.548   1.002   8.977  0.4657  0.3382  0.8240
   57SAPC  H10Y 4259   1.402   1.084   8.922  1.9359  2.2614  2.0191
   57SAPC  C311 4260   1.419   0.866   8.875 -0.5052  0.3536 -0.1269
   57SAPC  H11X 4261   1.316   0.873   8.836  0.9230  1.0700 -4.2481
   57SAPC  H11Y 4262   1.423   0.771   8.934 -2.0120  0.4777  0.2092
   57SAPC  C312 4263   1.513   0.856   8.752 -0.1600  0.0973 -0.0984
   57SAPC  H12X 4264   1.616   0.849   8.793 -0.1441  1.2207  0.0799
   57SAPC  H12Y 4265   1.492   0.942   8.683  1.5004 -0.1450 -0.9611
   57SAPC  C313 4266   1.496   0.725   8.666  0.2617 -0.4445 -0.1920
   57SAPC  H13X 4267   1.388   0.702   8.656  0.6257 -2.0778 -0.6737
   57SAPC  H13Y 4268   1.531   0.638   8.726 -1.2577 -1.6695 -0.9831
   57SAPC  C314 4269   1.566   0.714   8.528 -0.1209 -0.3876  1.0434
   57SAPC  H14X 4270   1.677   0.709   8.539  0.1877 -0.0613 -1.3746
   57SAPC  H14Y 4271   1.550   0.810   8.474  0.2512 -1.1005 -0.3744
   57SAPC  C315 4272   1.502   0.609   8.445  0.4266  0.1794  0.3454
   57SAPC  H15X 4273   1.393   0.624   8.428 -0.1085 -2.6142  0.8397
   57SAPC  H15Y 4274   1.499   0.516   8.505 -2.4205 -0.2435 -0.2845
   57SAPC  C316 4275   1.573   0.575   8.314 -0.0216 -0.5272 -0.0051
   57SAPC  H16X 4276   1.529   0.483   8.270  1.8354 -0.7765 -1.4900
   57SAPC  H16Y 4277   1.679   0.553   8.340 -0.2880 -1.8510  0.0467
   57SAPC  C317 4278   1.554   0.697   8.211 -0.4321  0.4516  0.5133
   57SAPC  H17X 4279   1.590   0.796   8.246  0.4793 -0.2736  1.6954
   57SAPC  H17Y 4280   1.443   0.693   8.206 -0.3918 -3.0398 -0.3402
   57SAPC  C318 4281   1.606   0.662   8.066 -0.5932 -0.2834 -0.0126
   57SAPC  H18X 4282   1.715   0.640   8.057 -0.2954  1.7379 -2.6428
   57SAPC  H18Y 4283   1.596   0.748   7.995  1.6768  0.6020  0.6380
   57SAPC  H18Z 4284   1.561   0.567   8.031 -0.7122  0.1714 -1.1454
   58SAPC     N 4285   6.064   5.813  10.485 -0.0328 -0.7309 -0.3256
   58SAPC   C12 4286   6.102   5.793  10.631 -0.1977 -0.4726 -0.1624
   58SAPC  H12A 4287   6.024   5.726  10.663 -0.6663 -0.2134 -0.7411
   58SAPC  H12B 4288   6.084   5.886  10.683  2.7472 -0.9732  2.0302
   58SAPC   C13 4289   6.165   5.910  10.424 -0.2360 -0.1134  0.8551
   58SAPC  H13A 4290   6.161   6.012  10.459 -2.6625  0.3782 -0.6570
   58SAPC  H13B 4291   6.262   5.869  10.450 -0.1313 -0.4485 -0.0369
   58SAPC  H13C 4292   6.171   5.911  10.316  0.1355 -3.1771  0.7438
   58SAPC   C14 4293   6.055   5.692  10.407 -0.5695 -0.5102 -0.3739
   58SAPC  H14A 4294   6.128   5.620  10.442  0.7322  0.6688 -0.5369
   58SAPC  H14B 4295   5.955   5.653  10.412 -0.6554 -0.1717  0.8052
   58SAPC  H14C 4296   6.082   5.700  10.303 -0.7135  1.8281 -0.2788
   58SAPC   C15 4297   5.927   5.878  10.478 -0.1008  0.1548 -0.0295
   58SAPC  H15A 4298   5.889   5.901  10.380 -1.6807  1.8116  0.9065
   58SAPC  H15B 4299   5.856   5.811  10.526 -0.8167  1.1726  0.3721
   58SAPC  H15C 4300   5.928   5.972  10.530 -0.3004 -1.8718  4.0628
   58SAPC   C11 4301   6.247   5.762  10.675  0.4767  0.4414 -0.5786
   58SAPC  H11A 4302   6.241   5.753  10.786  0.1552  3.2407 -0.2890
   58SAPC  H11B 4303   6.314   5.848  10.651 -0.7292  1.3051 -0.9211
   58SAPC     P 4304   6.286   5.503  10.643  0.0684  0.0538 -0.2086
   58SAPC   O13 4305   6.306   5.469  10.783 -0.3791 -0.1268  0.2797
   58SAPC   O14 4306   6.149   5.487  10.597 -0.0199  0.4621  0.0474
   58SAPC   O12 4307   6.318   5.655  10.624  0.6417  0.4142  1.0734
   58SAPC   O11 4308   6.393   5.438  10.554 -0.1214  0.0058 -0.1833
   58SAPC    C1 4309   6.440   5.504  10.437 -0.1821 -0.6339 -0.0391
   58SAPC    HA 4310   6.484   5.605  10.452 -0.1530 -0.4623 -1.2393
   58SAPC    HB 4311   6.521   5.434  10.405  0.2324 -1.1827  2.0500
   58SAPC    C2 4312   6.341   5.487  10.318  0.2357 -0.4027  0.9347
   58SAPC    HS 4313   6.250   5.546  10.343  0.0570 -0.0243 -0.5141
   58SAPC   O21 4314   6.315   5.346  10.294 -0.3803 -0.9408 -0.0979
   58SAPC   C21 4315   6.190   5.313  10.262 -0.1851  0.6631  0.7750
   58SAPC   O22 4316   6.097   5.386  10.233 -0.0148  0.4594  0.2988
   58SAPC   C22 4317   6.194   5.163  10.257 -0.4405  1.2072  0.0258
   58SAPC   H2R 4318   6.285   5.139  10.199  0.6788  0.6619  1.9093
   58SAPC   H2S 4319   6.211   5.127  10.361  1.0542 -1.0277 -0.9267
   58SAPC    C3 4320   6.406   5.555  10.196  0.5663 -0.0226 -0.2462
   58SAPC    HX 4321   6.500   5.503  10.167  1.3271  1.2166 -0.0646
   58SAPC    HY 4322   6.443   5.658  10.217 -0.3161  0.2661 -0.0452
   58SAPC   O31 4323   6.318   5.553  10.082 -0.1855 -0.7710  0.2266
   58SAPC   C31 4324   6.250   5.669  10.063  0.1997  0.1110 -0.0810
   58SAPC   O32 4325   6.252   5.763  10.138 -0.5452 -0.5119  0.1926
   58SAPC   C32 4326   6.177   5.660   9.932 -0.0679  0.5228 -0.1387
   58SAPC   H2X 4327   6.113   5.751   9.938  0.4170  0.9175 -0.8062
   58SAPC   H2Y 4328   6.110   5.572   9.929  0.2762  0.2840 -2.4957
   58SAPC   C23 4329   6.072   5.097  10.188 -0.2556  0.7863 -0.8376
   58SAPC   H3R 4330   5.985   5.142  10.240  0.3834  1.3471 -0.2335
   58SAPC   H3S 4331   6.072   4.989  10.215 -1.5511  0.9254 -0.1780
   58SAPC   C24 4332   6.068   5.094  10.038 -0.0466  0.1389  0.1826
   58SAPC   H4R 4333   5.978   5.034  10.014 -0.5666  0.5274  1.0909
   58SAPC   H4S 4334   6.157   5.038  10.004 -0.6892 -0.7828 -0.0058
   58SAPC   C25 4335   6.052   5.234   9.972 -0.2591  0.0223  0.3341
   58SAPC   H5R 4336   5.972   5.298  10.012  1.7132  1.3392  2.3581
   58SAPC   C26 4337   6.111   5.270   9.858 -1.1350 -0.2721 -0.4620
   58SAPC   H6R 4338   6.081   5.367   9.816 -0.3100 -0.3196 -1.1850
   58SAPC   C27 4339   6.203   5.191   9.768  0.9626 -0.1634  0.3394
   58SAPC   H7R 4340   6.143   5.154   9.682 -1.3557  1.1503  1.2933
   58SAPC   H7S 4341   6.225   5.094   9.816  2.0515 -1.5831 -2.7743
   58SAPC   C28 4342   6.333   5.257   9.735 -0.3315 -0.1683 -0.4015
   58SAPC   H8R 4343   6.406   5.250   9.818 -1.1371 -2.0598  0.2119
   58SAPC   C29 4344   6.374   5.322   9.623 -0.2315  0.0062  0.1984
   58SAPC   H9R 4345   6.478   5.358   9.626  0.1451 -1.1081  1.1169
   58SAPC  C210 4346   6.285   5.338   9.504  0.6232 -0.5031  0.1184
   58SAPC  H10R 4347   6.311   5.429   9.446 -1.1506  0.6125  0.9864
   58SAPC  H10S 4348   6.181   5.363   9.533  1.3090  1.6102  0.9706
   58SAPC  C211 4349   6.296   5.220   9.412  0.0035  0.1046 -0.2592
   58SAPC  H11R 4350   6.332   5.126   9.456 -0.8743 -0.6722 -1.1318
   58SAPC  C212 4351   6.255   5.224   9.282  0.5325  0.3112  0.6052
   58SAPC  H12R 4352   6.284   5.130   9.232  0.4439  1.5683 -2.0210
   58SAPC  C213 4353   6.196   5.330   9.196  0.4350 -0.8407  0.9379
   58SAPC  H13R 4354   6.252   5.426   9.201  0.1453 -0.4455 -1.9848
   58SAPC  H13S 4355   6.091   5.347   9.228  0.1432 -1.6962  0.4751
   58SAPC  C214 4356   6.187   5.298   9.048  0.3379 -0.1855  0.3511
   58SAPC  H14R 4357   6.102   5.230   9.028 -0.7249  0.8853  1.0752
   58SAPC  C215 4358   6.245   5.359   8.945 -0.0227 -0.2016  0.1826
   58SAPC  H15R 4359   6.226   5.326   8.842 -1.7625 -0.2423  0.4822
   58SAPC  C216 4360   6.339   5.482   8.941  1.3816  0.2296 -0.7207
   58SAPC  H16R 4361   6.434   5.456   8.889  1.3842 -0.1665 -0.5219
   58SAPC  H16S 4362   6.370   5.524   9.039  1.4034  0.8389 -0.9876
   58SAPC  C217 4363   6.281   5.614   8.873 -0.3173 -0.4858 -0.7433
   58SAPC  H17R 4364   6.350   5.695   8.906 -0.2482 -0.8905  0.1368
   58SAPC  H17S 4365   6.184   5.640   8.922  1.8830  0.3972  3.6894
   58SAPC  C218 4366   6.282   5.604   8.718 -0.0299  0.5016 -0.0451
   58SAPC  H18R 4367   6.196   5.534   8.709 -0.9514  1.2719  1.9979
   58SAPC  H18S 4368   6.383   5.563   8.698 -0.5032 -0.5342 -0.3872
   58SAPC  C219 4369   6.254   5.740   8.648  0.4201 -0.1511  0.1091
   58SAPC  H19R 4370   6.310   5.823   8.697  0.3616  0.6353 -1.1006
   58SAPC  H19S 4371   6.144   5.757   8.649  0.5982  1.0473  0.8443
   58SAPC  C220 4372   6.320   5.747   8.506 -0.0326  0.2978  0.1570
   58SAPC  H20R 4373   6.295   5.656   8.448 -0.1990 -0.2594  1.0821
   58SAPC  H20S 4374   6.429   5.734   8.521 -0.2272 -1.0401  0.5373
   58SAPC  H20T 4375   6.295   5.844   8.456 -1.2842  0.7751  1.6139
   58SAPC   C33 4376   6.266   5.672   9.810  0.0518 -0.0624  0.3093
   58SAPC   H3X 4377   6.346   5.595   9.810 -0.6095 -0.7616 -0.6315
   58SAPC   H3Y 4378   6.323   5.767   9.813 -0.9605  0.5727 -0.2301
   58SAPC   C34 4379   6.182   5.675   9.679 -0.1049  0.3458 -0.0430
   58SAPC   H4X 4380   6.099   5.748   9.682 -0.7941 -0.4094 -0.2058
   58SAPC   H4Y 4381   6.144   5.571   9.668  0.2092 -0.6731  5.3951
   58SAPC   C35 4382   6.260   5.727   9.554 -0.6487  0.5970  0.1237
   58SAPC   H5X 4383   6.342   5.663   9.514  0.2438  1.5471  0.3900
   58SAPC   H5Y 4384   6.310   5.821   9.588 -0.0484  0.1745  0.4308
   58SAPC   C36 4385   6.159   5.760   9.448  0.6209  0.1814 -0.0131
   58SAPC   H6X 4386   6.066   5.808   9.484 -0.2923 -2.5248  1.5192
   58SAPC   H6Y 4387   6.132   5.666   9.394 -0.4124  0.4827 -0.0430
   58SAPC   C37 4388   6.233   5.843   9.343  0.2869 -0.3287 -0.5185
   58SAPC   H7X 4389   6.330   5.792   9.321 -0.2842 -1.1752 -1.1236
   58SAPC   H7Y 4390   6.243   5.949   9.374  0.2113 -0.0794 -1.3218
   58SAPC   C38 4391   6.166   5.847   9.207 -0.3677 -0.7899 -0.3141
   58SAPC   H8X 4392   6.066   5.892   9.224 -0.9949 -2.0543 -0.5502
   58SAPC   H8Y 4393   6.151   5.739   9.187  1.1092 -0.6818 -2.2353
   58SAPC   C39 4394   6.232   5.925   9.089 -0.5212  0.3881  0.3328
   58SAPC   H9X 4395   6.330   5.879   9.065 -0.1204  1.6439 -0.4899
   58SAPC   H9Y 4396   6.253   6.031   9.112 -0.1185  0.4265 -0.1936
   58SAPC  C310 4397   6.149   5.934   8.957 -0.1262  0.4235 -0.0773
   58SAPC  H10X 4398   6.123   5.830   8.926  0.7983 -0.2835  1.4246
   58SAPC  H10Y 4399   6.217   5.986   8.887 -1.8722  1.0148 -1.4212
   58SAPC  C311 4400   6.020   6.013   8.970  0.1364 -0.6520  0.0404
   58SAPC  H11X 4401   6.024   6.112   9.019 -0.9433 -0.8259  0.5313
   58SAPC  H11Y 4402   5.956   5.949   9.035  0.9223 -1.5357 -0.0200
   58SAPC  C312 4403   5.945   6.037   8.833 -0.1033  0.2702  0.1994
   58SAPC  H12X 4404   5.873   6.119   8.855 -0.7343  0.1485 -1.3073
   58SAPC  H12Y 4405   5.901   5.940   8.803  3.4609 -0.8060 -2.3174
   58SAPC  C313 4406   6.028   6.079   8.712  0.2935 -0.1762  0.2823
   58SAPC  H13X 4407   6.110   6.008   8.691  0.8791  0.3780  0.6701
   58SAPC  H13Y 4408   6.073   6.177   8.737  0.9502 -0.0248 -1.3769
   58SAPC  C314 4409   5.946   6.075   8.581 -0.1582 -0.3515  0.2156
   58SAPC  H14X 4410   6.005   6.135   8.508 -1.1634  0.6646  0.1959
   58SAPC  H14Y 4411   5.858   6.141   8.594  2.2036  2.6829  2.1903
   58SAPC  C315 4412   5.913   5.938   8.533  0.7929  0.1664  0.3515
   58SAPC  H15X 4413   5.831   5.898   8.595  0.2824 -0.7388 -0.8755
   58SAPC  H15Y 4414   6.000   5.871   8.550  0.7789  0.2529  0.7766
   58SAPC  C316 4415   5.857   5.942   8.387 -0.4655  0.0488 -0.3567
   58SAPC  H16X 4416   5.934   5.972   8.314  0.1607 -1.3148 -0.2950
   58SAPC  H16Y 4417   5.775   6.016   8.392 -0.3737  0.0839  2.4732
   58SAPC  C317 4418   5.814   5.801   8.347 -0.0132 -0.5849 -0.0477
   58SAPC  H17X 4419   5.750   5.804   8.256 -0.5757 -2.4557  0.2392
   58SAPC  H17Y 4420   5.762   5.750   8.430  1.0346 -1.4622  0.1035
   58SAPC  C318 4421   5.929   5.712   8.298 -0.5567 -0.8017 -0.4672
   58SAPC  H18X 4422   5.896   5.615   8.255  0.4780 -0.9017 -1.0724
   58SAPC  H18Y 4423   5.993   5.691   8.386  0.3876 -3.3802 -1.6729
   58SAPC  H18Z 4424   5.988   5.772   8.225  1.2023  1.0667  2.2836
   59SAPC     N 4425   5.203   1.059  11.203  0.0617  0.6629 -0.0896
   59SAPC   C12 4426   5.342   1.037  11.156 -0.0486  0.0261  0.7974
   59SAPC  H12A 4427   5.347   1.031  11.048 -3.0279  0.1349  0.5698
   59SAPC  H12B 4428   5.371   0.941  11.196 -1.4542 -1.1124 -0.7982
   59SAPC   C13 4429   5.119   0.941  11.162 -1.4286 -0.1517 -0.6106
   59SAPC  H13A 4430   5.031   0.941  11.225 -0.9976  1.1161  0.0194
   59SAPC  H13B 4431   5.080   0.947  11.061  1.9905 -0.9676 -2.1181
   59SAPC  H13C 4432   5.178   0.851  11.176 -0.2475  0.6602 -0.2387
   59SAPC   C14 4433   5.202   1.058  11.353  0.7524 -0.4772  0.0564
   59SAPC  H14A 4434   5.098   1.052  11.382  0.0039  3.0827 -1.3950
   59SAPC  H14B 4435   5.266   0.980  11.392  0.5971 -1.4099 -1.4539
   59SAPC  H14C 4436   5.236   1.151  11.395 -0.3741 -1.0094  2.2734
   59SAPC   C15 4437   5.151   1.187  11.154 -0.0656  0.3287  0.1954
   59SAPC  H15A 4438   5.126   1.171  11.050 -1.4978 -0.4472  0.6294
   59SAPC  H15B 4439   5.058   1.222  11.197 -1.2711  0.7319 -2.5268
   59SAPC  H15C 4440   5.219   1.271  11.155  0.0722  0.2153  0.3884
   59SAPC   C11 4441   5.443   1.145  11.195  0.2507  0.5452 -0.3279
   59SAPC  H11A 4442   5.537   1.086  11.200 -0.7121 -0.9079  1.4691
   59SAPC  H11B 4443   5.426   1.196  11.292  0.4812  0.8794 -0.4596
   59SAPC     P 4444   5.582   1.324  11.069 -0.1843  0.0717 -0.1878
   59SAPC   O13 4445   5.565   1.467  11.093  0.6032  0.2496  0.6227
   59SAPC   O14 4446   5.689   1.268  11.159  0.0535 -0.1517  0.4739
   59SAPC   O12 4447   5.440   1.246  11.093 -0.9478  0.6274 -0.1934
   59SAPC   O11 4448   5.616   1.295  10.924  0.0985  0.0836  0.5639
   59SAPC    C1 4449   5.690   1.181  10.883  0.2885  0.5376  0.0772
   59SAPC    HA 4450   5.674   1.096  10.952  1.8956 -1.5179 -1.9203
   59SAPC    HB 4451   5.644   1.140  10.791 -0.2834  0.1064  0.5553
   59SAPC    C2 4452   5.838   1.213  10.871  0.0574  0.2876 -0.2330
   59SAPC    HS 4453   5.873   1.236  10.973  0.1259  1.0562 -0.4237
   59SAPC   O21 4454   5.853   1.330  10.791  0.2165  0.4465 -1.3650
   59SAPC   C21 4455   5.970   1.383  10.793 -0.1061 -0.1227  0.8585
   59SAPC   O22 4456   6.062   1.358  10.867  0.3566 -0.2728  0.4347
   59SAPC   C22 4457   5.967   1.491  10.681 -0.6054  0.2420  0.2676
   59SAPC   H2R 4458   5.861   1.524  10.667 -0.3924  0.4547 -0.9938
   59SAPC   H2S 4459   6.028   1.580  10.706 -2.1730  1.0651  1.3696
   59SAPC    C3 4460   5.911   1.094  10.810  0.4879  0.3852 -0.1504
   59SAPC    HX 4461   5.900   1.007  10.878 -0.1888  2.0793  2.0227
   59SAPC    HY 4462   6.022   1.094  10.811  0.5190 -0.7287  2.3249
   59SAPC   O31 4463   5.858   1.059  10.680  0.2413 -0.2030 -1.1782
   59SAPC   C31 4464   5.926   0.972  10.609  0.3533  0.1764  0.2338
   59SAPC   O32 4465   6.028   0.912  10.644  0.5398 -0.0514  0.1605
   59SAPC   C32 4466   5.862   0.940  10.477  0.0272 -0.3845  0.5218
   59SAPC   H2X 4467   5.771   1.002  10.458  1.1041  1.9204  2.3259
   59SAPC   H2Y 4468   5.829   0.834  10.479  0.5446 -0.5370  1.4589
   59SAPC   C23 4469   6.026   1.434  10.549 -0.1501 -0.1506  0.4199
   59SAPC   H3R 4470   6.135   1.418  10.565 -0.1097 -0.0399  0.2526
   59SAPC   H3S 4471   6.023   1.504  10.462  0.5104 -0.4821  0.1268
   59SAPC   C24 4472   5.955   1.315  10.485 -0.1042  0.2333 -0.0516
   59SAPC   H4R 4473   5.973   1.224  10.546 -0.4932  0.5249  0.5055
   59SAPC   H4S 4474   6.014   1.312  10.390 -0.6717 -1.2048 -0.3767
   59SAPC   C25 4475   5.807   1.350  10.461 -0.5728 -0.4204  0.1117
   59SAPC   H5R 4476   5.741   1.325  10.545 -1.1883 -0.2384 -0.3044
   59SAPC   C26 4477   5.748   1.423  10.362 -0.2774 -0.1341  0.3755
   59SAPC   H6R 4478   5.643   1.450  10.380 -0.6157 -1.6071  0.7191
   59SAPC   C27 4479   5.826   1.497  10.249  0.1505  0.4120  0.3062
   59SAPC   H7R 4480   5.936   1.490  10.253  0.3340  2.7999  0.6428
   59SAPC   H7S 4481   5.799   1.605  10.250  2.1832  0.9522  0.1323
   59SAPC   C28 4482   5.772   1.435  10.115 -0.3760  0.4543 -0.2752
   59SAPC   H8R 4483   5.663   1.441  10.099 -0.4693 -0.1329  0.0949
   59SAPC   C29 4484   5.844   1.377  10.020 -0.7909 -0.2292  0.0899
   59SAPC   H9R 4485   5.793   1.337   9.932  0.0826 -0.4832 -0.3154
   59SAPC  C210 4486   5.995   1.356  10.022 -0.6549  0.2207  0.0747
   59SAPC  H10R 4487   6.008   1.267   9.958 -1.7504 -0.0435  0.2092
   59SAPC  H10S 4488   6.033   1.335  10.125 -0.7698 -1.8962 -0.2824
   59SAPC  C211 4489   6.074   1.463   9.946  0.4847  0.7055 -0.8606
   59SAPC  H11R 4490   6.134   1.528  10.011  0.4341 -0.5987  0.5371
   59SAPC  C212 4491   6.072   1.484   9.814 -0.2185  0.0774  0.5829
   59SAPC  H12R 4492   6.129   1.571   9.778  0.9853 -0.9673 -0.1433
   59SAPC  C213 4493   5.990   1.419   9.707 -0.1742 -0.2902  0.4064
   59SAPC  H13R 4494   5.973   1.312   9.732  3.7032 -0.8800  1.1163
   59SAPC  H13S 4495   6.048   1.423   9.612  0.9993 -0.4521  1.1073
   59SAPC  C214 4496   5.857   1.489   9.683  0.2240  0.0070  0.4910
   59SAPC  H14R 4497   5.768   1.456   9.739 -1.8903  1.9210 -1.5145
   59SAPC  C215 4498   5.824   1.586   9.591  0.1146  0.3435 -0.3672
   59SAPC  H15R 4499   5.717   1.609   9.581  0.1001 -0.2704 -1.7014
   59SAPC  C216 4500   5.917   1.648   9.491  0.4102 -0.4586  0.1618
   59SAPC  H16R 4501   6.017   1.663   9.535 -0.3238 -0.6042  1.9881
   59SAPC  H16S 4502   5.884   1.748   9.456  2.0271  0.9085  2.3176
   59SAPC  C217 4503   5.926   1.556   9.363 -0.5099  0.3638 -0.4661
   59SAPC  H17R 4504   5.821   1.524   9.348 -0.1716 -0.0681 -2.2314
   59SAPC  H17S 4505   5.982   1.463   9.387  0.3318  1.4252  2.0024
   59SAPC  C218 4506   5.977   1.638   9.242 -0.2287 -0.1921  0.2533
   59SAPC  H18R 4507   6.078   1.674   9.272  1.1347 -1.5662 -2.3559
   59SAPC  H18S 4508   5.924   1.735   9.232  0.4394 -0.0263 -2.4485
   59SAPC  C219 4509   5.996   1.572   9.099 -0.3817  0.0495 -0.5792
   59SAPC  H19R 4510   6.084   1.505   9.116 -0.2837  0.0876 -0.9328
   59SAPC  H19S 4511   6.021   1.655   9.030 -1.9245  0.1395 -1.0508
   59SAPC  C220 4512   5.867   1.497   9.069  0.1155  0.6175 -0.0899
   59SAPC  H20R 4513   5.776   1.560   9.074  0.8215  1.6352  0.2609
   59SAPC  H20S 4514   5.852   1.410   9.137  2.7152 -1.6047 -2.1221
   59SAPC  H20T 4515   5.861   1.458   8.965  0.3290 -2.1490  0.8324
   59SAPC   C33 4516   5.967   0.958  10.360  0.6092 -0.2368  0.2123
   59SAPC   H3X 4517   6.049   0.883  10.370  1.8581  1.1453  0.9040
   59SAPC   H3Y 4518   6.015   1.057  10.376  0.8140  0.1671 -2.4522
   59SAPC   C34 4519   5.906   0.945  10.218  1.2543 -0.0488 -0.6370
   59SAPC   H4X 4520   5.816   1.010  10.218  0.5159 -1.0432 -0.6173
   59SAPC   H4Y 4521   5.875   0.839  10.218  1.9509 -0.3286  2.3372
   59SAPC   C35 4522   5.996   0.980  10.098  0.1907  0.7908 -0.2261
   59SAPC   H5X 4523   6.098   0.939  10.113 -0.2640  0.2333  1.6529
   59SAPC   H5Y 4524   6.007   1.089  10.113  1.3125  0.5929  0.4774
   59SAPC   C36 4525   5.936   0.943   9.964  0.5770  0.0837  0.1032
   59SAPC   H6X 4526   5.833   0.984   9.968  0.6603  0.2108  1.3236
   59SAPC   H6Y 4527   5.905   0.836   9.958 -3.2269  0.9298  1.7092
   59SAPC   C37 4528   6.005   0.993   9.835  0.4829 -0.3867 -0.4516
   59SAPC   H7X 4529   6.100   0.936   9.826  0.6368 -0.0364 -1.1432
   59SAPC   H7Y 4530   6.024   1.102   9.837  1.5182 -0.4902 -2.3145
   59SAPC   C38 4531   5.933   0.973   9.707 -0.5431 -0.1164 -0.0637
   59SAPC   H8X 4532   5.846   1.041   9.699  1.0532  2.0108 -0.4169
   59SAPC   H8Y 4533   5.899   0.867   9.700  0.1595 -0.2511 -2.4595
   59SAPC   C39 4534   6.021   1.004   9.583 -0.2509  0.2420  0.0915
   59SAPC   H9X 4535   6.105   0.935   9.564  0.3004  1.4507 -2.3236
   59SAPC   H9Y 4536   6.072   1.102   9.593  0.2691 -0.2905  4.1577
   59SAPC  C310 4537   5.927   1.005   9.462 -0.0677  0.6698  0.5359
   59SAPC  H10X 4538   5.846   1.080   9.474 -0.1519  0.7523 -0.5184
   59SAPC  H10Y 4539   5.880   0.905   9.460 -2.7352  1.8004  1.9955
   59SAPC  C311 4540   6.004   1.036   9.338  0.0354 -0.3845 -0.3509
   59SAPC  H11X 4541   6.081   0.958   9.318  1.3869  0.7462  0.3208
   59SAPC  H11Y 4542   6.055   1.131   9.365 -1.2932  0.3227 -0.2464
   59SAPC  C312 4543   5.911   1.075   9.225  0.3122  0.0273  0.6297
   59SAPC  H12X 4544   5.838   1.149   9.264 -1.2825 -1.6227  0.9138
   59SAPC  H12Y 4545   5.847   0.998   9.178 -1.3289  1.7856 -0.1298
   59SAPC  C313 4546   5.985   1.123   9.095 -0.0487  0.2100 -0.0410
   59SAPC  H13X 4547   6.058   1.041   9.078  0.7073  0.5690  1.3044
   59SAPC  H13Y 4548   6.039   1.214   9.130 -0.6125 -0.0443  1.5923
   59SAPC  C314 4549   5.900   1.156   8.980  0.1245 -0.4075  0.4005
   59SAPC  H14X 4550   5.826   1.229   9.019  1.4231  0.8114  0.6654
   59SAPC  H14Y 4551   5.842   1.064   8.956 -0.2982  0.4769 -2.4347
   59SAPC  C315 4552   5.978   1.203   8.854  0.2929 -0.2230  0.2750
   59SAPC  H15X 4553   6.069   1.144   8.830  1.0728  0.8950  0.3851
   59SAPC  H15Y 4554   6.016   1.306   8.867  1.9979 -0.6723 -0.8165
   59SAPC  C316 4555   5.889   1.200   8.732  0.0302 -0.8166 -0.2462
   59SAPC  H16X 4556   5.792   1.251   8.751  1.3491  1.0680  1.8540
   59SAPC  H16Y 4557   5.869   1.094   8.705  1.5793 -0.8065 -1.5751
   59SAPC  C317 4558   5.944   1.275   8.607 -0.0652 -0.2909  0.0845
   59SAPC  H17X 4559   5.941   1.384   8.626 -1.0825 -0.4189  0.7444
   59SAPC  H17Y 4560   5.859   1.262   8.536 -0.1995  0.9179  0.0016
   59SAPC  C318 4561   6.074   1.219   8.560  0.1942 -0.0955 -0.2083
   59SAPC  H18X 4562   6.082   1.111   8.586 -2.6709 -0.4782 -0.5654
   59SAPC  H18Y 4563   6.159   1.269   8.611  0.6180  0.7162 -1.6569
   59SAPC  H18Z 4564   6.097   1.221   8.451 -1.6212 -0.8560 -0.6475
   60SAPC     N 4565   0.906   6.352  10.831 -0.5048 -0.2487  0.5257
   60SAPC   C12 4566   0.792   6.450  10.809  0.0477  0.2911 -0.3593
   60SAPC  H12A 4567   0.778   6.509  10.898 -1.6757 -0.8746  0.2048
   60SAPC  H12B 4568   0.709   6.381  10.807  0.8641 -0.6949 -0.9417
   60SAPC   C13 4569   0.918   6.294  10.975  0.3834 -0.1156  0.1431
   60SAPC  H13A 4570   0.945   6.358  11.058  1.2858  0.4241 -0.5676
   60SAPC  H13B 4571   0.822   6.252  11.005  0.6068 -1.8161 -1.3450
   60SAPC  H13C 4572   0.983   6.208  10.974 -1.4525 -1.5988  0.3216
   60SAPC   C14 4573   0.900   6.239  10.737 -0.0541  0.3017 -0.0657
   60SAPC  H14A 4574   0.873   6.273  10.638  0.4506 -2.6090 -1.3064
   60SAPC  H14B 4575   0.993   6.183  10.737 -0.1202  0.1816 -0.8948
   60SAPC  H14C 4576   0.834   6.158  10.765  1.7784 -0.9445  0.8696
   60SAPC   C15 4577   1.042   6.422  10.804 -0.3503  0.1845  0.1451
   60SAPC  H15A 4578   1.062   6.429  10.698 -2.8928  0.3848 -0.3931
   60SAPC  H15B 4579   1.053   6.503  10.875  0.5859 -0.8739  1.2544
   60SAPC  H15C 4580   1.114   6.353  10.845 -0.2299  1.3729  2.0952
   60SAPC   C11 4581   0.782   6.524  10.672  1.5269  0.1238 -0.0457
   60SAPC  H11A 4582   0.865   6.595  10.653  2.7038 -1.5481 -1.4003
   60SAPC  H11B 4583   0.689   6.585  10.680  0.9120 -0.7466 -0.3917
   60SAPC     P 4584   0.635   6.343  10.531 -0.2160  0.3192  0.0750
   60SAPC   O13 4585   0.677   6.225  10.450  0.1377 -0.2476 -0.0057
   60SAPC   O14 4586   0.562   6.320  10.659 -0.0162 -0.3661  0.5461
   60SAPC   O12 4587   0.768   6.424  10.564 -0.1750  0.6570  0.0646
   60SAPC   O11 4588   0.555   6.445  10.443  0.0033  0.1762 -0.1338
   60SAPC    C1 4589   0.608   6.485  10.314 -0.0439 -0.3745  0.2827
   60SAPC    HA 4590   0.670   6.410  10.260  0.3426 -0.6220  1.0633
   60SAPC    HB 4591   0.512   6.491  10.257 -0.3568 -0.5598  0.7798
   60SAPC    C2 4592   0.685   6.620  10.319 -0.0251  0.1946 -0.2132
   60SAPC    HS 4593   0.784   6.593  10.362  0.6678  0.4105 -1.6163
   60SAPC   O21 4594   0.612   6.719  10.397 -0.5024 -0.1897 -0.0822
   60SAPC   C21 4595   0.675   6.835  10.428 -0.7413  0.0498  0.1605
   60SAPC   O22 4596   0.791   6.865  10.402 -0.2027  0.3338  0.3703
   60SAPC   C22 4597   0.582   6.933  10.498  0.6924 -0.3417 -0.0294
   60SAPC   H2R 4598   0.478   6.896  10.507  0.3919  0.6451  0.6454
   60SAPC   H2S 4599   0.618   6.939  10.603  0.8575 -4.3643  0.3132
   60SAPC    C3 4600   0.715   6.667  10.175 -0.3095 -0.5097 -0.0319
   60SAPC    HX 4601   0.787   6.751  10.192 -1.0085  0.0798  0.0803
   60SAPC    HY 4602   0.623   6.709  10.129  0.6409  1.8449  0.0600
   60SAPC   O31 4603   0.776   6.566  10.091  0.1155  0.6846  0.5045
   60SAPC   C31 4604   0.829   6.624   9.978 -0.3392 -0.4724  0.4529
   60SAPC   O32 4605   0.827   6.742   9.953  0.2366 -0.4636  0.5142
   60SAPC   C32 4606   0.897   6.522   9.889 -0.3373 -1.0019  0.1701
   60SAPC   H2X 4607   0.824   6.510   9.805  1.9930 -1.5554 -1.9109
   60SAPC   H2Y 4608   0.914   6.426   9.943 -0.7446 -1.3511 -0.3090
   60SAPC   C23 4609   0.570   7.063  10.419  0.2914 -0.0314  0.3187
   60SAPC   H3R 4610   0.675   7.100  10.413  0.3912 -0.2150  0.8339
   60SAPC   H3S 4611   0.516   7.146  10.470  0.9945  1.7725 -1.7026
   60SAPC   C24 4612   0.508   7.039  10.280  0.2590 -0.1760  0.0194
   60SAPC   H4R 4613   0.572   6.979  10.211 -0.7254 -2.0707  0.6912
   60SAPC   H4S 4614   0.493   7.143  10.244 -0.7204  0.0039  0.9058
   60SAPC   C25 4615   0.360   6.977  10.292 -0.6978  0.3791  0.5281
   60SAPC   H5R 4616   0.309   7.013  10.382  1.3534  0.9657  1.5251
   60SAPC   C26 4617   0.306   6.887  10.210  0.5715 -0.1123  0.1074
   60SAPC   H6R 4618   0.200   6.862  10.225  0.6715 -1.0412 -0.5903
   60SAPC   C27 4619   0.370   6.825  10.093  0.0978  0.0912  0.5356
   60SAPC   H7R 4620   0.479   6.843  10.088  0.2321 -0.5359  1.0677
   60SAPC   H7S 4621   0.327   6.878  10.005 -0.8372 -0.0595  0.8940
   60SAPC   C28 4622   0.337   6.676  10.075  0.1681  0.7599  0.5077
   60SAPC   H8R 4623   0.292   6.616  10.155  0.4696 -1.0209 -0.6159
   60SAPC   C29 4624   0.375   6.602   9.969  0.2191 -0.0380 -0.3223
   60SAPC   H9R 4625   0.365   6.493   9.959 -3.1918  0.0716  0.8398
   60SAPC  C210 4626   0.442   6.660   9.842  0.5716  0.6091  0.0352
   60SAPC  H10R 4627   0.550   6.634   9.837  0.9572  2.3271 -1.0647
   60SAPC  H10S 4628   0.439   6.771   9.843  0.8435  0.6431  2.1680
   60SAPC  C211 4629   0.379   6.604   9.716 -0.1948 -0.5825 -0.3501
   60SAPC  H11R 4630   0.312   6.519   9.732 -1.7399  0.8263  1.0663
   60SAPC  C212 4631   0.393   6.665   9.595 -0.3180 -0.0773 -0.0334
   60SAPC  H12R 4632   0.359   6.613   9.505  0.6531  1.0500 -1.0978
   60SAPC  C213 4633   0.461   6.804   9.568 -0.7465 -0.5448  0.1440
   60SAPC  H13R 4634   0.477   6.816   9.459 -2.9537 -3.0787 -0.5626
   60SAPC  H13S 4635   0.562   6.801   9.615 -1.3364  1.6494  1.7290
   60SAPC  C214 4636   0.384   6.924   9.624 -0.4873 -0.6165 -0.2567
   60SAPC  H14R 4637   0.276   6.929   9.607 -0.1439  1.4173 -2.4514
   60SAPC  C215 4638   0.448   7.022   9.685  0.2800 -0.0892 -0.5246
   60SAPC  H15R 4639   0.386   7.112   9.693 -1.0139 -0.8921 -1.1537
   60SAPC  C216 4640   0.592   7.042   9.725  0.1932 -0.2795  0.3151
   60SAPC  H16R 4641   0.624   7.116   9.648  1.0263  1.4572  2.2266
   60SAPC  H16S 4642   0.658   6.953   9.722 -0.1922 -0.5360 -1.4385
   60SAPC  C217 4643   0.606   7.117   9.857  0.3158  0.9212  1.1409
   60SAPC  H17R 4644   0.711   7.118   9.893  0.3813  2.1158  0.9472
   60SAPC  H17S 4645   0.548   7.053   9.927  0.4848 -1.0295 -0.3987
   60SAPC  C218 4646   0.549   7.260   9.858 -0.0486 -0.3864  0.2616
   60SAPC  H18R 4647   0.445   7.259   9.818 -1.1062  0.0531  2.8490
   60SAPC  H18S 4648   0.610   7.320   9.787  0.1022 -0.7772  0.0630
   60SAPC  C219 4649   0.556   7.316  10.004  0.2292  0.3715  0.5175
   60SAPC  H19R 4650   0.481   7.259  10.063  0.2187 -1.6499 -1.2783
   60SAPC  H19S 4651   0.518   7.420  10.004 -1.0951 -0.0576 -1.0588
   60SAPC  C220 4652   0.688   7.315  10.071 -0.0725 -0.7512  0.0367
   60SAPC  H20R 4653   0.682   7.383  10.158 -1.1417 -1.0407  0.2025
   60SAPC  H20S 4654   0.763   7.352   9.997 -1.0507  1.8660  0.2301
   60SAPC  H20T 4655   0.711   7.213  10.108 -0.4108 -2.4222 -3.9013
   60SAPC   C33 4656   1.025   6.583   9.828  0.6448 -0.4618 -0.2470
   60SAPC   H3X 4657   1.111   6.571   9.898  1.5106  0.4354 -1.1196
   60SAPC   H3Y 4658   1.010   6.691   9.809  0.7820 -0.0780  1.5760
   60SAPC   C34 4659   1.044   6.520   9.691  0.1817  0.7271  0.4782
   60SAPC   H4X 4660   0.947   6.510   9.637  1.0073  1.3456 -1.1951
   60SAPC   H4Y 4661   1.078   6.416   9.710 -0.4840  0.8364  2.4932
   60SAPC   C35 4662   1.158   6.591   9.616  0.7638  0.3184 -0.3544
   60SAPC   H5X 4663   1.243   6.583   9.687 -0.3735 -2.3226  0.8804
   60SAPC   H5Y 4664   1.119   6.693   9.594 -0.9521 -0.4301 -0.9774
   60SAPC   C36 4665   1.203   6.505   9.498 -0.3606 -0.3126 -0.0308
   60SAPC   H6X 4666   1.111   6.476   9.445  0.3657 -2.7263 -0.1026
   60SAPC   H6Y 4667   1.260   6.416   9.534 -0.4579 -0.3695 -0.0197
   60SAPC   C37 4668   1.299   6.591   9.421 -0.0717  0.7485  0.4379
   60SAPC   H7X 4669   1.381   6.605   9.495  0.5750  0.3724 -0.1840
   60SAPC   H7Y 4670   1.259   6.693   9.406 -0.4786  0.5881  0.4214
   60SAPC   C38 4671   1.340   6.512   9.292  0.7414  0.0331 -0.5369
   60SAPC   H8X 4672   1.379   6.412   9.321 -0.4387  0.0671  1.3105
   60SAPC   H8Y 4673   1.408   6.577   9.233 -1.1305  1.2896 -1.4015
   60SAPC   C39 4674   1.224   6.497   9.196  0.2167  0.2921  0.2179
   60SAPC   H9X 4675   1.171   6.594   9.184 -0.3168 -0.0906 -0.6511
   60SAPC   H9Y 4676   1.149   6.423   9.230  1.2742 -0.3553  1.2173
   60SAPC  C310 4677   1.262   6.448   9.051 -0.3449 -0.6865  0.5270
   60SAPC  H10X 4678   1.164   6.425   9.003 -2.0216  0.8401  2.9645
   60SAPC  H10Y 4679   1.334   6.364   9.063  0.2385 -0.3932 -0.7246
   60SAPC  C311 4680   1.329   6.556   8.965  0.1590 -0.3436  0.2923
   60SAPC  H11X 4681   1.430   6.581   9.006  0.4160 -1.2211  0.2114
   60SAPC  H11Y 4682   1.267   6.648   8.969  0.2982 -0.1165 -1.6815
   60SAPC  C312 4683   1.335   6.520   8.814 -0.1725 -0.4041 -0.2540
   60SAPC  H12X 4684   1.235   6.486   8.778 -0.9066  0.5820  0.7730
   60SAPC  H12Y 4685   1.401   6.431   8.807 -0.0711 -0.2713 -1.0327
   60SAPC  C313 4686   1.402   6.630   8.725 -0.0671 -0.2221 -0.5506
   60SAPC  H13X 4687   1.412   6.583   8.624  0.4620  0.7579 -0.9650
   60SAPC  H13Y 4688   1.502   6.647   8.769 -0.4274  1.4967 -0.3187
   60SAPC  C314 4689   1.334   6.767   8.716 -0.3965  0.2089  0.2370
   60SAPC  H14X 4690   1.287   6.784   8.815  0.7222  0.7058  0.6959
   60SAPC  H14Y 4691   1.251   6.773   8.643  0.1085  4.3910 -0.2578
   60SAPC  C315 4692   1.436   6.880   8.682  0.4281  0.2817  0.4523
   60SAPC  H15X 4693   1.382   6.969   8.643  1.2458 -0.5033 -2.7520
   60SAPC  H15Y 4694   1.509   6.851   8.604  1.4095 -0.0797  1.4707
   60SAPC  C316 4695   1.515   6.925   8.808  0.0785 -0.0021  0.2280
   60SAPC  H16X 4696   1.604   6.861   8.827 -1.1094 -1.5858  0.7276
   60SAPC  H16Y 4697   1.453   6.914   8.900 -0.5574  0.0376 -0.1913
   60SAPC  C317 4698   1.556   7.064   8.811 -0.3191 -0.9805 -0.0069
   60SAPC  H17X 4699   1.480   7.140   8.781  1.1737  1.0198  0.9830
   60SAPC  H17Y 4700   1.641   7.073   8.740  0.2081  1.8517  0.8309
   60SAPC  C318 4701   1.620   7.112   8.939  0.7744 -0.0235  0.5939
   60SAPC  H18X 4702   1.559   7.114   9.031  0.7394  0.9489  0.5623
   60SAPC  H18Y 4703   1.659   7.215   8.923 -0.4372  0.5569  1.2301
   60SAPC  H18Z 4704   1.713   7.053   8.953 -0.6149 -2.6205 -0.3851
   61SAPC     N 4705   2.705   5.430  10.817 -0.1610  0.3786  0.0807
   61SAPC   C12 4706   2.771   5.559  10.867  0.1928 -0.2917  0.1177
   61SAPC  H12A 4707   2.809   5.551  10.968 -0.0268 -0.2509  0.2035
   61SAPC  H12B 4708   2.685   5.624  10.876  0.1023 -0.4749  0.6129
   61SAPC   C13 4709   2.643   5.444  10.683 -0.0905 -0.4610 -0.0729
   61SAPC  H13A 4710   2.590   5.352  10.665  1.2681 -1.4668  0.8371
   61SAPC  H13B 4711   2.572   5.524  10.675  0.5889  0.5391  2.6812
   61SAPC  H13C 4712   2.715   5.471  10.606 -0.0845  0.8828  0.3884
   61SAPC   C14 4713   2.806   5.320  10.796 -0.8078  0.3665 -0.1609
   61SAPC  H14A 4714   2.889   5.352  10.735 -1.9182  1.2996 -1.2346
   61SAPC  H14B 4715   2.848   5.294  10.892  0.9654 -0.3374 -1.0779
   61SAPC  H14C 4716   2.764   5.236  10.743  0.3369  1.2638 -2.6947
   61SAPC   C15 4717   2.608   5.390  10.917 -0.1126  0.6884 -0.5130
   61SAPC  H15A 4718   2.556   5.300  10.888  0.6108  0.2401 -0.4307
   61SAPC  H15B 4719   2.651   5.372  11.014 -1.7510  1.1838  0.3384
   61SAPC  H15C 4720   2.531   5.465  10.931  0.0671  0.8980 -0.6417
   61SAPC   C11 4721   2.872   5.621  10.765  0.3025 -0.2474  0.1595
   61SAPC  H11A 4722   2.951   5.550  10.733  0.3616 -0.1384  0.0621
   61SAPC  H11B 4723   2.927   5.705  10.812 -0.1328  1.0597 -1.5315
   61SAPC     P 4724   2.723   5.809  10.654 -0.0987 -0.1025 -0.0228
   61SAPC   O13 4725   2.600   5.804  10.737 -0.0840  0.1804  0.2759
   61SAPC   O14 4726   2.825   5.910  10.675 -0.3905 -0.0397  0.3507
   61SAPC   O12 4727   2.800   5.663  10.651  0.0886 -0.3061  0.6556
   61SAPC   O11 4728   2.684   5.822  10.499 -0.7546 -0.0609  0.4976
   61SAPC    C1 4729   2.760   5.756  10.397 -0.2570 -0.6527  0.3382
   61SAPC    HA 4730   2.870   5.769  10.403 -0.2236  0.5355 -2.0684
   61SAPC    HB 4731   2.739   5.647  10.402 -2.7667 -0.1960  1.5339
   61SAPC    C2 4732   2.713   5.800  10.256  0.2504  0.5908 -0.0908
   61SAPC    HS 4733   2.738   5.723  10.180  0.3538  1.4963 -0.9919
   61SAPC   O21 4734   2.777   5.921  10.214  0.7982 -0.0413 -0.1224
   61SAPC   C21 4735   2.901   5.915  10.174  0.0877  0.1468 -0.1355
   61SAPC   O22 4736   2.964   5.810  10.157  0.3191  0.4580  0.1596
   61SAPC   C22 4737   2.960   6.049  10.146 -0.2768  0.1785 -0.1649
   61SAPC   H2R 4738   2.966   6.093  10.248  0.0874 -0.4053  0.0656
   61SAPC   H2S 4739   3.059   6.036  10.098 -1.5329  0.8403 -3.1875
   61SAPC    C3 4740   2.554   5.800  10.247 -0.1611 -0.4169 -0.3670
   61SAPC    HX 4741   2.523   5.845  10.344  2.2466 -2.0095  1.2766
   61SAPC    HY 4742   2.520   5.694  10.254 -1.1187 -0.0664  0.5595
   61SAPC   O31 4743   2.491   5.844  10.132  0.1364  0.0106  0.3172
   61SAPC   C31 4744   2.477   5.972  10.126  0.0163 -0.4119  1.1899
   61SAPC   O32 4745   2.503   6.050  10.215 -0.0546  0.1265 -0.9156
   61SAPC   C32 4746   2.403   6.013  10.001 -0.4948 -0.8930  0.0263
   61SAPC   H2X 4747   2.306   6.060  10.026  0.0710  0.0301  0.5330
   61SAPC   H2Y 4748   2.380   5.924   9.939 -0.9227 -1.2964  0.7549
   61SAPC   C23 4749   2.877   6.133  10.055 -0.8266 -0.0116  0.6645
   61SAPC   H3R 4750   2.771   6.133  10.088 -1.1860 -2.3293 -0.3121
   61SAPC   H3S 4751   2.879   6.078   9.959  2.3361  0.2251  0.4877
   61SAPC   C24 4752   2.949   6.271  10.027  0.0856  0.3495  1.3371
   61SAPC   H4R 4753   2.909   6.306   9.929  1.1503 -0.1468  0.7049
   61SAPC   H4S 4754   3.057   6.254  10.005  0.1876  2.1604  0.1962
   61SAPC   C25 4755   2.926   6.375  10.134  0.1881 -0.3642 -0.1897
   61SAPC   H5R 4756   3.011   6.376  10.204 -1.1299 -0.2747  1.4482
   61SAPC   C26 4757   2.822   6.456  10.141  0.6936  0.3905  0.3373
   61SAPC   H6R 4758   2.824   6.530  10.222 -1.4626 -0.0443  0.8401
   61SAPC   C27 4759   2.703   6.455  10.040 -0.2863  0.4609 -0.3255
   61SAPC   H7R 4760   2.702   6.364   9.977  1.4579  1.1838 -1.4814
   61SAPC   H7S 4761   2.716   6.530   9.959  1.5967 -0.4874 -0.9590
   61SAPC   C28 4762   2.563   6.467  10.103 -0.1279 -0.3012 -0.3464
   61SAPC   H8R 4763   2.524   6.389  10.169 -0.0950  0.0192  0.0537
   61SAPC   C29 4764   2.463   6.549  10.058 -0.0315 -0.3571  0.3159
   61SAPC   H9R 4765   2.372   6.549  10.119  0.8443 -1.9537  1.7339
   61SAPC  C210 4766   2.472   6.651   9.947  0.5936 -0.4160  0.1190
   61SAPC  H10R 4767   2.519   6.616   9.852 -1.0370  0.1198 -0.9285
   61SAPC  H10S 4768   2.524   6.742   9.983  0.4190 -0.3762  0.2730
   61SAPC  C211 4769   2.333   6.691   9.909 -0.1739 -0.7563  0.4941
   61SAPC  H11R 4770   2.281   6.728   9.999  1.8611  0.8008  1.1010
   61SAPC  C212 4771   2.281   6.693   9.784  0.3957  0.3934 -0.4032
   61SAPC  H12R 4772   2.177   6.730   9.776 -0.0763 -0.7017  0.4352
   61SAPC  C213 4773   2.357   6.661   9.659 -0.3996 -0.9291 -0.0741
   61SAPC  H13R 4774   2.414   6.566   9.671 -1.0662 -1.3754 -0.3689
   61SAPC  H13S 4775   2.425   6.749   9.658  0.5835 -1.6296  1.4565
   61SAPC  C214 4776   2.275   6.650   9.534  0.1118  0.1529  1.1537
   61SAPC  H14R 4777   2.285   6.552   9.485 -0.3397  1.7131 -2.3700
   61SAPC  C215 4778   2.229   6.752   9.455  0.0846  0.4149  0.7928
   61SAPC  H15R 4779   2.167   6.724   9.369 -0.3555 -1.1740  1.6065
   61SAPC  C216 4780   2.234   6.902   9.468  0.7638  0.6675  0.3083
   61SAPC  H16R 4781   2.320   6.942   9.409  0.5283 -0.2483 -0.7046
   61SAPC  H16S 4782   2.256   6.910   9.576 -1.2893 -1.3230  0.9387
   61SAPC  C217 4783   2.099   6.971   9.432  0.0612  0.5761 -0.3674
   61SAPC  H17R 4784   2.126   7.077   9.450 -0.7554  0.6586  0.4211
   61SAPC  H17S 4785   2.023   6.943   9.508  1.0174  1.4582  0.9533
   61SAPC  C218 4786   2.034   6.951   9.291  0.3739 -0.0750 -0.4812
   61SAPC  H18R 4787   1.959   7.033   9.280  0.6487  0.2907  0.2807
   61SAPC  H18S 4788   1.979   6.855   9.289 -0.7540  0.5553 -0.6147
   61SAPC  C219 4789   2.125   6.957   9.174 -0.8111  0.3259 -0.1662
   61SAPC  H19R 4790   2.070   6.930   9.081  1.6970 -2.4836 -0.9722
   61SAPC  H19S 4791   2.208   6.883   9.172 -3.0923 -2.4294 -2.2008
   61SAPC  C220 4792   2.195   7.092   9.159 -0.2469 -0.5223  0.4981
   61SAPC  H20R 4793   2.121   7.174   9.172 -0.3250 -0.2046 -1.6170
   61SAPC  H20S 4794   2.242   7.092   9.059 -0.0566 -1.8572  0.5643
   61SAPC  H20T 4795   2.276   7.107   9.234  0.5341 -2.9406  0.2193
   61SAPC   C33 4796   2.478   6.106   9.906  0.1160  0.2940 -0.0396
   61SAPC   H3X 4797   2.524   6.193   9.957  3.4288 -0.2300 -1.8549
   61SAPC   H3Y 4798   2.414   6.153   9.829  0.7759  1.1092 -0.1002
   61SAPC   C34 4799   2.592   6.037   9.829 -0.2901 -0.0966 -0.8659
   61SAPC   H4X 4800   2.550   5.951   9.772  0.6811  1.2760 -3.8766
   61SAPC   H4Y 4801   2.651   5.997   9.914 -1.1660  0.0781 -0.1612
   61SAPC   C35 4802   2.674   6.134   9.745  0.2480 -0.5147  0.6264
   61SAPC   H5X 4803   2.761   6.074   9.708  0.5011  1.1292 -1.6420
   61SAPC   H5Y 4804   2.712   6.214   9.813 -0.1944  0.5439 -0.3519
   61SAPC   C36 4805   2.598   6.197   9.627 -0.5433  0.0993 -0.0278
   61SAPC   H6X 4806   2.504   6.248   9.658 -1.5973  0.2201 -3.0680
   61SAPC   H6Y 4807   2.580   6.128   9.542 -0.3688 -2.0112  1.5696
   61SAPC   C37 4808   2.691   6.308   9.572 -0.3732 -0.3122 -0.6575
   61SAPC   H7X 4809   2.787   6.262   9.541 -0.5562 -1.4616  0.3827
   61SAPC   H7Y 4810   2.706   6.381   9.654  0.9399 -0.9046 -0.3411
   61SAPC   C38 4811   2.633   6.371   9.441  0.0249  0.4096  0.4077
   61SAPC   H8X 4812   2.538   6.420   9.471  0.2061  0.7754  0.3780
   61SAPC   H8Y 4813   2.603   6.285   9.376 -0.6693 -0.9806  2.4713
   61SAPC   C39 4814   2.728   6.475   9.370  0.0915  0.3429  0.4077
   61SAPC   H9X 4815   2.828   6.427   9.373 -0.4513 -1.0931 -1.8939
   61SAPC   H9Y 4816   2.733   6.571   9.426  1.5529  1.0552 -0.8828
   61SAPC  C310 4817   2.694   6.495   9.220 -0.1293  0.0482 -0.0305
   61SAPC  H10X 4818   2.623   6.581   9.217  2.5191  2.3884 -0.0340
   61SAPC  H10Y 4819   2.652   6.406   9.169  1.8943  0.2001 -2.1779
   61SAPC  C311 4820   2.828   6.546   9.152  0.3967 -1.0485 -0.4700
   61SAPC  H11X 4821   2.905   6.465   9.149  1.3134 -0.3290  1.8059
   61SAPC  H11Y 4822   2.866   6.633   9.210  0.4632 -1.9496  0.8912
   61SAPC  C312 4823   2.795   6.606   9.015  0.1604  0.0480 -0.4781
   61SAPC  H12X 4824   2.730   6.693   9.038  2.1088  1.5328 -0.3524
   61SAPC  H12Y 4825   2.745   6.528   8.953  0.8655 -0.3251 -0.5875
   61SAPC  C313 4826   2.916   6.658   8.941 -0.0967  0.2317 -0.5495
   61SAPC  H13X 4827   3.000   6.586   8.948 -0.8739 -0.5747  1.2796
   61SAPC  H13Y 4828   2.948   6.751   8.993  0.4937 -0.3002  0.0502
   61SAPC  C314 4829   2.884   6.696   8.796 -0.4432 -0.0996  0.5356
   61SAPC  H14X 4830   2.963   6.763   8.756 -1.0023 -0.9802 -2.2650
   61SAPC  H14Y 4831   2.787   6.751   8.795 -0.2223  0.2959  0.6999
   61SAPC  C315 4832   2.867   6.572   8.710 -0.1385  0.2622 -0.4478
   61SAPC  H15X 4833   2.788   6.505   8.750  0.4170 -0.9369 -1.2966
   61SAPC  H15Y 4834   2.963   6.518   8.703 -0.7713 -0.7907 -1.3244
   61SAPC  C316 4835   2.821   6.613   8.569  0.3555  0.0645 -0.6168
   61SAPC  H16X 4836   2.885   6.699   8.538  1.6176 -1.1550 -1.4836
   61SAPC  H16Y 4837   2.719   6.653   8.591  1.2254  2.2700 -0.2810
   61SAPC  C317 4838   2.828   6.498   8.474  0.0786  0.0887 -1.0027
   61SAPC  H17X 4839   2.767   6.414   8.515 -0.4537  0.8046 -0.3020
   61SAPC  H17Y 4840   2.932   6.459   8.467 -0.1537 -0.9773  0.6916
   61SAPC  C318 4841   2.789   6.529   8.331 -0.1402 -0.0576  0.5725
   61SAPC  H18X 4842   2.788   6.636   8.301  0.2186  0.4296  2.1950
   61SAPC  H18Y 4843   2.692   6.485   8.301 -0.5551  0.9222  0.4265
   61SAPC  H18Z 4844   2.848   6.468   8.259 -0.6638  0.6688 -0.5101
   62SAPC     N 4845   2.136   4.559  10.580  0.9679  0.0917 -0.6276
   62SAPC   C12 4846   2.006   4.634  10.607  0.7039  0.1449  0.1121
   62SAPC  H12A 4847   1.975   4.698  10.525 -1.8080  0.5411  1.2817
   62SAPC  H12B 4848   2.029   4.705  10.685  2.1604  1.8426 -1.7689
   62SAPC   C13 4849   2.113   4.467  10.459 -0.5131 -0.0567  0.5393
   62SAPC  H13A 4850   2.016   4.419  10.454  0.1317 -1.3325 -0.2419
   62SAPC  H13B 4851   2.132   4.520  10.367  3.5598 -1.8461  0.1597
   62SAPC  H13C 4852   2.190   4.392  10.465  1.9074  2.1890 -0.3062
   62SAPC   C14 4853   2.247   4.651  10.552  0.1518 -0.4441  0.2275
   62SAPC  H14A 4854   2.228   4.708  10.462  2.6726  0.9408  0.4782
   62SAPC  H14B 4855   2.260   4.720  10.634 -0.3940 -1.3403  1.0905
   62SAPC  H14C 4856   2.338   4.601  10.522 -0.3563 -1.3955  0.2171
   62SAPC   C15 4857   2.174   4.467  10.689  0.4462 -0.1700 -0.1402
   62SAPC  H15A 4858   2.223   4.524  10.766 -0.1378 -0.3485  0.3686
   62SAPC  H15B 4859   2.089   4.423  10.738 -0.1529  2.6360  1.5579
   62SAPC  H15C 4860   2.250   4.401  10.649  2.0728  1.7876 -0.4663
   62SAPC   C11 4861   1.881   4.558  10.653 -0.3061 -0.3877  0.1076
   62SAPC  H11A 4862   1.796   4.629  10.664  0.9081  1.1550 -0.1489
   62SAPC  H11B 4863   1.896   4.516  10.755 -0.1573  3.5034  1.8641
   62SAPC     P 4864   1.741   4.353  10.563  0.0825 -0.2972  0.2506
   62SAPC   O13 4865   1.820   4.248  10.625  0.0543  0.1120 -0.5069
   62SAPC   O14 4866   1.630   4.396  10.642  0.2824 -0.3142  0.5257
   62SAPC   O12 4867   1.833   4.473  10.540  0.1231  0.4667 -0.1908
   62SAPC   O11 4868   1.703   4.317  10.414  0.2862  0.0095  0.7709
   62SAPC    C1 4869   1.718   4.186  10.363  0.3937  0.3345  0.0975
   62SAPC    HA 4870   1.780   4.113  10.419  0.1276 -0.9760 -1.2347
   62SAPC    HB 4871   1.624   4.127  10.360  1.9702 -2.3212 -1.4273
   62SAPC    C2 4872   1.793   4.183  10.222 -0.3050 -0.1860 -0.4689
   62SAPC    HS 4873   1.890   4.237  10.221 -1.0194  1.2119  0.9878
   62SAPC   O21 4874   1.705   4.239  10.128  0.5650  0.4437 -0.0887
   62SAPC   C21 4875   1.707   4.377  10.131  0.4635 -0.6044  0.2298
   62SAPC   O22 4876   1.802   4.446  10.162 -0.6381  0.2196  0.5062
   62SAPC   C22 4877   1.588   4.421  10.060  0.7315  0.1656 -0.4818
   62SAPC   H2R 4878   1.610   4.406   9.953  1.3139  1.7771 -0.6169
   62SAPC   H2S 4879   1.493   4.364  10.071  1.0163 -0.7101 -2.2732
   62SAPC    C3 4880   1.827   4.040  10.176 -1.0994 -0.5450  0.8873
   62SAPC    HX 4881   1.732   3.983  10.187 -1.1539 -0.7988 -0.6593
   62SAPC    HY 4882   1.908   4.002  10.243 -0.4570 -2.4922 -0.8646
   62SAPC   O31 4883   1.878   4.043  10.042  0.6725  0.3481  0.5676
   62SAPC   C31 4884   1.809   4.001   9.938 -0.0481  0.4989 -0.2711
   62SAPC   O32 4885   1.695   3.957   9.944 -0.0198 -0.9258  0.2117
   62SAPC   C32 4886   1.887   4.014   9.809 -0.1280 -0.1397  1.1931
   62SAPC   H2X 4887   1.849   3.937   9.739  0.3851 -0.6021  1.4228
   62SAPC   H2Y 4888   1.992   3.980   9.815 -0.3392 -1.7740 -2.1223
   62SAPC   C23 4889   1.547   4.566  10.083  0.0209 -0.6680 -0.6325
   62SAPC   H3R 4890   1.543   4.596  10.190  0.6543 -0.3048 -0.7076
   62SAPC   H3S 4891   1.442   4.574  10.050 -0.1808  1.5651  0.3970
   62SAPC   C24 4892   1.638   4.659  10.004 -0.5806 -0.3976  0.3728
   62SAPC   H4R 4893   1.738   4.647  10.051 -0.9873 -0.8426  1.1557
   62SAPC   H4S 4894   1.609   4.764  10.023  1.8186  0.0824  1.6948
   62SAPC   C25 4895   1.646   4.638   9.854  0.5688  0.1978  0.6666
   62SAPC   H5R 4896   1.549   4.642   9.803  0.8787 -0.6927 -0.0046
   62SAPC   C26 4897   1.760   4.615   9.783 -0.4542 -0.3494  0.2914
   62SAPC   H6R 4898   1.762   4.621   9.674  2.2861 -0.7169  0.2363
   62SAPC   C27 4899   1.893   4.605   9.844 -0.3227  0.6415  1.1948
   62SAPC   H7R 4900   1.953   4.537   9.780 -1.8128  0.2409  0.1684
   62SAPC   H7S 4901   1.890   4.548   9.939  0.6435  2.6510  2.5067
   62SAPC   C28 4902   1.979   4.731   9.854 -0.5277  0.3548  0.0124
   62SAPC   H8R 4903   1.935   4.830   9.839 -2.3281  0.0218  2.3809
   62SAPC   C29 4904   2.114   4.723   9.890  0.8647  0.4460  0.5095
   62SAPC   H9R 4905   2.161   4.822   9.896 -0.2602  1.3739 -3.2824
   62SAPC  C210 4906   2.195   4.597   9.923  0.4997 -0.5130  0.2787
   62SAPC  H10R 4907   2.136   4.505   9.903 -2.3961  1.2336  0.1986
   62SAPC  H10S 4908   2.218   4.585  10.031 -0.8311  2.7743  1.0486
   62SAPC  C211 4909   2.328   4.588   9.852  0.1280 -0.3176 -0.7149
   62SAPC  H11R 4910   2.409   4.645   9.899 -1.2009  1.9348 -0.9860
   62SAPC  C212 4911   2.348   4.541   9.726 -0.1330  0.5165 -0.8798
   62SAPC  H12R 4912   2.444   4.569   9.680  0.0209  0.8776 -0.3463
   62SAPC  C213 4913   2.237   4.489   9.640  0.3525  0.0534  0.1753
   62SAPC  H13R 4914   2.138   4.475   9.688  0.5048 -2.6419 -0.1185
   62SAPC  H13S 4915   2.268   4.388   9.605  0.9413 -0.3074  1.6909
   62SAPC  C214 4916   2.220   4.575   9.518 -0.4101  0.0858  0.8067
   62SAPC  H14R 4917   2.197   4.682   9.530 -1.6094 -0.1914  1.2034
   62SAPC  C215 4918   2.210   4.533   9.391  0.4498  0.1638 -0.1564
   62SAPC  H15R 4919   2.186   4.613   9.319  1.9425  1.2046  0.4587
   62SAPC  C216 4920   2.214   4.398   9.328 -0.1804 -0.0167  0.4793
   62SAPC  H16R 4921   2.114   4.370   9.287  0.9284 -0.1963 -2.3118
   62SAPC  H16S 4922   2.236   4.323   9.408 -0.6038  1.7868  2.3692
   62SAPC  C217 4923   2.323   4.391   9.218  0.1740 -0.3426 -0.2070
   62SAPC  H17R 4924   2.343   4.282   9.212 -1.6531 -0.7191  0.0047
   62SAPC  H17S 4925   2.420   4.438   9.244  1.0473 -1.4805 -1.2700
   62SAPC  C218 4926   2.270   4.457   9.089 -0.4581  0.5110 -0.5323
   62SAPC  H18R 4927   2.231   4.561   9.092  2.2875  1.7080 -2.4264
   62SAPC  H18S 4928   2.197   4.386   9.044  0.6258  0.8365 -2.9843
   62SAPC  C219 4929   2.377   4.455   8.981  0.4918 -0.2670 -0.3764
   62SAPC  H19R 4930   2.418   4.352   8.973  0.2004 -0.2958 -1.7613
   62SAPC  H19S 4931   2.453   4.530   9.013 -0.9957  1.2876 -0.3107
   62SAPC  C220 4932   2.331   4.492   8.838  0.3686  0.0031  0.5064
   62SAPC  H20R 4933   2.414   4.489   8.763  1.3864 -1.6319  1.6240
   62SAPC  H20S 4934   2.283   4.591   8.834  1.3176  0.5910  2.5270
   62SAPC  H20T 4935   2.256   4.424   8.791  0.1951  0.7788 -0.3669
   62SAPC   C33 4936   1.876   4.154   9.755  1.0336  0.0235 -0.2684
   62SAPC   H3X 4937   1.929   4.224   9.823  0.4050  0.6035 -0.3600
   62SAPC   H3Y 4938   1.774   4.197   9.748  0.8486 -0.5826 -1.5658
   62SAPC   C34 4939   1.945   4.181   9.614 -0.8113 -0.5894 -0.5804
   62SAPC   H4X 4940   2.051   4.148   9.610 -1.5753 -3.2666 -0.8224
   62SAPC   H4Y 4941   1.929   4.290   9.598  0.6306 -0.4665 -1.3719
   62SAPC   C35 4942   1.872   4.119   9.496 -0.2629 -0.6022  0.0502
   62SAPC   H5X 4943   1.765   4.148   9.507  0.4396  2.7498 -0.8467
   62SAPC   H5Y 4944   1.873   4.009   9.512 -0.7627 -0.6432 -0.1907
   62SAPC   C36 4945   1.945   4.142   9.363 -0.8390 -0.9691  0.1133
   62SAPC   H6X 4946   2.044   4.090   9.370  0.0442  0.5196 -0.8349
   62SAPC   H6Y 4947   1.964   4.249   9.343 -0.5255 -0.9809  0.3411
   62SAPC   C37 4948   1.862   4.094   9.245  0.4872 -0.5105  0.1661
   62SAPC   H7X 4949   1.773   4.159   9.233 -0.5322 -2.1299 -1.6148
   62SAPC   H7Y 4950   1.824   3.995   9.277 -2.3973  0.5904  0.3560
   62SAPC   C38 4951   1.945   4.090   9.113 -0.9000 -0.5357  0.4026
   62SAPC   H8X 4952   2.035   4.038   9.153  0.2607  2.4128  1.8701
   62SAPC   H8Y 4953   1.983   4.190   9.084 -0.6488 -0.8547 -0.3977
   62SAPC   C39 4954   1.871   4.021   8.992 -0.0324 -0.2321 -0.1277
   62SAPC   H9X 4955   1.781   4.077   8.957 -0.7587 -0.8134  0.7477
   62SAPC   H9Y 4956   1.824   3.929   9.035 -0.7376 -0.5168 -1.4411
   62SAPC  C310 4957   1.972   3.982   8.888  0.3364  0.4652  0.3790
   62SAPC  H10X 4958   1.925   3.940   8.795  1.8516  1.0570 -0.6946
   62SAPC  H10Y 4959   2.024   3.894   8.932 -2.7358 -0.8102  1.7118
   62SAPC  C311 4960   2.066   4.098   8.848  0.3541  0.3980 -0.0916
   62SAPC  H11X 4961   2.146   4.114   8.922  2.0941 -1.2512 -1.5138
   62SAPC  H11Y 4962   2.004   4.190   8.838 -0.1964 -0.0779 -1.2823
   62SAPC  C312 4963   2.128   4.072   8.716  0.6324 -0.6986  0.2602
   62SAPC  H12X 4964   2.058   4.062   8.630  0.9182  2.9103 -0.5523
   62SAPC  H12Y 4965   2.190   3.980   8.718  0.0279 -1.1489 -0.8839
   62SAPC  C313 4966   2.231   4.184   8.676  0.3942  0.0042 -0.0090
   62SAPC  H13X 4967   2.304   4.196   8.759  0.6220 -2.0331  0.1375
   62SAPC  H13Y 4968   2.157   4.267   8.675 -3.8618 -3.3683  0.4905
   62SAPC  C314 4969   2.292   4.151   8.538 -0.3713 -0.4690 -0.3692
   62SAPC  H14X 4970   2.212   4.146   8.462 -0.0988  3.1610 -1.0992
   62SAPC  H14Y 4971   2.339   4.050   8.539  1.0860  0.1337 -2.3307
   62SAPC  C315 4972   2.409   4.245   8.485 -0.2548 -0.0069  0.2683
   62SAPC  H15X 4973   2.480   4.254   8.570 -1.8426  0.4936  1.6023
   62SAPC  H15Y 4974   2.370   4.348   8.469 -1.3513 -0.6255 -1.2276
   62SAPC  C316 4975   2.479   4.189   8.358  0.4175 -0.2968  0.0143
   62SAPC  H16X 4976   2.488   4.080   8.376 -2.4089 -0.4422  1.2010
   62SAPC  H16Y 4977   2.581   4.231   8.348  1.5176 -2.1908  2.3405
   62SAPC  C317 4978   2.399   4.210   8.229 -0.2726  0.3241 -0.0669
   62SAPC  H17X 4979   2.396   4.315   8.195  2.0871 -0.4364 -3.0394
   62SAPC  H17Y 4980   2.296   4.173   8.247 -0.4266  0.6668 -0.2446
   62SAPC  C318 4981   2.463   4.127   8.118  0.6395  0.0605  0.1849
   62SAPC  H18X 4982   2.557   4.178   8.088  0.8453 -0.1121  0.5394
   62SAPC  H18Y 4983   2.406   4.109   8.024  2.8627  0.2979 -1.2783
   62SAPC  H18Z 4984   2.496   4.034   8.167 -0.5311  0.1948  1.2696
   63SAPC     N 4985   4.165   2.944   6.016 -0.1772  1.5473 -0.6361
   63SAPC   C12 4986   4.284   2.925   6.111 -0.3664  0.5832 -0.0655
   63SAPC  H12A 4987   4.346   3.013   6.113  0.7085 -0.1192 -0.8723
   63SAPC  H12B 4988   4.349   2.853   6.063  0.2433  1.0720  0.0121
   63SAPC   C13 4989   4.218   2.973   5.880 -0.2790 -0.1581 -0.3797
   63SAPC  H13A 4990   4.282   3.060   5.872  0.2074 -0.4407  0.3337
   63SAPC  H13B 4991   4.287   2.903   5.835 -0.1293  0.6524 -1.4549
   63SAPC  H13C 4992   4.133   2.984   5.814  0.5784  1.6229 -1.2753
   63SAPC   C14 4993   4.093   2.816   6.004  0.6415  0.9233 -0.7170
   63SAPC  H14A 4994   4.022   2.828   5.923  0.0142 -0.3821 -0.3783
   63SAPC  H14B 4995   4.162   2.736   5.982 -0.7645 -0.9237  1.2401
   63SAPC  H14C 4996   4.045   2.797   6.099 -0.0633  0.3767 -1.1682
   63SAPC   C15 4997   4.078   3.051   6.061 -0.0495 -0.7780 -0.5967
   63SAPC  H15A 4998   4.138   3.137   6.089  0.5528 -0.9115 -1.4467
   63SAPC  H15B 4999   4.005   3.081   5.988 -1.6813  1.4395  1.7357
   63SAPC  H15C 5000   4.018   3.030   6.149 -1.1092  3.1199 -0.2032
   63SAPC   C11 5001   4.261   2.880   6.258 -0.5287  0.4597  0.0289
   63SAPC  H11A 5002   4.189   2.945   6.311 -1.1507  0.1213 -0.3974
   63SAPC  H11B 5003   4.353   2.879   6.320 -0.6386 -0.6568  0.2020
   63SAPC     P 5004   4.306   2.616   6.279  0.0405  0.0286 -0.3206
   63SAPC   O13 5005   4.227   2.490   6.253  0.1075 -0.5601 -0.1913
   63SAPC   O14 5006   4.424   2.634   6.194  0.4882  0.3192 -0.0217
   63SAPC   O12 5007   4.216   2.741   6.255  0.7650  0.0499  0.4229
   63SAPC   O11 5008   4.347   2.622   6.431 -1.0957 -0.0381 -0.1690
   63SAPC    C1 5009   4.249   2.661   6.525  0.3394 -0.0534 -0.0262
   63SAPC    HA 5010   4.298   2.693   6.619  1.7068  0.1534 -0.7857
   63SAPC    HB 5011   4.188   2.745   6.486  0.9972 -1.1534 -3.8373
   63SAPC    C2 5012   4.152   2.553   6.560  0.1595 -0.4587 -0.4339
   63SAPC    HS 5013   4.115   2.512   6.464 -0.6367  0.4090 -0.5063
   63SAPC   O21 5014   4.041   2.610   6.633 -0.1233 -0.0909 -1.1291
   63SAPC   C21 5015   3.936   2.525   6.639  0.1061 -0.3093 -0.3050
   63SAPC   O22 5016   3.938   2.419   6.582  0.1928 -0.2004  0.3770
   63SAPC   C22 5017   3.824   2.578   6.729  0.4135 -0.4112  0.0773
   63SAPC   H2R 5018   3.864   2.612   6.827 -0.5796  0.8686  0.0794
   63SAPC   H2S 5019   3.773   2.665   6.682  0.0787  0.7422  2.4221
   63SAPC    C3 5020   4.220   2.445   6.648 -0.1090  0.4718  0.6705
   63SAPC    HX 5021   4.289   2.392   6.579 -1.6552  0.5758 -1.0324
   63SAPC    HY 5022   4.152   2.358   6.663  1.6340 -1.1284 -0.2517
   63SAPC   O31 5023   4.284   2.495   6.769 -0.1812  0.5754  0.6967
   63SAPC   C31 5024   4.216   2.465   6.882 -0.5685  0.0323  0.0416
   63SAPC   O32 5025   4.106   2.416   6.884 -0.6725 -0.3634 -0.4417
   63SAPC   C32 5026   4.294   2.509   7.005  0.0350  0.4628 -0.5511
   63SAPC   H2X 5027   4.233   2.591   7.046  0.6467  0.3432  0.6325
   63SAPC   H2Y 5028   4.397   2.536   6.972  0.0243  1.0093 -0.1318
   63SAPC   C23 5029   3.702   2.481   6.754 -0.3109 -0.0160  0.4704
   63SAPC   H3R 5030   3.650   2.471   6.656 -0.8938  1.9989  0.5437
   63SAPC   H3S 5031   3.634   2.533   6.824  1.0877  0.6324  1.3771
   63SAPC   C24 5032   3.740   2.347   6.826 -0.2989  0.2748 -0.1747
   63SAPC   H4R 5033   3.816   2.293   6.765  1.4818 -2.1188  3.7866
   63SAPC   H4S 5034   3.646   2.288   6.829  0.4046 -0.9345 -0.9613
   63SAPC   C25 5035   3.789   2.373   6.965 -0.3562 -0.0155 -0.4890
   63SAPC   H5R 5036   3.898   2.381   6.979 -0.4601 -0.2483  0.5769
   63SAPC   C26 5037   3.715   2.374   7.076 -0.5161 -0.7627  0.2047
   63SAPC   H6R 5038   3.759   2.399   7.174 -1.4298  2.5781 -0.1050
   63SAPC   C27 5039   3.563   2.358   7.081 -0.5921 -0.0570  0.0494
   63SAPC   H7R 5040   3.550   2.271   7.150 -2.1074 -0.1884 -0.3636
   63SAPC   H7S 5041   3.520   2.325   6.984  1.0943 -0.4934 -0.5800
   63SAPC   C28 5042   3.479   2.472   7.131  0.2901  0.5008  0.2652
   63SAPC   H8R 5043   3.461   2.555   7.061  1.0674 -0.7848 -1.5458
   63SAPC   C29 5044   3.418   2.472   7.250  0.9821  0.2596  0.3311
   63SAPC   H9R 5045   3.361   2.563   7.274  0.9010  0.4233 -0.4490
   63SAPC  C210 5046   3.436   2.366   7.356 -0.0836  0.7901  0.0457
   63SAPC  H10R 5047   3.447   2.263   7.316  1.2778  0.2928  1.6087
   63SAPC  H10S 5048   3.346   2.359   7.421  0.8687 -0.8417  1.2601
   63SAPC  C211 5049   3.555   2.391   7.449 -0.1121  0.2260 -0.0348
   63SAPC  H11R 5050   3.626   2.469   7.416 -0.4968  0.5360 -0.1328
   63SAPC  C212 5051   3.572   2.334   7.573  0.4403  0.0415  0.3820
   63SAPC  H12R 5052   3.664   2.365   7.624 -0.1384  1.4746  0.6124
   63SAPC  C213 5053   3.466   2.240   7.639 -0.0254 -0.3539  0.7639
   63SAPC  H13R 5054   3.519   2.155   7.688  0.6849  0.5013  1.5057
   63SAPC  H13S 5055   3.395   2.192   7.568  2.2937 -3.0328  0.0618
   63SAPC  C214 5056   3.391   2.309   7.746 -0.1652 -0.8513 -0.5333
   63SAPC  H14R 5057   3.355   2.408   7.715  0.0696 -1.1718 -1.8578
   63SAPC  C215 5058   3.354   2.257   7.868 -0.4839  0.9622 -0.3571
   63SAPC  H15R 5059   3.298   2.329   7.929 -2.0782  0.9557 -1.7589
   63SAPC  C216 5060   3.377   2.120   7.920 -0.4625 -0.1745  0.0533
   63SAPC  H16R 5061   3.421   2.042   7.854 -1.2388 -1.0085  0.4888
   63SAPC  H16S 5062   3.281   2.075   7.953  0.4366 -3.5759 -1.5318
   63SAPC  C217 5063   3.451   2.113   8.050  0.7305 -0.6667 -0.5631
   63SAPC  H17R 5064   3.557   2.144   8.047  0.9114 -0.4801  3.2512
   63SAPC  H17S 5065   3.456   2.003   8.065  1.8564 -0.2816  2.6295
   63SAPC  C218 5066   3.389   2.169   8.181  0.5790  0.2919  0.3905
   63SAPC  H18R 5067   3.300   2.103   8.188  0.8982  0.0167  1.9937
   63SAPC  H18S 5068   3.360   2.276   8.174 -1.3481 -0.2143 -0.1108
   63SAPC  C219 5069   3.471   2.155   8.317  0.1934 -0.2063  0.3552
   63SAPC  H19R 5070   3.525   2.060   8.333  0.9050  0.2820  0.9237
   63SAPC  H19S 5071   3.392   2.165   8.394  0.3198  1.0460  0.3450
   63SAPC  C220 5072   3.561   2.284   8.331  0.5295  0.7219 -0.4261
   63SAPC  H20R 5073   3.500   2.376   8.317 -2.7476 -0.6470  3.0294
   63SAPC  H20S 5074   3.622   2.292   8.238 -1.2700  3.5680 -1.5262
   63SAPC  H20T 5075   3.631   2.278   8.417 -1.3370  0.7585  1.1754
   63SAPC   C33 5076   4.313   2.403   7.117  0.1010 -0.3152  0.4654
   63SAPC   H3X 5077   4.393   2.446   7.180  0.5448  2.0830 -1.5747
   63SAPC   H3Y 5078   4.340   2.304   7.073 -3.2920 -0.9206 -0.6133
   63SAPC   C34 5079   4.183   2.370   7.195  0.1140  0.3550 -0.0394
   63SAPC   H4X 5080   4.093   2.342   7.136  0.0488  2.8092 -1.2117
   63SAPC   H4Y 5081   4.158   2.459   7.256  3.2361  1.7106 -0.5195
   63SAPC   C35 5082   4.223   2.261   7.295 -0.3167  0.3752  0.3192
   63SAPC   H5X 5083   4.294   2.296   7.373 -0.3152 -2.9171  1.9537
   63SAPC   H5Y 5084   4.267   2.174   7.241 -0.1388  0.0259  1.0135
   63SAPC   C36 5085   4.105   2.221   7.387  0.5275  0.6874 -0.3028
   63SAPC   H6X 5086   4.134   2.134   7.450 -2.1090 -0.7465 -0.8960
   63SAPC   H6Y 5087   4.029   2.171   7.323  0.6325 -0.7039  0.6060
   63SAPC   C37 5088   4.043   2.326   7.474 -0.0160 -0.2868 -0.1744
   63SAPC   H7X 5089   3.962   2.284   7.538 -0.2811 -2.3579 -1.7634
   63SAPC   H7Y 5090   3.998   2.416   7.425  3.7842  3.1639  1.9962
   63SAPC   C38 5091   4.143   2.385   7.577  0.3415  0.1717 -0.2377
   63SAPC   H8X 5092   4.078   2.448   7.641  0.1434 -1.6234  1.3895
   63SAPC   H8Y 5093   4.222   2.441   7.522 -1.1430  1.5825 -1.0280
   63SAPC   C39 5094   4.208   2.284   7.671  0.6745  0.6480 -0.4572
   63SAPC   H9X 5095   4.289   2.224   7.624 -0.6862 -2.2147  0.5891
   63SAPC   H9Y 5096   4.131   2.206   7.690  3.5944 -1.6386  3.7502
   63SAPC  C310 5097   4.253   2.346   7.803  0.0366  0.4037  0.0504
   63SAPC  H10X 5098   4.161   2.389   7.848  0.5856 -0.3522  2.0258
   63SAPC  H10Y 5099   4.326   2.430   7.799  1.5525 -0.9294 -2.1177
   63SAPC  C311 5100   4.299   2.229   7.897 -0.0757  0.1434 -0.9266
   63SAPC  H11X 5101   4.215   2.161   7.919  0.6781 -0.2293  0.9366
   63SAPC  H11Y 5102   4.329   2.288   7.986 -0.9491  1.0298 -1.1991
   63SAPC  C312 5103   4.426   2.146   7.852  0.0768  0.2428 -0.0370
   63SAPC  H12X 5104   4.509   2.216   7.827 -0.3473  1.0744  0.8042
   63SAPC  H12Y 5105   4.398   2.093   7.759 -0.3824  1.0401 -0.3643
   63SAPC  C313 5106   4.478   2.043   7.951 -0.2406  0.3584 -0.1129
   63SAPC  H13X 5107   4.581   2.010   7.925 -0.5392 -1.3155  0.7381
   63SAPC  H13Y 5108   4.418   1.950   7.966 -0.8511  0.5336 -1.2922
   63SAPC  C314 5109   4.493   2.102   8.088  0.1933  0.5127  0.0317
   63SAPC  H14X 5110   4.391   2.126   8.126  0.3596 -0.5671  1.2089
   63SAPC  H14Y 5111   4.552   2.195   8.074 -0.0580  0.8905  1.4027
   63SAPC  C315 5112   4.581   2.025   8.191  0.0495 -0.3996  0.1481
   63SAPC  H15X 5113   4.675   1.993   8.142  0.7157  2.5495 -0.7129
   63SAPC  H15Y 5114   4.526   1.933   8.222 -0.1131  0.5433  2.9162
   63SAPC  C316 5115   4.612   2.117   8.311 -0.0891  0.3113  0.1521
   63SAPC  H16X 5116   4.659   2.212   8.278 -1.3141  1.0153  0.3682
   63SAPC  H16Y 5117   4.698   2.071   8.364  0.6981  1.0858 -0.4186
   63SAPC  C317 5118   4.477   2.134   8.392 -0.3816 -0.2838 -0.4811
   63SAPC  H17X 5119   4.438   2.031   8.399 -0.7270 -0.1506 -0.4241
   63SAPC  H17Y 5120   4.403   2.190   8.332 -2.0471 -2.0420 -0.1487
   63SAPC  C318 5121   4.514   2.193   8.529  0.7015  0.2421  0.4858
   63SAPC  H18X 5122   4.563   2.293   8.525 -0.5724  0.9405  1.4944
   63SAPC  H18Y 5123   4.568   2.126   8.599  1.6853  2.0490  1.5167
   63SAPC  H18Z 5124   4.423   2.220   8.586  0.4402 -1.2583  0.8236
   64SAPC     N 5125   6.794   3.986   5.900  0.3077  0.2884 -0.4601
   64SAPC   C12 5126   6.788   3.858   5.974  0.3450  0.1598 -0.6237
   64SAPC  H12A 5127   6.887   3.834   6.010 -0.0389  2.3001  2.2779
   64SAPC  H12B 5128   6.769   3.774   5.909  0.4601 -0.4045  0.0557
   64SAPC   C13 5129   6.661   4.015   5.834 -0.4558  0.2006 -0.2275
   64SAPC  H13A 5130   6.677   4.094   5.762 -0.9004  1.9269  1.4919
   64SAPC  H13B 5131   6.618   3.930   5.782 -0.4171  0.3604 -0.5204
   64SAPC  H13C 5132   6.587   4.055   5.902 -1.2731 -0.2304 -0.8442
   64SAPC   C14 5133   6.832   4.102   5.981  0.0654 -0.6525 -1.3306
   64SAPC  H14A 5134   6.834   4.196   5.927  1.0535 -0.0842 -0.3582
   64SAPC  H14B 5135   6.774   4.111   6.072  1.4664  1.4579 -0.5585
   64SAPC  H14C 5136   6.935   4.093   6.011 -0.2568  0.8902  0.4552
   64SAPC   C15 5137   6.904   3.992   5.804 -0.4420 -0.7608 -0.0142
   64SAPC  H15A 5138   6.885   4.085   5.753  1.5457 -0.3747 -0.1101
   64SAPC  H15B 5139   7.002   3.999   5.850 -0.3131  0.2868 -0.4319
   64SAPC  H15C 5140   6.894   3.910   5.735  1.8916 -0.2114 -1.0832
   64SAPC   C11 5141   6.680   3.852   6.082  0.6216 -0.0385  0.6705
   64SAPC  H11A 5142   6.676   3.942   6.146  1.7771 -0.5607  1.5184
   64SAPC  H11B 5143   6.699   3.770   6.156 -2.4007  0.0216  1.6417
   64SAPC     P 5144   6.490   3.707   5.971  0.3555  0.2508 -0.0437
   64SAPC   O13 5145   6.390   3.738   5.867  0.6877  0.1324  0.4310
   64SAPC   O14 5146   6.603   3.617   5.941  0.7424 -0.7030 -0.3732
   64SAPC   O12 5147   6.551   3.836   6.019 -0.0589 -0.6777 -0.1408
   64SAPC   O11 5148   6.416   3.659   6.108 -0.0082  0.1156 -0.2895
   64SAPC    C1 5149   6.345   3.760   6.187 -0.9136  0.0444 -0.1829
   64SAPC    HA 5150   6.426   3.807   6.246  1.0260  1.0659 -3.4521
   64SAPC    HB 5151   6.301   3.839   6.123  1.0093  0.7396 -0.7009
   64SAPC    C2 5152   6.244   3.699   6.286 -0.2480  0.4632 -0.6548
   64SAPC    HS 5153   6.192   3.786   6.333 -0.8350  0.1426 -0.7001
   64SAPC   O21 5154   6.303   3.615   6.388 -0.0460  1.0163 -0.6061
   64SAPC   C21 5155   6.359   3.690   6.487  0.1507 -0.2359  0.1506
   64SAPC   O22 5156   6.388   3.805   6.477 -0.2132  0.4485 -0.0845
   64SAPC   C22 5157   6.399   3.603   6.606  0.3254  0.0816  0.1914
   64SAPC   H2R 5158   6.418   3.500   6.570  1.1294  0.5144 -0.6610
   64SAPC   H2S 5159   6.490   3.644   6.653 -0.2142 -0.9737  2.2590
   64SAPC    C3 5160   6.135   3.622   6.202  0.3926 -0.8095 -0.2697
   64SAPC    HX 5161   6.187   3.553   6.132 -0.7485  0.4070 -2.4218
   64SAPC    HY 5162   6.089   3.706   6.146 -0.6394 -0.8007  0.5786
   64SAPC   O31 5163   6.032   3.565   6.277  0.0587  0.1250  0.5712
   64SAPC   C31 5164   6.049   3.438   6.327 -0.4369 -0.0784  0.7620
   64SAPC   O32 5165   6.132   3.362   6.276 -0.3299 -0.2857 -0.0299
   64SAPC   C32 5166   5.945   3.415   6.440  1.2782 -0.1014  0.0730
   64SAPC   H2X 5167   5.888   3.330   6.397  0.2219  1.1552 -1.1375
   64SAPC   H2Y 5168   5.875   3.501   6.428  1.5342  0.0592 -0.3012
   64SAPC   C23 5169   6.294   3.619   6.717  0.3339 -0.0640  0.2636
   64SAPC   H3R 5170   6.194   3.597   6.675  1.3325 -1.7140 -1.3742
   64SAPC   H3S 5171   6.280   3.724   6.750 -1.4302 -0.2476  0.1857
   64SAPC   C24 5172   6.321   3.539   6.846 -0.6256  0.8451 -0.3545
   64SAPC   H4R 5173   6.336   3.436   6.805 -1.8343  1.3304 -2.1278
   64SAPC   H4S 5174   6.223   3.542   6.898 -1.0166 -0.9055 -0.9124
   64SAPC   C25 5175   6.437   3.591   6.926  0.4161 -0.2632 -0.5258
   64SAPC   H5R 5176   6.524   3.605   6.860  2.6938 -1.8485  1.9547
   64SAPC   C26 5177   6.440   3.610   7.058 -0.2052  1.3539  0.5300
   64SAPC   H6R 5178   6.537   3.640   7.099  0.7898 -1.7096  0.6823
   64SAPC   C27 5179   6.331   3.591   7.163  0.5684 -0.1098  0.5349
   64SAPC   H7R 5180   6.370   3.533   7.249 -1.3431 -3.2837 -0.5230
   64SAPC   H7S 5181   6.243   3.535   7.122 -0.7156  1.4149  1.1020
   64SAPC   C28 5182   6.270   3.723   7.209  0.6828  0.5523  0.3368
   64SAPC   H8R 5183   6.252   3.793   7.127 -0.8595 -0.3406 -0.1221
   64SAPC   C29 5184   6.238   3.760   7.333 -1.0729  0.3727 -0.1169
   64SAPC   H9R 5185   6.214   3.866   7.347  0.8060  0.4898  2.9008
   64SAPC  C210 5186   6.248   3.689   7.463  0.2274  0.3749  0.4953
   64SAPC  H10R 5187   6.245   3.581   7.438  1.0419  0.6322 -0.8145
   64SAPC  H10S 5188   6.154   3.700   7.522  0.2840  0.3147  0.5977
   64SAPC  C211 5189   6.363   3.724   7.554  0.1809  0.1125 -0.2210
   64SAPC  H11R 5190   6.460   3.682   7.526 -1.6479 -1.8673 -4.5409
   64SAPC  C212 5191   6.345   3.794   7.664 -0.5689  0.2514 -0.1592
   64SAPC  H12R 5192   6.434   3.827   7.720 -0.4205  1.3303 -1.0007
   64SAPC  C213 5193   6.214   3.836   7.726  0.4687  0.0949  0.0628
   64SAPC  H13R 5194   6.173   3.754   7.789 -1.6634  1.5972  0.7400
   64SAPC  H13S 5195   6.146   3.862   7.642  0.2389 -0.3702  0.1038
   64SAPC  C214 5196   6.234   3.965   7.799 -0.6656  0.1601  0.6666
   64SAPC  H14R 5197   6.251   4.046   7.727 -0.6604 -0.0608  0.4172
   64SAPC  C215 5198   6.231   3.990   7.927  1.0428  0.6175 -0.1053
   64SAPC  H15R 5199   6.273   4.088   7.956  1.2945  0.0664  1.5004
   64SAPC  C216 5200   6.222   3.887   8.033  0.0342 -0.1939 -0.1851
   64SAPC  H16R 5201   6.242   3.785   7.995 -2.4921 -0.6281 -0.5271
   64SAPC  H16S 5202   6.118   3.875   8.071 -0.0028 -0.9528 -0.5235
   64SAPC  C217 5203   6.326   3.904   8.148  0.3808  0.0964  0.4254
   64SAPC  H17R 5204   6.423   3.936   8.105  1.5824 -0.7838  2.3929
   64SAPC  H17S 5205   6.326   3.806   8.200 -0.2604 -0.3754 -0.4371
   64SAPC  C218 5206   6.273   4.008   8.250  0.0806  0.1102  0.3605
   64SAPC  H18R 5207   6.165   3.999   8.274  0.1531  0.2450  0.7571
   64SAPC  H18S 5208   6.281   4.110   8.207  0.6420  0.3428  1.0039
   64SAPC  C219 5209   6.351   4.001   8.377 -0.0609 -0.0509 -0.2130
   64SAPC  H19R 5210   6.461   3.999   8.363 -0.0749  0.4137 -0.4097
   64SAPC  H19S 5211   6.334   3.902   8.424 -2.1054  0.3402 -0.0015
   64SAPC  C220 5212   6.304   4.107   8.476  0.5064 -0.1418  0.7810
   64SAPC  H20R 5213   6.193   4.107   8.475  0.4596  0.6863 -1.5379
   64SAPC  H20S 5214   6.339   4.205   8.436  1.1478 -0.8849 -0.5481
   64SAPC  H20T 5215   6.327   4.098   8.584 -1.6087 -0.7405  1.2389
   64SAPC   C33 5216   6.011   3.371   6.571  0.2061  0.0403  0.8613
   64SAPC   H3X 5217   6.068   3.460   6.606  2.8017 -1.1466 -0.0675
   64SAPC   H3Y 5218   6.078   3.283   6.569 -0.9674 -0.8930  1.5969
   64SAPC   C34 5219   5.899   3.344   6.677  0.5754 -0.1009 -0.1794
   64SAPC   H4X 5220   5.872   3.237   6.670 -0.8320  0.1211  1.2343
   64SAPC   H4Y 5221   5.817   3.417   6.656  0.8445  0.5880  1.0947
   64SAPC   C35 5222   5.953   3.382   6.814  0.6390  0.1224 -0.6212
   64SAPC   H5X 5223   5.964   3.492   6.810 -1.2094  0.4561  1.3753
   64SAPC   H5Y 5224   6.041   3.321   6.842  0.3312  0.2557  0.7131
   64SAPC   C36 5225   5.848   3.358   6.929 -0.6093 -0.2442  0.4981
   64SAPC   H6X 5226   5.795   3.262   6.914 -0.1029 -0.3699 -0.5479
   64SAPC   H6Y 5227   5.770   3.436   6.923 -0.9621 -0.7062 -1.9138
   64SAPC   C37 5228   5.915   3.358   7.065  0.2044 -0.0100 -0.0331
   64SAPC   H7X 5229   5.990   3.441   7.063  1.6193 -1.2259  0.4935
   64SAPC   H7Y 5230   5.977   3.270   7.092  0.4648  0.5273  1.2340
   64SAPC   C38 5231   5.815   3.383   7.178  0.0241 -0.1545 -0.0036
   64SAPC   H8X 5232   5.723   3.361   7.119  0.3603 -0.5059 -0.3981
   64SAPC   H8Y 5233   5.801   3.488   7.211  0.8661 -0.4380  1.3245
   64SAPC   C39 5234   5.830   3.294   7.301 -0.4114  0.5395 -0.1825
   64SAPC   H9X 5235   5.843   3.192   7.259  2.5939  0.7098  0.1156
   64SAPC   H9Y 5236   5.739   3.302   7.363 -0.6218  1.3481 -0.5792
   64SAPC  C310 5237   5.963   3.328   7.376 -0.4677  0.4239 -0.0159
   64SAPC  H10X 5238   5.994   3.432   7.350  3.3998 -0.7128 -0.6129
   64SAPC  H10Y 5239   6.038   3.258   7.333 -0.0451  2.1725 -2.3421
   64SAPC  C311 5240   5.961   3.306   7.526 -0.2314 -0.0124 -1.0756
   64SAPC  H11X 5241   6.069   3.306   7.552 -0.3105 -1.6241 -0.6180
   64SAPC  H11Y 5242   5.925   3.203   7.549  1.2841 -0.8466 -2.2120
   64SAPC  C312 5243   5.888   3.416   7.599 -0.5691  0.0621  0.1422
   64SAPC  H12X 5244   5.781   3.420   7.567 -1.2708  0.6139  2.4052
   64SAPC  H12Y 5245   5.933   3.515   7.575  1.5544 -0.4766  1.6572
   64SAPC  C313 5246   5.869   3.383   7.748 -0.2472 -0.1364  0.4810
   64SAPC  H13X 5247   5.964   3.383   7.806  1.0568 -2.3569 -1.4939
   64SAPC  H13Y 5248   5.828   3.281   7.765  0.8857 -0.6743  0.1217
   64SAPC  C314 5249   5.776   3.484   7.815  0.1508 -0.5752 -0.2716
   64SAPC  H14X 5250   5.694   3.506   7.744  0.9253  2.4036 -0.3985
   64SAPC  H14Y 5251   5.839   3.574   7.830 -0.6243 -0.1388  0.4867
   64SAPC  C315 5252   5.721   3.457   7.953 -0.4497 -0.2837 -0.3576
   64SAPC  H15X 5253   5.671   3.553   7.978  0.4946  0.1744 -0.2118
   64SAPC  H15Y 5254   5.797   3.427   8.028  1.7182  1.1317 -1.8885
   64SAPC  C316 5255   5.615   3.350   7.951  0.3552  0.5328 -0.2433
   64SAPC  H16X 5256   5.662   3.250   7.938 -0.5799  0.2372 -1.4728
   64SAPC  H16Y 5257   5.547   3.367   7.865  1.1830 -0.0795 -1.0545
   64SAPC  C317 5258   5.523   3.357   8.074 -0.9621  0.1208 -0.4852
   64SAPC  H17X 5259   5.585   3.362   8.167 -1.1864  2.0108 -0.4060
   64SAPC  H17Y 5260   5.457   3.268   8.081  3.0390 -3.1518 -0.0501
   64SAPC  C318 5261   5.429   3.476   8.084  0.7513 -0.2245 -0.3931
   64SAPC  H18X 5262   5.379   3.472   7.985  0.7648  1.9316 -0.5278
   64SAPC  H18Y 5263   5.482   3.573   8.082  1.0625 -0.3500  0.9094
   64SAPC  H18Z 5264   5.349   3.467   8.161  1.0385  0.5981  0.0049
   65SAPC     N 5265   5.566   4.278   5.715  0.5731 -0.0260 -0.4554
   65SAPC   C12 5266   5.565   4.277   5.868 -0.2489 -0.0474 -0.3546
   65SAPC  H12A 5267   5.492   4.207   5.906  0.1438  0.3297  1.1820
   65SAPC  H12B 5268   5.517   4.369   5.899  0.8675 -0.5141  3.2196
   65SAPC   C13 5269   5.580   4.143   5.664 -0.3772 -0.6816  0.1456
   65SAPC  H13A 5270   5.681   4.109   5.682 -0.7643 -1.0426  1.8539
   65SAPC  H13B 5271   5.516   4.075   5.719 -1.4210 -1.7082 -2.2285
   65SAPC  H13C 5272   5.566   4.134   5.558 -0.4619 -0.2388  0.1170
   65SAPC   C14 5273   5.431   4.317   5.659  0.3706 -0.9242 -0.1688
   65SAPC  H14A 5274   5.367   4.233   5.682 -1.5224  1.0399  2.5085
   65SAPC  H14B 5275   5.389   4.399   5.716  0.2127 -0.4330 -0.9823
   65SAPC  H14C 5276   5.420   4.328   5.552 -0.5991 -0.2849 -0.0123
   65SAPC   C15 5277   5.664   4.376   5.661 -0.1981  0.5704 -0.6792
   65SAPC  H15A 5278   5.766   4.353   5.690 -0.0820 -1.1810 -2.2706
   65SAPC  H15B 5279   5.674   4.380   5.553  3.6606  2.6378 -0.4232
   65SAPC  H15C 5280   5.641   4.473   5.701 -1.9844 -0.1816  0.2259
   65SAPC   C11 5281   5.703   4.250   5.939 -0.4333  0.3501 -0.7735
   65SAPC  H11A 5282   5.689   4.245   6.049  1.8563 -0.0522 -0.4424
   65SAPC  H11B 5283   5.778   4.331   5.921  0.5181 -0.3680 -0.1085
   65SAPC     P 5284   5.716   3.993   5.954 -0.0136 -0.0151 -0.2638
   65SAPC   O13 5285   5.588   4.010   6.020  0.6179  0.2555  0.4338
   65SAPC   O14 5286   5.718   3.884   5.853  0.0685 -0.3460  0.1053
   65SAPC   O12 5287   5.770   4.133   5.890  0.1735  0.2558 -0.1969
   65SAPC   O11 5288   5.824   3.958   6.058  0.1436  0.2789  0.8691
   65SAPC    C1 5289   5.876   4.051   6.158  1.1030 -0.0150  0.8220
   65SAPC    HA 5290   5.986   4.038   6.164  0.9937 -1.1269  0.7021
   65SAPC    HB 5291   5.864   4.158   6.134  1.3026  0.1233  1.3195
   65SAPC    C2 5292   5.817   4.025   6.307 -0.3241 -0.7117 -0.2342
   65SAPC    HS 5293   5.707   4.016   6.296 -0.7042  0.9175  1.7011
   65SAPC   O21 5294   5.856   4.133   6.393 -0.0827  0.0376 -0.3267
   65SAPC   C21 5295   5.785   4.240   6.390  0.6277 -0.3284  0.4777
   65SAPC   O22 5296   5.691   4.262   6.320  0.4553 -0.1615 -0.7234
   65SAPC   C22 5297   5.848   4.341   6.486 -0.0276 -0.1354  0.1425
   65SAPC   H2R 5298   5.956   4.314   6.492  0.4435  1.3838 -0.9573
   65SAPC   H2S 5299   5.830   4.438   6.436  0.0405 -1.6439 -3.1028
   65SAPC    C3 5300   5.868   3.897   6.375  0.0703 -0.1220 -0.0030
   65SAPC    HX 5301   5.978   3.915   6.381  0.1439 -0.0717 -1.2295
   65SAPC    HY 5302   5.857   3.810   6.308  0.8188  0.5380 -1.0111
   65SAPC   O31 5303   5.816   3.869   6.507 -0.5853  0.4128  0.0516
   65SAPC   C31 5304   5.913   3.812   6.586  1.0064 -0.2278  0.2046
   65SAPC   O32 5305   6.025   3.777   6.559  0.1484  0.7775 -0.1860
   65SAPC   C32 5306   5.836   3.792   6.717  0.0019  0.5801  1.0769
   65SAPC   H2X 5307   5.793   3.695   6.685  0.0167  0.7497  0.5255
   65SAPC   H2Y 5308   5.758   3.868   6.738 -2.0689 -0.7117 -1.3226
   65SAPC   C23 5309   5.769   4.338   6.621 -0.0521 -0.1475 -0.4418
   65SAPC   H3R 5310   5.755   4.238   6.667  0.8646  1.7418  4.6513
   65SAPC   H3S 5311   5.667   4.380   6.605  0.5951  2.5356  1.6834
   65SAPC   C24 5312   5.844   4.423   6.718  0.3775 -0.2209 -0.1103
   65SAPC   H4R 5313   5.851   4.529   6.687  0.3518  0.4314  1.9666
   65SAPC   H4S 5314   5.947   4.388   6.743 -0.0259 -0.2995  1.5193
   65SAPC   C25 5315   5.764   4.442   6.844 -0.8124 -0.1702  0.1608
   65SAPC   H5R 5316   5.675   4.507   6.836 -0.5358  0.2338  0.3686
   65SAPC   C26 5317   5.788   4.388   6.966 -0.8010 -0.2627  0.1353
   65SAPC   H6R 5318   5.724   4.417   7.050  0.6903  3.1320  0.2829
   65SAPC   C27 5319   5.915   4.305   6.990 -0.3164 -0.3382  0.0879
   65SAPC   H7R 5320   6.002   4.370   7.008 -0.6038  0.2014 -0.4663
   65SAPC   H7S 5321   5.937   4.250   6.896 -0.1262 -0.6705  0.3222
   65SAPC   C28 5322   5.899   4.201   7.103  0.3026  0.1289 -0.7842
   65SAPC   H8R 5323   5.855   4.105   7.073  0.5221 -0.2930  0.2123
   65SAPC   C29 5324   5.892   4.228   7.234 -0.6356 -0.0088  0.4427
   65SAPC   H9R 5325   5.896   4.140   7.300  0.7160 -1.1246 -1.0694
   65SAPC  C210 5326   5.911   4.362   7.308  0.3882 -0.0854 -0.2763
   65SAPC  H10R 5327   5.832   4.361   7.387 -0.1559  0.6497 -0.7918
   65SAPC  H10S 5328   5.882   4.448   7.244  0.5687 -0.0829 -0.3541
   65SAPC  C211 5329   6.047   4.382   7.364 -0.6732  0.1087  0.5237
   65SAPC  H11R 5330   6.119   4.386   7.281 -1.0217 -0.2129  0.2026
   65SAPC  C212 5331   6.088   4.374   7.490 -0.2162 -0.1216 -0.3738
   65SAPC  H12R 5332   6.191   4.392   7.526 -0.3132  1.2308 -0.7216
   65SAPC  C213 5333   6.001   4.349   7.609 -0.4897 -0.6298 -0.2293
   65SAPC  H13R 5334   5.894   4.373   7.586  0.0230 -0.0626 -2.2598
   65SAPC  H13S 5335   6.018   4.424   7.689  0.9035  0.7784 -1.7787
   65SAPC  C214 5336   5.994   4.215   7.672  0.2949 -0.1565  0.4589
   65SAPC  H14R 5337   6.006   4.130   7.602 -0.3880  0.3275 -0.2654
   65SAPC  C215 5338   5.965   4.190   7.800 -0.0176 -0.0273  0.5701
   65SAPC  H15R 5339   5.965   4.090   7.844  1.4655  0.2610  1.2956
   65SAPC  C216 5340   5.940   4.295   7.902 -0.0222 -0.2779  0.4756
   65SAPC  H16R 5341   5.871   4.247   7.974 -0.9915  0.9594  0.3987
   65SAPC  H16S 5342   5.881   4.381   7.867 -1.7872 -1.4142  0.5575
   65SAPC  C217 5343   6.067   4.334   7.980  0.5359 -0.5229 -0.5947
   65SAPC  H17R 5344   6.138   4.383   7.910  0.8305  0.4537  0.3641
   65SAPC  H17S 5345   6.107   4.239   8.022 -0.9917 -2.0222 -2.3320
   65SAPC  C218 5346   6.035   4.420   8.105 -0.4455 -0.2321 -0.3296
   65SAPC  H18R 5347   5.975   4.344   8.160 -0.5357 -1.1571 -1.6407
   65SAPC  H18S 5348   5.976   4.510   8.081 -0.3177 -0.0735 -0.0542
   65SAPC  C219 5349   6.161   4.464   8.172  0.0078  0.1675 -0.5605
   65SAPC  H19R 5350   6.226   4.512   8.096  0.7882  0.1439  0.0808
   65SAPC  H19S 5351   6.219   4.380   8.217  1.2142  1.6622  0.8287
   65SAPC  C220 5352   6.132   4.563   8.284 -0.5832  0.2780  0.1073
   65SAPC  H20R 5353   6.218   4.610   8.336 -0.3933 -0.8214  0.8194
   65SAPC  H20S 5354   6.075   4.517   8.368  1.2598 -0.2869  1.0902
   65SAPC  H20T 5355   6.069   4.646   8.245  0.0984  0.0167 -1.6059
   65SAPC   C33 5356   5.942   3.794   6.832  0.2147  0.5824  1.4217
   65SAPC   H3X 5357   5.988   3.895   6.844  0.7281  0.2263  2.5498
   65SAPC   H3Y 5358   6.036   3.738   6.811  0.4637  0.9197  1.6144
   65SAPC   C34 5359   5.875   3.751   6.960 -0.4481 -0.1682  0.3372
   65SAPC   H4X 5360   5.854   3.642   6.962  0.5421 -0.4714 -2.0959
   65SAPC   H4Y 5361   5.784   3.814   6.955  0.0759  0.5936 -0.0666
   65SAPC   C35 5362   5.938   3.794   7.091  0.4269 -0.4428  0.0407
   65SAPC   H5X 5363   5.983   3.893   7.069 -1.4663  0.8400  1.6254
   65SAPC   H5Y 5364   6.012   3.720   7.128  2.0058 -0.2022 -2.4616
   65SAPC   C36 5365   5.822   3.808   7.198 -0.0519 -0.5160 -0.1020
   65SAPC   H6X 5366   5.752   3.724   7.177 -0.6202 -0.1405  0.2599
   65SAPC   H6Y 5367   5.766   3.903   7.186  1.1826  0.4066  1.0595
   65SAPC   C37 5368   5.861   3.808   7.354 -0.7428  0.4876  0.2301
   65SAPC   H7X 5369   5.926   3.894   7.378 -0.5645  0.9371 -1.6946
   65SAPC   H7Y 5370   5.920   3.714   7.361 -2.0144 -0.4513 -0.9925
   65SAPC   C38 5371   5.740   3.797   7.446  0.1899  0.3027  0.1478
   65SAPC   H8X 5372   5.685   3.701   7.440  0.9385 -0.0855 -0.6952
   65SAPC   H8Y 5373   5.669   3.869   7.400  0.4313  1.3538  1.3549
   65SAPC   C39 5374   5.766   3.843   7.593 -0.2392 -0.9781  0.7432
   65SAPC   H9X 5375   5.789   3.952   7.587  0.3525 -1.1086  0.6458
   65SAPC   H9Y 5376   5.856   3.798   7.640  1.2518  1.1696  0.0880
   65SAPC  C310 5377   5.639   3.833   7.674  0.2395  0.8220  0.2843
   65SAPC  H10X 5378   5.613   3.725   7.670  4.2554 -0.4237  2.6860
   65SAPC  H10Y 5379   5.560   3.899   7.630  1.7231  0.1608 -3.7946
   65SAPC  C311 5380   5.655   3.869   7.820  0.7056  0.2602 -0.9393
   65SAPC  H11X 5381   5.665   3.979   7.831 -0.3730  0.3620 -0.8617
   65SAPC  H11Y 5382   5.741   3.819   7.870 -0.2053 -0.4339 -0.0291
   65SAPC  C312 5383   5.527   3.836   7.906  0.2962 -0.3640  0.3960
   65SAPC  H12X 5384   5.524   3.726   7.920 -0.0457 -0.6440 -1.5835
   65SAPC  H12Y 5385   5.440   3.879   7.853  2.0952  1.0327 -1.6186
   65SAPC  C313 5386   5.533   3.899   8.038  0.4636 -0.3297  0.5880
   65SAPC  H13X 5387   5.439   3.885   8.096 -0.7411  2.6607 -0.4439
   65SAPC  H13Y 5388   5.549   4.009   8.027  0.4931 -0.2340  1.4695
   65SAPC  C314 5389   5.654   3.862   8.134  0.5437 -0.1989  0.1838
   65SAPC  H14X 5390   5.746   3.856   8.071 -0.5535 -3.0559 -1.3503
   65SAPC  H14Y 5391   5.635   3.756   8.160  1.8939 -0.2444  1.0609
   65SAPC  C315 5392   5.676   3.945   8.259 -0.3778  0.5361 -0.5792
   65SAPC  H15X 5393   5.576   3.982   8.292 -0.9264 -1.3686  0.0284
   65SAPC  H15Y 5394   5.742   4.029   8.230 -1.6597  1.1079 -1.9533
   65SAPC  C316 5395   5.725   3.865   8.383 -0.1841  1.2751  0.1041
   65SAPC  H16X 5396   5.694   3.759   8.384  1.1249  0.8638 -0.7826
   65SAPC  H16Y 5397   5.675   3.901   8.476 -2.4382 -0.9673 -0.1518
   65SAPC  C317 5398   5.880   3.857   8.395  0.1542 -0.1107  0.2134
   65SAPC  H17X 5399   5.927   3.951   8.430  1.5037 -1.7313  3.1721
   65SAPC  H17Y 5400   5.931   3.832   8.299  1.5128  2.4847  0.1710
   65SAPC  C318 5401   5.916   3.761   8.506 -0.9622  0.0075  0.7068
   65SAPC  H18X 5402   6.024   3.781   8.521 -1.0605  2.0768 -0.9786
   65SAPC  H18Y 5403   5.884   3.657   8.482 -2.5897  0.6971 -0.2895
   65SAPC  H18Z 5404   5.871   3.798   8.600 -3.5283  0.4681 -0.6145
   66SAPC     N 5405   4.533   4.552   5.690 -0.3335 -0.2860 -0.0686
   66SAPC   C12 5406   4.567   4.527   5.835  0.5278  0.2316  0.2021
   66SAPC  H12A 5407   4.652   4.589   5.858  0.2630  0.5769  0.2585
   66SAPC  H12B 5408   4.597   4.424   5.849  0.2019 -0.1075 -1.3183
   66SAPC   C13 5409   4.662   4.522   5.607 -0.5782  0.5662 -0.2459
   66SAPC  H13A 5410   4.700   4.425   5.637  1.6521  1.4524  0.0560
   66SAPC  H13B 5411   4.644   4.520   5.501  2.0680 -2.3584 -0.7988
   66SAPC  H13C 5412   4.745   4.585   5.636 -1.8579  1.5197  1.5033
   66SAPC   C14 5413   4.434   4.456   5.646  0.3696 -0.1512 -0.3642
   66SAPC  H14A 5414   4.416   4.478   5.542  3.6573 -0.8623 -1.1930
   66SAPC  H14B 5415   4.472   4.355   5.658  2.6753  0.8573  1.7407
   66SAPC  H14C 5416   4.348   4.481   5.708 -0.0226  0.5372 -1.1725
   66SAPC   C15 5417   4.504   4.694   5.656 -0.5039 -0.5638 -0.0858
   66SAPC  H15A 5418   4.464   4.700   5.556 -0.0938  0.7778 -0.1833
   66SAPC  H15B 5419   4.428   4.730   5.724  0.6992 -0.8977  1.4994
   66SAPC  H15C 5420   4.597   4.750   5.660 -0.0719 -1.3038  2.5415
   66SAPC   C11 5421   4.445   4.554   5.938 -0.8617 -0.2035  1.0437
   66SAPC  H11A 5422   4.484   4.512   6.033  0.7317 -1.0147  0.0829
   66SAPC  H11B 5423   4.360   4.491   5.903  0.9055 -2.1289 -0.0151
   66SAPC     P 5424   4.503   4.774   6.049  0.2715  0.0550 -0.7748
   66SAPC   O13 5425   4.646   4.737   6.041  0.5779 -0.2646 -0.4374
   66SAPC   O14 5426   4.474   4.913   6.029 -0.4387 -0.5276  0.3809
   66SAPC   O12 5427   4.424   4.692   5.933  0.1067 -0.7088 -0.3856
   66SAPC   O11 5428   4.429   4.725   6.176 -0.7576  0.2246 -0.1566
   66SAPC    C1 5429   4.290   4.742   6.180 -0.4098 -0.1660  0.0324
   66SAPC    HA 5430   4.257   4.828   6.119  1.5921 -0.1570 -1.1268
   66SAPC    HB 5431   4.241   4.647   6.148 -2.3595  0.3724  1.2086
   66SAPC    C2 5432   4.244   4.770   6.329 -0.3332  0.5311  1.0026
   66SAPC    HS 5433   4.133   4.774   6.333 -0.3163  2.3485  0.7216
   66SAPC   O21 5434   4.301   4.893   6.375  0.0514 -0.6789  0.3500
   66SAPC   C21 5435   4.227   4.968   6.465  0.0731  0.0817 -0.4571
   66SAPC   O22 5436   4.116   4.932   6.507 -0.0541 -0.2199 -0.2912
   66SAPC   C22 5437   4.324   5.074   6.530  0.4577  0.1649  0.3001
   66SAPC   H2R 5438   4.403   5.025   6.591  0.2143 -0.7764 -0.1214
   66SAPC   H2S 5439   4.364   5.130   6.443 -0.0056 -0.9862 -0.6775
   66SAPC    C3 5440   4.308   4.655   6.413  0.3818  0.0329  0.6460
   66SAPC    HX 5441   4.417   4.665   6.400  0.3955  0.3432  0.9670
   66SAPC    HY 5442   4.270   4.560   6.369  0.2339  0.9076 -1.2059
   66SAPC   O31 5443   4.280   4.659   6.555 -0.3681 -0.2053 -0.1275
   66SAPC   C31 5444   4.162   4.614   6.593  0.5785 -0.4076  0.5489
   66SAPC   O32 5445   4.082   4.550   6.521 -0.1864  0.0820 -0.3401
   66SAPC   C32 5446   4.138   4.694   6.725 -0.0784  0.0262 -0.3020
   66SAPC   H2X 5447   4.160   4.801   6.702 -1.2230  0.0978 -1.1901
   66SAPC   H2Y 5448   4.217   4.673   6.800  2.6895  1.2128 -2.6877
   66SAPC   C23 5449   4.251   5.183   6.616 -0.3761  0.0709  0.2478
   66SAPC   H3R 5450   4.171   5.228   6.554  1.0783 -0.2911 -2.0178
   66SAPC   H3S 5451   4.323   5.268   6.624 -0.0617 -0.0600 -1.0771
   66SAPC   C24 5452   4.199   5.136   6.748  0.1848  0.5988 -0.1611
   66SAPC   H4R 5453   4.133   5.047   6.745  1.3497 -0.2637 -0.7945
   66SAPC   H4S 5454   4.140   5.222   6.788  1.1955  0.6040  1.3936
   66SAPC   C25 5455   4.306   5.119   6.852  0.1381  0.3257 -0.0315
   66SAPC   H5R 5456   4.405   5.085   6.816 -0.6415  0.2084 -2.2389
   66SAPC   C26 5457   4.307   5.162   6.974 -0.1702 -0.4216 -0.5885
   66SAPC   H6R 5458   4.403   5.153   7.026 -0.8889 -1.4443  0.5941
   66SAPC   C27 5459   4.204   5.228   7.054 -0.0208  0.0776  0.7478
   66SAPC   H7R 5460   4.106   5.184   7.027  0.3968  0.5901 -1.7926
   66SAPC   H7S 5461   4.198   5.332   7.018 -0.4872  0.1113  0.9172
   66SAPC   C28 5462   4.222   5.217   7.204  0.1251  0.2573  0.1788
   66SAPC   H8R 5463   4.282   5.128   7.228  1.6503  0.8173 -1.3414
   66SAPC   C29 5464   4.173   5.303   7.299 -0.0105 -0.6543 -0.5536
   66SAPC   H9R 5465   4.180   5.283   7.407 -3.9700 -0.9456 -0.2220
   66SAPC  C210 5466   4.111   5.429   7.264  0.9430 -0.1741  0.5803
   66SAPC  H10R 5467   4.014   5.427   7.320  1.0894 -0.6248  0.8149
   66SAPC  H10S 5468   4.098   5.434   7.154  0.9278  1.3707  0.6289
   66SAPC  C211 5469   4.174   5.563   7.305 -0.3699  0.4177  0.4759
   66SAPC  H11R 5470   4.222   5.625   7.228  1.2094 -1.1287  0.1433
   66SAPC  C212 5471   4.174   5.614   7.431  0.0629  0.1980 -0.0035
   66SAPC  H12R 5472   4.217   5.711   7.461  0.7208 -0.8216  2.7357
   66SAPC  C213 5473   4.115   5.548   7.553  0.8993 -0.1587 -0.0930
   66SAPC  H13R 5474   4.177   5.464   7.590  0.1405 -0.2332  1.0650
   66SAPC  H13S 5475   4.021   5.505   7.512  1.6600  0.0588 -2.1779
   66SAPC  C214 5476   4.076   5.650   7.664  0.4468 -0.3229 -1.0922
   66SAPC  H14R 5477   4.049   5.750   7.627  2.3241  0.4691 -0.4513
   66SAPC  C215 5478   4.054   5.607   7.788  0.0723 -0.3492 -0.1940
   66SAPC  H15R 5479   4.034   5.690   7.858  0.1027 -0.7140  0.2490
   66SAPC  C216 5480   4.063   5.466   7.847  0.1726 -0.1214 -0.3322
   66SAPC  H16R 5481   4.089   5.384   7.778 -0.6430 -0.9144  0.2770
   66SAPC  H16S 5482   3.966   5.429   7.886 -0.5901  0.8275 -1.2597
   66SAPC  C217 5483   4.169   5.448   7.948 -0.0176 -0.3606 -0.0170
   66SAPC  H17R 5484   4.246   5.528   7.950  1.4918 -1.7627  0.3154
   66SAPC  H17S 5485   4.229   5.355   7.932  2.5876  1.3488 -0.9117
   66SAPC  C218 5486   4.106   5.434   8.082  0.4059  0.0366 -0.1877
   66SAPC  H18R 5487   4.017   5.367   8.078 -2.4275  3.5036  0.0947
   66SAPC  H18S 5488   4.072   5.535   8.115 -0.1754  0.8689 -3.0695
   66SAPC  C219 5489   4.211   5.381   8.189  0.1918 -0.4661  0.5770
   66SAPC  H19R 5490   4.286   5.463   8.190 -0.7221  0.4054 -0.4145
   66SAPC  H19S 5491   4.259   5.291   8.144  0.3227 -1.2482  2.1941
   66SAPC  C220 5492   4.148   5.353   8.323 -0.2767 -0.0155  0.3611
   66SAPC  H20R 5493   4.219   5.382   8.403  2.1005 -1.3913 -1.1559
   66SAPC  H20S 5494   4.124   5.245   8.337 -0.3940 -0.9138 -4.8629
   66SAPC  H20T 5495   4.062   5.422   8.337  0.0405  0.3848  0.3337
   66SAPC   C33 5496   3.996   4.686   6.769  0.2657 -0.5997 -0.1961
   66SAPC   H3X 5497   3.975   4.592   6.823  0.3903  0.3425  1.5818
   66SAPC   H3Y 5498   3.928   4.681   6.681  0.3825 -2.4335 -0.2137
   66SAPC   C34 5499   3.941   4.822   6.837 -0.8003 -0.4685  0.2654
   66SAPC   H4X 5500   3.831   4.810   6.830 -0.9058  0.5987 -0.1486
   66SAPC   H4Y 5501   3.961   4.910   6.773 -2.1448 -0.4756 -0.2022
   66SAPC   C35 5502   3.997   4.841   6.981  0.2975  0.1239  0.1138
   66SAPC   H5X 5503   3.975   4.940   7.027 -0.3235 -1.0212  2.3810
   66SAPC   H5Y 5504   4.106   4.820   6.984  0.1452 -0.5969  0.8498
   66SAPC   C36 5505   3.940   4.728   7.066  0.3018 -0.8237  0.2635
   66SAPC   H6X 5506   3.978   4.631   7.027  1.8929  0.2701 -1.0455
   66SAPC   H6Y 5507   3.829   4.731   7.071  0.3565 -0.1608  2.6733
   66SAPC   C37 5508   3.978   4.738   7.215 -0.0791  0.2444 -0.0014
   66SAPC   H7X 5509   3.951   4.837   7.259 -1.4342  0.1839 -0.6372
   66SAPC   H7Y 5510   4.084   4.712   7.234 -0.2672 -0.6248 -0.1078
   66SAPC   C38 5511   3.901   4.636   7.302  0.2064 -0.1908  0.0926
   66SAPC   H8X 5512   3.951   4.538   7.286  0.3497 -0.4960  2.1069
   66SAPC   H8Y 5513   3.793   4.623   7.279  0.0469 -0.0307  0.7362
   66SAPC   C39 5514   3.914   4.674   7.451  0.1591 -0.2496 -0.2280
   66SAPC   H9X 5515   3.866   4.773   7.468 -0.8713 -0.6960 -0.4503
   66SAPC   H9Y 5516   4.023   4.681   7.474  0.0168  0.2806  0.2919
   66SAPC  C310 5517   3.839   4.579   7.545 -0.0071  0.1174  0.3110
   66SAPC  H10X 5518   3.898   4.485   7.550  1.0457  0.7460 -0.0052
   66SAPC  H10Y 5519   3.742   4.555   7.498  0.4784 -0.7649 -0.2692
   66SAPC  C311 5520   3.827   4.623   7.689 -0.2124  0.4135 -1.0330
   66SAPC  H11X 5521   3.736   4.685   7.705 -2.3094 -3.4336  4.5299
   66SAPC  H11Y 5522   3.918   4.685   7.710 -0.9657  0.8055  1.3772
   66SAPC  C312 5523   3.829   4.514   7.804 -0.5139  0.5509 -0.3546
   66SAPC  H12X 5524   3.914   4.444   7.785  0.8948  2.1988 -0.3433
   66SAPC  H12Y 5525   3.738   4.450   7.805  1.7146 -2.9926  2.2220
   66SAPC  C313 5526   3.851   4.569   7.947  0.2945  0.1973 -0.0370
   66SAPC  H13X 5527   3.772   4.645   7.967 -1.0207 -1.2498  0.5418
   66SAPC  H13Y 5528   3.949   4.620   7.948  0.1376  0.6214  2.8980
   66SAPC  C314 5529   3.849   4.462   8.053 -0.1428 -0.3852  0.5305
   66SAPC  H14X 5530   3.896   4.519   8.136 -2.1648  1.5750  0.4428
   66SAPC  H14Y 5531   3.916   4.374   8.045  0.7205  0.3754 -1.0240
   66SAPC  C315 5532   3.696   4.436   8.082 -0.2421 -0.0297 -0.1741
   66SAPC  H15X 5533   3.642   4.384   7.999 -2.4596  2.4392 -0.4108
   66SAPC  H15Y 5534   3.642   4.533   8.089 -1.1653 -0.6524  2.3405
   66SAPC  C316 5535   3.672   4.346   8.202 -0.5326  0.8565  0.6507
   66SAPC  H16X 5536   3.726   4.255   8.168  0.3162  1.8640 -0.8326
   66SAPC  H16Y 5537   3.566   4.318   8.217 -0.9562  1.9213 -0.2875
   66SAPC  C317 5538   3.727   4.404   8.334 -0.7912  0.2615 -0.6501
   66SAPC  H17X 5539   3.674   4.500   8.355  1.3546  0.8700  2.6205
   66SAPC  H17Y 5540   3.837   4.413   8.326 -0.8837 -0.0002 -2.7614
   66SAPC  C318 5541   3.683   4.329   8.458  0.0742  0.1293  0.7667
   66SAPC  H18X 5542   3.721   4.372   8.553 -0.8820  0.3164  1.0772
   66SAPC  H18Y 5543   3.718   4.224   8.448 -0.8626 -0.1781  0.5888
   66SAPC  H18Z 5544   3.572   4.327   8.465 -0.1420  2.0369 -1.2091
   67SAPC     N 5545   4.882   0.820   6.364  0.6005  0.1061 -0.0906
   67SAPC   C12 5546   4.869   0.676   6.310  0.8369 -0.4048  0.2306
   67SAPC  H12A 5547   4.775   0.680   6.256  2.3392  1.8502 -2.5195
   67SAPC  H12B 5548   4.852   0.613   6.395 -1.2151 -0.2131  0.0124
   67SAPC   C13 5549   4.973   0.818   6.482 -0.4153 -0.1927 -0.4432
   67SAPC  H13A 5550   4.920   0.778   6.567 -0.9943 -1.2645 -1.2886
   67SAPC  H13B 5551   5.062   0.761   6.460  1.7707  2.0825  1.8233
   67SAPC  H13C 5552   5.016   0.915   6.501 -0.0714 -0.4279  0.0023
   67SAPC   C14 5553   4.946   0.902   6.256 -0.1260 -0.5179 -0.4973
   67SAPC  H14A 5554   4.896   0.899   6.160  0.1546  0.2734 -0.6740
   67SAPC  H14B 5555   4.947   1.006   6.286  0.1021 -0.2384 -1.4388
   67SAPC  H14C 5556   5.047   0.867   6.246 -0.4331 -0.9819 -2.5213
   67SAPC   C15 5557   4.752   0.874   6.404  0.1156  0.5885 -0.5097
   67SAPC  H15A 5558   4.767   0.966   6.459  1.1569 -0.4533  1.0540
   67SAPC  H15B 5559   4.683   0.893   6.324  1.2281  3.2054 -0.9651
   67SAPC  H15C 5560   4.706   0.813   6.480 -1.2812  1.6394 -0.4786
   67SAPC   C11 5561   4.978   0.631   6.214 -0.0021  0.4382  0.4408
   67SAPC  H11A 5562   4.987   0.707   6.133  0.2701 -0.8218 -0.7643
   67SAPC  H11B 5563   4.948   0.536   6.165  0.1866  0.7747 -0.3496
   67SAPC     P 5564   5.149   0.502   6.375  0.0980 -0.1600 -0.5136
   67SAPC   O13 5565   5.164   0.380   6.295 -0.5089  0.0168  0.2555
   67SAPC   O14 5566   5.271   0.546   6.448  0.2918 -0.9004  0.1238
   67SAPC   O12 5567   5.107   0.617   6.275 -0.2345  0.2852  0.0796
   67SAPC   O11 5568   5.032   0.490   6.472  0.0157 -0.2147  0.2781
   67SAPC    C1 5569   5.036   0.471   6.611  0.3879  0.3698  0.9062
   67SAPC    HA 5570   5.135   0.497   6.655  2.5046 -2.9354 -1.4579
   67SAPC    HB 5571   4.957   0.535   6.656  1.5131  2.7635 -0.2844
   67SAPC    C2 5572   5.011   0.321   6.646  0.1897  0.2847 -0.4148
   67SAPC    HS 5573   5.095   0.263   6.603 -1.7583 -1.1818 -2.4930
   67SAPC   O21 5574   4.877   0.281   6.597 -0.1291  0.5822 -0.1750
   67SAPC   C21 5575   4.870   0.153   6.568 -0.0552  0.3847 -0.6736
   67SAPC   O22 5576   4.963   0.074   6.590  0.3756 -0.1706 -0.3840
   67SAPC   C22 5577   4.732   0.116   6.504 -0.1708 -1.0982 -0.3585
   67SAPC   H2R 5578   4.744   0.155   6.400 -1.2465 -0.9597 -0.4450
   67SAPC   H2S 5579   4.737   0.005   6.502 -1.3473 -1.1831  0.4860
   67SAPC    C3 5580   5.021   0.295   6.799 -0.3732 -0.2759 -1.3177
   67SAPC    HX 5581   5.005   0.187   6.817  0.0960 -0.2955 -0.9892
   67SAPC    HY 5582   4.934   0.347   6.844 -0.1782 -0.2672 -0.9446
   67SAPC   O31 5583   5.135   0.348   6.870 -0.4492  0.1461  0.2252
   67SAPC   C31 5584   5.252   0.287   6.860 -0.9087  0.2553  0.2697
   67SAPC   O32 5585   5.263   0.176   6.808 -0.2215  0.1470  0.0779
   67SAPC   C32 5586   5.371   0.363   6.917  0.0101  0.4974 -0.8651
   67SAPC   H2X 5587   5.383   0.459   6.861  3.2931  0.6272 -0.1671
   67SAPC   H2Y 5588   5.461   0.301   6.896 -0.0275 -0.2013  0.8557
   67SAPC   C23 5589   4.617   0.179   6.583  0.8475  0.3420 -0.6801
   67SAPC   H3R 5590   4.525   0.172   6.521 -0.2808  1.6732  0.7279
   67SAPC   H3S 5591   4.642   0.286   6.604  3.4674 -0.5169  1.1355
   67SAPC   C24 5592   4.578   0.109   6.720 -0.9982  0.4195  0.1708
   67SAPC   H4R 5593   4.592  -0.000   6.708  0.5195  0.6066 -0.0066
   67SAPC   H4S 5594   4.470   0.129   6.737 -1.2449  0.2017 -1.0646
   67SAPC   C25 5595   4.649   0.158   6.842 -0.3881 -0.1436 -0.0515
   67SAPC   H5R 5596   4.613   0.254   6.884 -0.5212 -0.9100  1.6810
   67SAPC   C26 5597   4.739   0.087   6.914  0.1464  0.4225  0.0584
   67SAPC   H6R 5598   4.779   0.140   7.002  0.5838 -0.0571  0.1513
   67SAPC   C27 5599   4.790  -0.055   6.893 -0.1158  0.2515  0.4336
   67SAPC   H7R 5600   4.768  -0.090   6.790 -0.5584 -0.3095  0.7131
   67SAPC   H7S 5601   4.737  -0.128   6.958 -0.2227 -0.3190 -0.2788
   67SAPC   C28 5602   4.935  -0.067   6.932  0.0378  0.4514  0.0964
   67SAPC   H8R 5603   4.993  -0.054   6.839 -0.0778 -0.5865 -0.1342
   67SAPC   C29 5604   4.998  -0.108   7.047 -0.3350 -0.6298 -0.2675
   67SAPC   H9R 5605   5.107  -0.113   7.055 -0.4335 -1.5439  0.9868
   67SAPC  C210 5606   4.924  -0.154   7.173  0.5678  0.4901  0.3343
   67SAPC  H10R 5607   4.829  -0.208   7.152  0.5592  0.8559 -0.6608
   67SAPC  H10S 5608   4.894  -0.065   7.232  2.3561  0.3515  1.5118
   67SAPC  C211 5609   5.005  -0.244   7.266  0.3597 -0.9715 -0.1285
   67SAPC  H11R 5610   5.002  -0.352   7.244  1.6747 -0.8737 -0.8587
   67SAPC  C212 5611   5.053  -0.205   7.386 -0.2654  0.2738  0.0053
   67SAPC  H12R 5612   5.085  -0.293   7.444 -1.5332 -1.2835 -1.5455
   67SAPC  C213 5613   5.032  -0.071   7.450 -0.5599  0.3713  0.3501
   67SAPC  H13R 5614   5.041   0.008   7.372  0.1655  2.1235  2.1218
   67SAPC  H13S 5615   5.127  -0.060   7.505  0.1739  0.3072 -0.8622
   67SAPC  C214 5616   4.909  -0.073   7.535  0.3535 -1.5247  0.0507
   67SAPC  H14R 5617   4.812  -0.069   7.483 -1.1026 -1.3215  2.5570
   67SAPC  C215 5618   4.904  -0.087   7.673 -0.5202 -0.3217  1.8573
   67SAPC  H15R 5619   4.805  -0.100   7.718 -1.4155 -1.8981 -0.3849
   67SAPC  C216 5620   5.021  -0.115   7.766 -0.3856 -0.3550  0.0712
   67SAPC  H16R 5621   5.059  -0.019   7.807 -0.7707  0.0922 -0.6086
   67SAPC  H16S 5622   5.105  -0.160   7.709  1.0605  0.7432  1.2312
   67SAPC  C217 5623   5.001  -0.206   7.894  0.3468 -0.5349 -0.6501
   67SAPC  H17R 5624   5.005  -0.313   7.863 -0.9329 -0.2565 -1.8936
   67SAPC  H17S 5625   4.898  -0.188   7.931 -0.1679 -0.6539 -1.9467
   67SAPC  C218 5626   5.084  -0.165   8.001  0.0496  0.3318  0.1298
   67SAPC  H18R 5627   5.046  -0.071   8.046  0.6139  0.1948  0.9101
   67SAPC  H18S 5628   5.187  -0.142   7.967 -0.2159 -0.9281 -1.6552
   67SAPC  C219 5629   5.106  -0.271   8.110 -0.3377  1.0187 -0.0942
   67SAPC  H19R 5630   5.168  -0.347   8.058 -1.3999 -2.4930  3.2993
   67SAPC  H19S 5631   5.007  -0.309   8.142  0.8106 -1.2537  0.9862
   67SAPC  C220 5632   5.191  -0.218   8.232  0.0508  0.2433 -0.0873
   67SAPC  H20R 5633   5.153  -0.120   8.266 -0.3556  0.2661 -0.5880
   67SAPC  H20S 5634   5.301  -0.220   8.215  0.2818  1.4092  1.1167
   67SAPC  H20T 5635   5.186  -0.290   8.317 -3.4395  0.1455 -0.2359
   67SAPC   C33 5636   5.344   0.393   7.072  0.1807  0.0841  0.3174
   67SAPC   H3X 5637   5.250   0.449   7.087 -0.5002 -0.8377 -0.3734
   67SAPC   H3Y 5638   5.427   0.448   7.122  0.0606  0.3376  0.2389
   67SAPC   C34 5639   5.328   0.265   7.151  0.3049  0.2192 -0.0563
   67SAPC   H4X 5640   5.409   0.190   7.133 -0.6775 -1.4341  1.9351
   67SAPC   H4Y 5641   5.236   0.215   7.115 -0.6654  1.8454  0.0908
   67SAPC   C35 5642   5.325   0.318   7.295  0.1433 -0.4752 -0.2479
   67SAPC   H5X 5643   5.252   0.399   7.311  0.2228 -0.7072  1.3930
   67SAPC   H5Y 5644   5.421   0.362   7.330  0.0103 -1.2534  1.1647
   67SAPC   C36 5645   5.287   0.214   7.401  0.8107 -0.3415 -0.0250
   67SAPC   H6X 5646   5.351   0.125   7.387  1.4274  0.2090 -0.7777
   67SAPC   H6Y 5647   5.179   0.192   7.393  0.8592 -1.2784  1.4643
   67SAPC   C37 5648   5.321   0.266   7.546 -0.7575 -0.5710  0.0516
   67SAPC   H7X 5649   5.275   0.367   7.541  1.1712  0.2942 -1.6239
   67SAPC   H7Y 5650   5.427   0.298   7.557 -0.9838  0.2440 -0.0256
   67SAPC   C38 5651   5.285   0.170   7.665 -0.3202 -0.1852 -0.5643
   67SAPC   H8X 5652   5.318   0.066   7.642 -1.1582 -0.3324 -1.1506
   67SAPC   H8Y 5653   5.174   0.174   7.661 -0.5205  2.1612  2.7687
   67SAPC   C39 5654   5.336   0.219   7.807 -0.1035 -0.0775  0.8475
   67SAPC   H9X 5655   5.269   0.302   7.838  0.9931  0.4033  2.0394
   67SAPC   H9Y 5656   5.438   0.258   7.788  0.2780 -1.2480  0.4080
   67SAPC  C310 5657   5.350   0.108   7.909  1.1964 -0.1863 -0.0034
   67SAPC  H10X 5658   5.421   0.028   7.877  1.7242  0.0827  0.4728
   67SAPC  H10Y 5659   5.254   0.061   7.939  2.4431 -1.9597  1.3951
   67SAPC  C311 5660   5.400   0.187   8.036 -0.5014 -0.7518  0.3274
   67SAPC  H11X 5661   5.330   0.271   8.057 -0.2312  0.1498 -2.0493
   67SAPC  H11Y 5662   5.498   0.228   8.003 -0.3145 -0.7529  0.8849
   67SAPC  C312 5663   5.420   0.102   8.157 -0.3646  0.4852 -0.5956
   67SAPC  H12X 5664   5.459   0.002   8.125 -0.7813  0.0486  0.2374
   67SAPC  H12Y 5665   5.318   0.083   8.194  0.4282  0.4156  1.7092
   67SAPC  C313 5666   5.504   0.157   8.267 -0.2048 -0.0366  0.1906
   67SAPC  H13X 5667   5.456   0.252   8.299  1.1655  0.0496  2.1072
   67SAPC  H13Y 5668   5.606   0.174   8.228 -0.3032  1.5552  0.5774
   67SAPC  C314 5669   5.502   0.056   8.382  0.8406  0.0053  0.2091
   67SAPC  H14X 5670   5.399   0.019   8.401  0.5715  0.9038  0.5900
   67SAPC  H14Y 5671   5.521   0.111   8.477  0.2522  2.4353 -1.0044
   67SAPC  C315 5672   5.607  -0.048   8.354  0.1431  0.4006 -0.5952
   67SAPC  H15X 5673   5.707  -0.000   8.351 -0.2989  1.5073  0.8850
   67SAPC  H15Y 5674   5.593  -0.104   8.259 -0.2979  2.0512 -1.5527
   67SAPC  C316 5675   5.609  -0.164   8.457  0.2187  1.1636 -0.1628
   67SAPC  H16X 5676   5.509  -0.210   8.470  1.3885 -0.6287  5.7322
   67SAPC  H16Y 5677   5.628  -0.112   8.554 -0.8413 -1.0005  1.2994
   67SAPC  C317 5678   5.716  -0.277   8.435 -0.5015  0.5165 -1.3600
   67SAPC  H17X 5679   5.820  -0.236   8.443  0.5357 -2.2236  1.0534
   67SAPC  H17Y 5680   5.688  -0.330   8.342  1.1518 -2.2832 -0.4022
   67SAPC  C318 5681   5.706  -0.377   8.553  0.3703  0.5340 -0.3799
   67SAPC  H18X 5682   5.740  -0.339   8.651  1.5246 -0.0344 -0.5409
   67SAPC  H18Y 5683   5.774  -0.463   8.535 -1.1240 -1.7738  3.7614
   67SAPC  H18Z 5684   5.605  -0.423   8.553  0.1688  0.9650 -0.7605
   68SAPC     N 5685   3.556   5.583   6.211 -0.3715  0.0159 -0.2541
   68SAPC   C12 5686   3.585   5.716   6.287  0.0051  0.3556  0.4493
   68SAPC  H12A 5687   3.680   5.701   6.336  0.2796 -0.9708 -0.4489
   68SAPC  H12B 5688   3.508   5.731   6.361  2.4843  1.0295  3.1118
   68SAPC   C13 5689   3.556   5.467   6.311  0.3070  0.3093 -0.2319
   68SAPC  H13A 5690   3.500   5.485   6.402  1.3021 -0.2770  0.5293
   68SAPC  H13B 5691   3.509   5.379   6.270 -1.2301  1.0822 -0.2128
   68SAPC  H13C 5692   3.657   5.440   6.340  0.3420  1.0918  0.4160
   68SAPC   C14 5693   3.417   5.575   6.159 -0.6038 -0.6404  0.3733
   68SAPC  H14A 5694   3.396   5.473   6.131  0.0368 -0.8469  0.6437
   68SAPC  H14B 5695   3.341   5.607   6.229  1.6321 -0.2136  2.7487
   68SAPC  H14C 5696   3.400   5.641   6.075 -2.0342  0.2416  1.3019
   68SAPC   C15 5697   3.656   5.565   6.104  0.4915 -0.1237  0.6024
   68SAPC  H15A 5698   3.632   5.478   6.044 -0.4604  0.4028  0.2157
   68SAPC  H15B 5699   3.657   5.645   6.032 -2.7043 -1.1356 -0.7415
   68SAPC  H15C 5700   3.756   5.556   6.144  0.7906  2.8281  0.7242
   68SAPC   C11 5701   3.598   5.845   6.200 -0.4033  0.0671 -0.2902
   68SAPC  H11A 5702   3.669   5.834   6.116  0.5416  0.1359  0.4758
   68SAPC  H11B 5703   3.638   5.924   6.267  0.8603 -0.4164 -0.4452
   68SAPC     P 5704   3.364   5.956   6.200  0.1187 -0.1625  0.1633
   68SAPC   O13 5705   3.308   6.065   6.111 -0.3490 -0.5886 -0.4964
   68SAPC   O14 5706   3.276   5.846   6.242  0.0291 -0.1450  0.2152
   68SAPC   O12 5707   3.484   5.889   6.131 -0.2625 -0.1959  0.4158
   68SAPC   O11 5708   3.433   6.012   6.329 -0.2152  0.1431  0.5020
   68SAPC    C1 5709   3.492   6.145   6.336 -0.2727 -0.6654  0.5623
   68SAPC    HA 5710   3.599   6.138   6.365  0.1119  2.1374  0.0763
   68SAPC    HB 5711   3.484   6.207   6.244  0.1037  1.4384  1.9030
   68SAPC    C2 5712   3.438   6.234   6.453 -0.8702 -0.1189 -0.4503
   68SAPC    HS 5713   3.490   6.333   6.451  0.7676 -0.7194  3.4272
   68SAPC   O21 5714   3.470   6.177   6.582 -1.1017  0.2641 -0.4131
   68SAPC   C21 5715   3.481   6.267   6.680  0.1306 -0.6670 -0.1355
   68SAPC   O22 5716   3.500   6.388   6.663  0.5947  0.2369 -0.0061
   68SAPC   C22 5717   3.493   6.201   6.811 -0.1244 -0.1003 -0.7946
   68SAPC   H2R 5718   3.394   6.171   6.852  0.7202 -0.1052  1.4061
   68SAPC   H2S 5719   3.544   6.103   6.800 -0.2504 -0.0318 -2.1284
   68SAPC    C3 5720   3.287   6.273   6.431 -0.2277 -0.6389 -0.0357
   68SAPC    HX 5721   3.242   6.172   6.440  1.5913 -1.5227 -0.2534
   68SAPC    HY 5722   3.280   6.316   6.329 -0.0811  1.6966  0.8839
   68SAPC   O31 5723   3.239   6.358   6.545  0.1840 -0.2574  0.0976
   68SAPC   C31 5724   3.248   6.478   6.521 -0.4665 -0.8210 -0.5916
   68SAPC   O32 5725   3.304   6.532   6.425  0.3759  0.0965  0.1898
   68SAPC   C32 5726   3.165   6.560   6.625  0.1792 -0.3177 -0.0730
   68SAPC   H2X 5727   3.073   6.499   6.637 -0.8061  0.5152 -2.6500
   68SAPC   H2Y 5728   3.129   6.656   6.582  1.4006  0.9959  1.7080
   68SAPC   C23 5729   3.582   6.272   6.919  0.8185 -0.1345  0.1786
   68SAPC   H3R 5730   3.671   6.315   6.868  1.1724 -1.7292 -0.6048
   68SAPC   H3S 5731   3.599   6.195   6.997 -1.4137 -1.2044 -0.3167
   68SAPC   C24 5732   3.506   6.377   7.003  0.5986 -0.2118  0.1931
   68SAPC   H4R 5733   3.466   6.456   6.935  1.0302 -0.6355 -0.5738
   68SAPC   H4S 5734   3.584   6.430   7.061 -0.6018  1.6225  0.2123
   68SAPC   C25 5735   3.397   6.326   7.092 -1.0854 -0.1444  0.4850
   68SAPC   H5R 5736   3.302   6.311   7.039  0.3237  0.9754 -2.6518
   68SAPC   C26 5737   3.411   6.305   7.225  0.1486  0.5158  0.3684
   68SAPC   H6R 5738   3.323   6.261   7.275 -0.1748 -0.1067 -0.7203
   68SAPC   C27 5739   3.524   6.324   7.320 -0.1740 -0.5125 -0.0886
   68SAPC   H7R 5740   3.501   6.399   7.398  1.0883  0.0946 -0.2707
   68SAPC   H7S 5741   3.605   6.368   7.258 -1.1108  0.0810 -0.9234
   68SAPC   C28 5742   3.567   6.192   7.383 -0.2895  0.4180 -0.3093
   68SAPC   H8R 5743   3.550   6.103   7.320  1.7864  2.0509 -3.4283
   68SAPC   C29 5744   3.628   6.191   7.501 -0.3306  0.3443 -0.9484
   68SAPC   H9R 5745   3.666   6.100   7.550 -1.2615  0.2252 -0.4176
   68SAPC  C210 5746   3.657   6.315   7.581 -0.2823  0.2531 -0.0179
   68SAPC  H10R 5747   3.572   6.386   7.575 -0.7676 -0.4649 -2.1921
   68SAPC  H10S 5748   3.741   6.372   7.536  1.2833 -1.4538  0.6304
   68SAPC  C211 5749   3.685   6.286   7.731 -0.6506  0.4237 -0.0699
   68SAPC  H11R 5750   3.743   6.194   7.743 -2.0450 -0.5254 -0.3594
   68SAPC  C212 5751   3.669   6.366   7.842 -0.1249  0.1290 -0.7549
   68SAPC  H12R 5752   3.700   6.338   7.944 -0.5033  2.4585  0.0741
   68SAPC  C213 5753   3.602   6.500   7.841 -0.1396 -0.1615 -0.2404
   68SAPC  H13R 5754   3.494   6.471   7.842 -0.3930  0.6905 -1.3823
   68SAPC  H13S 5755   3.617   6.550   7.743  0.5919  0.2550  0.0802
   68SAPC  C214 5756   3.653   6.590   7.959  0.1734 -0.0430  0.5092
   68SAPC  H14R 5757   3.712   6.674   7.919 -2.7208  1.1560 -1.5665
   68SAPC  C215 5758   3.641   6.578   8.094  0.6429  0.1499  0.3274
   68SAPC  H15R 5759   3.676   6.663   8.156 -0.5896 -0.0924  1.3905
   68SAPC  C216 5760   3.571   6.480   8.176 -0.9507  0.5362  0.0035
   68SAPC  H16R 5761   3.535   6.399   8.110  1.4435 -1.2478  0.7602
   68SAPC  H16S 5762   3.479   6.528   8.216 -1.2877  0.2389 -0.4088
   68SAPC  C217 5763   3.655   6.419   8.301  0.2806  0.1244 -0.5959
   68SAPC  H17R 5764   3.693   6.319   8.274 -1.2804 -0.7724  0.3480
   68SAPC  H17S 5765   3.573   6.402   8.374  1.4490 -1.2833  0.4370
   68SAPC  C218 5766   3.765   6.514   8.357  0.9401 -0.2518  1.0899
   68SAPC  H18R 5767   3.709   6.588   8.418 -0.2950  0.5297 -0.8952
   68SAPC  H18S 5768   3.807   6.570   8.271  1.4249 -0.4595  1.1847
   68SAPC  C219 5769   3.885   6.450   8.444 -0.0542 -0.8144  0.0243
   68SAPC  H19R 5770   3.831   6.398   8.526 -1.1283  0.5780  0.2384
   68SAPC  H19S 5771   3.948   6.526   8.496 -0.1910  0.1446 -1.1752
   68SAPC  C220 5772   3.989   6.364   8.359  0.3151 -0.7157 -0.8766
   68SAPC  H20R 5773   4.066   6.320   8.426  0.9337  2.2669  0.5470
   68SAPC  H20S 5774   4.046   6.431   8.290  1.1055 -0.2527  0.2036
   68SAPC  H20T 5775   3.931   6.279   8.318 -1.4244 -0.0115  0.0190
   68SAPC   C33 5776   3.239   6.585   6.751  0.6808 -0.2105 -0.4582
   68SAPC   H3X 5777   3.310   6.670   6.759  1.4314 -0.9759  1.7223
   68SAPC   H3Y 5778   3.285   6.493   6.791 -1.3353 -1.9764 -1.9777
   68SAPC   C34 5779   3.140   6.622   6.867  0.5326  0.7836  0.0625
   68SAPC   H4X 5780   3.064   6.542   6.871 -0.4498  1.7007  0.1845
   68SAPC   H4Y 5781   3.081   6.712   6.838 -2.5815 -1.5819 -1.4721
   68SAPC   C35 5782   3.216   6.641   7.000 -0.1456 -0.3571 -0.4463
   68SAPC   H5X 5783   3.299   6.713   6.983 -1.1635  0.6945 -1.1381
   68SAPC   H5Y 5784   3.268   6.550   7.036  1.5452  0.6158 -0.3179
   68SAPC   C36 5785   3.129   6.702   7.113 -0.3016 -0.3403  0.4398
   68SAPC   H6X 5786   3.071   6.618   7.158  0.1393 -0.1744  1.3463
   68SAPC   H6Y 5787   3.058   6.777   7.071 -1.2020  0.4349  3.1432
   68SAPC   C37 5788   3.209   6.765   7.224  0.3040 -0.0206  0.4469
   68SAPC   H7X 5789   3.137   6.811   7.295  0.1453  0.1470  0.1762
   68SAPC   H7Y 5790   3.290   6.830   7.185 -0.2897  1.2122  1.2079
   68SAPC   C38 5791   3.290   6.665   7.308  0.2811 -0.2548  0.2740
   68SAPC   H8X 5792   3.389   6.642   7.265  0.1625  0.0908 -0.1978
   68SAPC   H8Y 5793   3.223   6.576   7.309 -0.6861  0.4224 -0.6967
   68SAPC   C39 5794   3.306   6.701   7.460 -0.0789  0.6621 -0.0686
   68SAPC   H9X 5795   3.358   6.622   7.518 -0.1199  0.0169 -0.9039
   68SAPC   H9Y 5796   3.207   6.715   7.508  1.2157  2.2103  2.3549
   68SAPC  C310 5797   3.383   6.836   7.491 -0.3657  0.6605  0.1586
   68SAPC  H10X 5798   3.306   6.908   7.456 -1.4899 -1.7965 -2.9731
   68SAPC  H10Y 5799   3.479   6.857   7.439  0.5696 -1.9832  0.6591
   68SAPC  C311 5800   3.417   6.858   7.639  0.0839  1.5533 -0.1913
   68SAPC  H11X 5801   3.481   6.948   7.656  1.4838  0.7655 -1.0956
   68SAPC  H11Y 5802   3.468   6.771   7.686  2.7268  4.0311  1.9300
   68SAPC  C312 5803   3.286   6.877   7.722  0.2608  0.8124  0.3161
   68SAPC  H12X 5804   3.214   6.797   7.696  2.3622 -1.3449  0.8253
   68SAPC  H12Y 5805   3.237   6.973   7.695 -1.5424  0.0699  0.8077
   68SAPC  C313 5806   3.306   6.889   7.871 -0.0653  0.1068 -1.0573
   68SAPC  H13X 5807   3.217   6.935   7.920  1.4320  0.6427  1.3491
   68SAPC  H13Y 5808   3.403   6.941   7.883  1.0913 -2.2279  0.5296
   68SAPC  C314 5809   3.331   6.756   7.947  0.5537 -0.1755  0.0522
   68SAPC  H14X 5810   3.364   6.781   8.050 -0.5286 -1.5444  0.7705
   68SAPC  H14Y 5811   3.416   6.706   7.895  1.1971  2.5951 -1.7865
   68SAPC  C315 5812   3.202   6.678   7.950 -0.1496 -0.1971 -0.6021
   68SAPC  H15X 5813   3.182   6.620   7.858  1.4905  0.0880 -1.1582
   68SAPC  H15Y 5814   3.115   6.745   7.965  0.0690  0.5895 -2.5907
   68SAPC  C316 5815   3.214   6.570   8.062  0.0887 -0.3327 -0.2032
   68SAPC  H16X 5816   3.257   6.616   8.154  0.2355 -1.9430  0.5563
   68SAPC  H16Y 5817   3.290   6.496   8.028 -1.4692 -1.4851 -1.2841
   68SAPC  C317 5818   3.086   6.490   8.085 -0.0594 -0.1747 -1.1837
   68SAPC  H17X 5819   3.062   6.444   7.987  2.4199  0.4713 -2.1493
   68SAPC  H17Y 5820   3.001   6.556   8.114 -0.6499 -2.0231  1.7914
   68SAPC  C318 5821   3.103   6.370   8.186  0.1072  0.0476  0.0325
   68SAPC  H18X 5822   3.134   6.409   8.285  0.5048  0.8161 -0.3853
   68SAPC  H18Y 5823   3.179   6.303   8.140  1.0541 -0.0572  1.6637
   68SAPC  H18Z 5824   3.009   6.312   8.192 -1.5199  2.5488 -0.0090
   69SLPC     N 5825   2.537   3.436  11.039 -0.5993  0.1427 -0.2748
   69SLPC   C13 5826   2.520   3.577  11.089  0.0213 -0.6741 -0.3388
   69SLPC  H13A 5827   2.537   3.648  11.009  2.0389 -0.2357  0.4330
   69SLPC  H13B 5828   2.424   3.592  11.136  0.5205 -1.1463  0.8786
   69SLPC  H13C 5829   2.585   3.602  11.171 -1.4402  1.4702  0.2526
   69SLPC   C14 5830   2.534   3.333  11.151 -0.0425  0.1024  0.1473
   69SLPC  H14A 5831   2.615   3.347  11.222  0.0751  0.8463 -0.1252
   69SLPC  H14B 5832   2.438   3.342  11.199 -0.1477  0.7119 -0.1714
   69SLPC  H14C 5833   2.532   3.234  11.109  1.1527  0.1918 -0.1517
   69SLPC   C15 5834   2.670   3.437  10.975  0.4075 -0.1029  0.6037
   69SLPC  H15A 5835   2.744   3.463  11.049  0.7704 -0.0343  0.2216
   69SLPC  H15B 5836   2.704   3.340  10.942 -0.9955 -0.1629 -0.8276
   69SLPC  H15C 5837   2.684   3.515  10.901 -0.5820 -0.2612  0.2323
   69SLPC   C12 5838   2.442   3.401  10.930  0.0128 -0.3542 -0.0682
   69SLPC  H12A 5839   2.479   3.304  10.899  0.9004 -0.3914  1.0408
   69SLPC  H12B 5840   2.456   3.466  10.845  1.2716  0.0590  0.4352
   69SLPC   C11 5841   2.290   3.406  10.958  0.1485 -0.3504  0.2964
   69SLPC  H11A 5842   2.280   3.370  11.062 -0.3909 -1.3274 -0.0828
   69SLPC  H11B 5843   2.233   3.333  10.896  0.4607  0.3900 -0.9131
   69SLPC     P 5844   2.218   3.580  10.779 -0.4017  0.3352  0.2859
   69SLPC   O13 5845   2.091   3.533  10.725  0.2123  0.1580  0.5437
   69SLPC   O14 5846   2.248   3.726  10.758  0.6166 -0.4889  0.4366
   69SLPC   O12 5847   2.243   3.542  10.931  0.0181  0.3164  0.1057
   69SLPC   O11 5848   2.331   3.502  10.702  0.2047 -0.1081 -0.5839
   69SLPC    C1 5849   2.379   3.529  10.578 -0.0482  0.6089  0.4158
   69SLPC    HA 5850   2.398   3.637  10.561  1.7630  0.2939  0.1627
   69SLPC    HB 5851   2.481   3.483  10.571  0.5770  1.9290  0.5650
   69SLPC    C2 5852   2.283   3.480  10.461 -0.4576  0.2259 -0.0555
   69SLPC    HS 5853   2.350   3.474  10.372 -0.7758  1.7209 -0.4145
   69SLPC   O21 5854   2.180   3.572  10.428 -0.3341  0.1572  0.0002
   69SLPC   C21 5855   2.227   3.677  10.357  0.2891 -0.7140 -0.0893
   69SLPC   O22 5856   2.341   3.704  10.324  0.2680  0.4265 -0.3412
   69SLPC   C22 5857   2.100   3.751  10.307  0.6408 -0.4105  0.0038
   69SLPC   H2R 5858   2.011   3.709  10.359 -0.2524 -0.0714 -1.1983
   69SLPC   H2S 5859   2.114   3.857  10.334 -2.7004 -0.5215  2.8537
   69SLPC    C3 5860   2.229   3.336  10.479  0.2263  0.0279 -0.6145
   69SLPC    HX 5861   2.154   3.326  10.561 -2.7551  0.7467 -3.0525
   69SLPC    HY 5862   2.315   3.271  10.502  0.1961 -0.2419 -1.2685
   69SLPC   O31 5863   2.169   3.293  10.355 -0.8685  0.4899 -0.3855
   69SLPC   C31 5864   2.243   3.214  10.275  0.8825  0.0226  0.0941
   69SLPC   O32 5865   2.364   3.192  10.282  0.4582  0.1425 -0.1459
   69SLPC   C32 5866   2.157   3.166  10.161 -0.3358 -0.5451 -0.3258
   69SLPC   H2X 5867   2.083   3.245  10.137  0.9780  1.7200  2.4751
   69SLPC   H2Y 5868   2.109   3.073  10.199 -1.0223  0.1430  0.5499
   69SLPC   C23 5869   2.080   3.738  10.152 -0.2157 -0.4352  0.0314
   69SLPC   H3R 5870   2.150   3.811  10.107 -2.2282  2.1966  0.8687
   69SLPC   H3S 5871   1.981   3.783  10.129  0.9649  2.6996  0.6677
   69SLPC   C24 5872   2.085   3.591  10.111 -0.0219 -0.5174 -0.4070
   69SLPC   H4R 5873   1.998   3.529  10.142 -1.0909 -0.1369 -2.4392
   69SLPC   H4S 5874   2.176   3.540  10.149  0.4109  0.0494 -0.6652
   69SLPC   C25 5875   2.083   3.567   9.953  0.8587  0.3228 -0.3147
   69SLPC   H5R 5876   1.985   3.598   9.911 -0.3662 -2.0125  0.6494
   69SLPC   H5S 5877   2.088   3.459   9.925  0.3849  0.9868 -3.3255
   69SLPC   C26 5878   2.192   3.638   9.878  0.1576  0.1282 -0.0604
   69SLPC   H6R 5879   2.290   3.645   9.929  0.3365 -0.0180 -0.3790
   69SLPC   H6S 5880   2.161   3.742   9.854 -1.6060 -0.7265 -1.7956
   69SLPC   C27 5881   2.214   3.580   9.737  0.2234 -0.1455 -0.8525
   69SLPC   H7R 5882   2.246   3.474   9.747  2.4174  0.6370  1.5930
   69SLPC   H7S 5883   2.306   3.627   9.694  0.9170 -0.5546  0.1441
   69SLPC   C28 5884   2.087   3.594   9.645  0.1185 -0.0661 -0.4273
   69SLPC   H8R 5885   2.001   3.560   9.707  0.3217 -1.7773 -1.0297
   69SLPC   H8S 5886   2.098   3.509   9.575  2.5218 -3.4915  3.6182
   69SLPC   C29 5887   2.048   3.722   9.575 -0.8760 -0.7938 -0.1395
   69SLPC   H9R 5888   2.036   3.809   9.641 -2.9847 -0.3986 -0.9720
   69SLPC  C210 5889   2.047   3.745   9.444  0.2450  0.2709 -0.1505
   69SLPC  H10R 5890   2.044   3.850   9.411 -0.0833 -0.4033 -2.3605
   69SLPC  C211 5891   2.079   3.648   9.330  0.4749  0.2503  0.0520
   69SLPC  H11R 5892   2.173   3.593   9.353  0.3767  0.3165  0.6396
   69SLPC  H11S 5893   2.088   3.712   9.240  1.2438 -2.5741 -1.9864
   69SLPC  C212 5894   1.959   3.560   9.310  0.1509 -0.3932  0.5442
   69SLPC  H12R 5895   1.878   3.562   9.385  0.9383 -0.0544  1.3982
   69SLPC  C213 5896   1.960   3.473   9.208  0.0733 -0.2880  0.3505
   69SLPC  H13R 5897   1.863   3.429   9.183  0.2083 -0.7506  0.6435
   69SLPC  C214 5898   2.079   3.453   9.106  0.9063  0.1174  0.3833
   69SLPC  H14R 5899   2.091   3.343   9.097 -1.5559 -0.2086  0.1798
   69SLPC  H14S 5900   2.173   3.501   9.142  0.0036  0.8955  1.8322
   69SLPC  C215 5901   2.046   3.504   8.956 -0.6178  0.1349  0.0456
   69SLPC  H15R 5902   2.127   3.479   8.884 -1.8198 -2.3147 -0.5663
   69SLPC  H15S 5903   2.043   3.615   8.965  0.3888  0.1328  0.4577
   69SLPC  C216 5904   1.903   3.462   8.913  0.1266  0.2948 -0.1606
   69SLPC  H16R 5905   1.826   3.498   8.985 -0.7081 -0.5154 -0.6283
   69SLPC  H16S 5906   1.890   3.352   8.921 -1.7387  0.4124 -1.0690
   69SLPC  C217 5907   1.855   3.514   8.777 -0.1206 -0.3679 -0.2815
   69SLPC  H17R 5908   1.746   3.489   8.772  0.3297 -2.8267  0.5636
   69SLPC  H17S 5909   1.918   3.471   8.697  1.0820  0.1859  0.3375
   69SLPC  C218 5910   1.862   3.676   8.771 -0.0801  0.8877 -0.4102
   69SLPC  H18R 5911   1.963   3.717   8.746  0.7692 -0.2658  0.9599
   69SLPC  H18S 5912   1.820   3.717   8.865  0.2856 -0.3563  0.3093
   69SLPC  H18T 5913   1.797   3.712   8.689 -1.7400  0.0737  0.5107
   69SLPC   C33 5914   2.226   3.106  10.040 -0.3639  0.0889 -0.0226
   69SLPC   H3X 5915   2.152   3.069   9.967  0.5177  0.2637 -1.0264
   69SLPC   H3Y 5916   2.296   3.025  10.068 -0.6205  0.8734  3.4244
   69SLPC   C34 5917   2.313   3.201   9.954  0.3968  0.5854  0.5126
   69SLPC   H4X 5918   2.407   3.233  10.005  1.7872  0.3849 -1.7712
   69SLPC   H4Y 5919   2.258   3.290   9.918  1.9152  0.8047 -1.4450
   69SLPC   C35 5920   2.357   3.130   9.819  0.6283  0.7933  0.4801
   69SLPC   H5X 5921   2.267   3.093   9.765  2.2026  1.3736 -2.7226
   69SLPC   H5Y 5922   2.432   3.052   9.846 -0.5170  0.3715  2.7321
   69SLPC   C36 5923   2.424   3.232   9.726 -0.0408  0.3015 -0.2972
   69SLPC   H6X 5924   2.534   3.226   9.739  0.1536  0.7255 -1.5912
   69SLPC   H6Y 5925   2.404   3.334   9.764 -2.2928  0.5974 -2.0300
   69SLPC   C37 5926   2.384   3.226   9.581  0.2600  0.9255  1.6380
   69SLPC   H7X 5927   2.273   3.221   9.586  0.3198  0.5919  3.1999
   69SLPC   H7Y 5928   2.420   3.131   9.535 -2.5513 -0.4831  2.1802
   69SLPC   C38 5929   2.432   3.342   9.493 -1.2536  0.0797 -0.3174
   69SLPC   H8X 5930   2.543   3.344   9.483 -1.0767  0.9801  1.3323
   69SLPC   H8Y 5931   2.399   3.431   9.552 -1.6040  0.9371 -1.7741
   69SLPC   C39 5932   2.351   3.356   9.363  0.2478  0.1184 -0.2808
   69SLPC   H9X 5933   2.383   3.455   9.325 -0.7540  0.6386  0.1859
   69SLPC   H9Y 5934   2.244   3.357   9.394 -0.3330 -4.3788 -1.4092
   69SLPC  C310 5935   2.373   3.245   9.267  0.1819  0.5687  0.5211
   69SLPC  H10X 5936   2.328   3.286   9.175 -1.2381  0.2575  1.0422
   69SLPC  H10Y 5937   2.325   3.146   9.286  1.3798 -0.8219 -2.9182
   69SLPC  C311 5938   2.521   3.199   9.239  0.0450 -0.1571 -0.2340
   69SLPC  H11X 5939   2.549   3.138   9.327 -1.3044  2.0888  1.8609
   69SLPC  H11Y 5940   2.594   3.283   9.238 -1.2086  0.9919  0.8236
   69SLPC  C312 5941   2.527   3.117   9.106 -0.0152  0.0474 -0.5860
   69SLPC  H12X 5942   2.497   3.183   9.022  1.7086  0.5002 -0.8989
   69SLPC  H12Y 5943   2.464   3.026   9.108  1.6271 -1.1303  0.0414
   69SLPC  C313 5944   2.676   3.071   9.077 -1.2474  0.2900 -0.2037
   69SLPC  H13X 5945   2.695   2.997   9.157 -0.2324  0.9286  0.1688
   69SLPC  H13Y 5946   2.741   3.160   9.094  0.4684 -0.2198 -3.3298
   69SLPC  C314 5947   2.700   3.018   8.941  0.5151  0.3374 -0.1301
   69SLPC  H14X 5948   2.618   2.944   8.929 -0.0161  1.2528 -2.9537
   69SLPC  H14Y 5949   2.795   2.961   8.941 -0.3118 -1.1514  1.7063
   69SLPC  C315 5950   2.706   3.126   8.831 -0.1705 -0.6234  0.7599
   69SLPC  H15X 5951   2.781   3.201   8.866 -0.6441 -0.2009  0.8774
   69SLPC  H15Y 5952   2.603   3.167   8.832  0.1519  0.2585  2.3600
   69SLPC  C316 5953   2.765   3.073   8.696 -0.3091 -0.2255 -0.4944
   69SLPC  H16X 5954   2.684   3.016   8.646  1.0462 -2.6564 -0.0766
   69SLPC  H16Y 5955   2.854   3.013   8.722 -0.8769 -0.9789 -0.2413
   69SLPC  C317 5956   2.799   3.187   8.608  0.8836 -0.4738 -0.5218
   69SLPC  H17X 5957   2.713   3.256   8.619  2.5528  1.7635 -0.7063
   69SLPC  H17Y 5958   2.786   3.146   8.505  0.7694 -1.4264 -0.1370
   69SLPC  C318 5959   2.932   3.254   8.628 -0.0844 -0.0785 -0.3657
   69SLPC  H18X 5960   2.937   3.314   8.721 -2.1672 -0.1910 -0.1338
   69SLPC  H18Y 5961   2.967   3.318   8.544  1.7251 -1.2403 -0.5504
   69SLPC  H18Z 5962   3.002   3.168   8.643 -2.8687 -2.2262  1.3660
   70SLPC     N 5963   3.367   0.950  10.835 -0.8575  0.1386  0.2039
   70SLPC   C13 5964   3.240   0.890  10.809 -1.1398 -0.0168  0.2738
   70SLPC  H13A 5965   3.168   0.962  10.772 -2.2066 -0.4643  1.4021
   70SLPC  H13B 5966   3.225   0.800  10.750 -3.0920  1.9754 -2.5349
   70SLPC  H13C 5967   3.196   0.875  10.907  0.8710  1.1249  1.4102
   70SLPC   C14 5968   3.444   0.987  10.710  0.1348  0.2222  0.3120
   70SLPC  H14A 5969   3.545   1.015  10.733  0.5898 -0.8610 -0.3129
   70SLPC  H14B 5970   3.429   0.905  10.641 -2.8241  0.8035  0.1188
   70SLPC  H14C 5971   3.401   1.074  10.661 -0.7555  0.2330  1.0751
   70SLPC   C15 5972   3.445   0.839  10.898  0.3869 -0.2745 -0.6734
   70SLPC  H15A 5973   3.449   0.746  10.843 -4.2503 -0.1785 -1.5954
   70SLPC  H15B 5974   3.538   0.873  10.941  0.8230 -0.1358 -1.7053
   70SLPC  H15C 5975   3.378   0.808  10.977 -0.9337  3.2202 -0.2603
   70SLPC   C12 5976   3.351   1.059  10.932  0.3971 -0.4644  0.3773
   70SLPC  H12A 5977   3.447   1.090  10.969  0.1853  0.6412  0.0353
   70SLPC  H12B 5978   3.297   1.017  11.017  0.7283 -0.4174  0.6110
   70SLPC   C11 5979   3.277   1.190  10.895 -0.4355 -0.4931 -0.6393
   70SLPC  H11A 5980   3.341   1.250  10.827 -1.3187  0.0548 -1.0040
   70SLPC  H11B 5981   3.259   1.259  10.980 -1.1170 -0.3575 -0.8878
   70SLPC     P 5982   3.098   1.279  10.722  0.0223  0.3829  0.4568
   70SLPC   O13 5983   2.963   1.243  10.674 -0.5933 -0.2224 -0.1000
   70SLPC   O14 5984   3.117   1.408  10.785  0.4781 -0.5087  0.3070
   70SLPC   O12 5985   3.153   1.167  10.826  0.0585  0.2656  0.1406
   70SLPC   O11 5986   3.204   1.262  10.602 -0.1249 -0.2752  0.1348
   70SLPC    C1 5987   3.201   1.176  10.491  0.2418  0.2616  0.0892
   70SLPC    HA 5988   3.305   1.142  10.475  0.5998  1.0565  0.6351
   70SLPC    HB 5989   3.141   1.088  10.522 -1.7832  1.1799 -1.0250
   70SLPC    C2 5990   3.157   1.250  10.357 -0.2929  0.1312 -0.7643
   70SLPC    HS 5991   3.046   1.263  10.350 -0.5307 -1.5091 -0.4694
   70SLPC   O21 5992   3.216   1.187  10.240  0.0198 -0.7507  0.5390
   70SLPC   C21 5993   3.157   1.086  10.201 -0.0898 -0.1295 -0.0154
   70SLPC   O22 5994   3.066   1.027  10.250  0.4912 -0.1541  1.0311
   70SLPC   C22 5995   3.214   1.050  10.068  0.3417  0.7768  0.1933
   70SLPC   H2R 5996   3.161   1.105   9.987 -1.1758 -1.0160 -0.1007
   70SLPC   H2S 5997   3.318   1.086  10.057  1.0188 -0.8298  1.0532
   70SLPC    C3 5998   3.213   1.392  10.353 -0.1088 -0.9166  0.5869
   70SLPC    HX 5999   3.323   1.381  10.352  0.1488  0.7899  2.9738
   70SLPC    HY 6000   3.177   1.450  10.441 -0.1513 -1.2650  0.7991
   70SLPC   O31 6001   3.170   1.467  10.235  0.7689 -0.0340  0.5177
   70SLPC   C31 6002   3.230   1.582  10.218  0.1904 -0.1042 -0.3726
   70SLPC   O32 6003   3.298   1.647  10.301  0.2905 -0.2468  0.2801
   70SLPC   C32 6004   3.211   1.622  10.072  0.2327  0.3768 -0.7364
   70SLPC   H2X 6005   3.234   1.728  10.052 -0.3897  0.5651 -0.4746
   70SLPC   H2Y 6006   3.106   1.618  10.036 -0.0083  1.9099 -0.2355
   70SLPC   C23 6007   3.193   0.900  10.032 -0.5002 -0.1034  1.0056
   70SLPC   H3R 6008   3.090   0.859  10.033  0.0016 -2.1841 -4.1126
   70SLPC   H3S 6009   3.254   0.841  10.105 -1.1760  0.3230  1.9320
   70SLPC   C24 6010   3.258   0.868   9.894  0.1176 -0.3099 -0.0610
   70SLPC   H4R 6011   3.237   0.760   9.875 -5.7756  0.1047  1.9108
   70SLPC   H4S 6012   3.364   0.899   9.894 -0.1020  0.5392 -1.9652
   70SLPC   C25 6013   3.196   0.949   9.782  0.4467 -0.4576  0.5996
   70SLPC   H5R 6014   3.218   1.055   9.810  0.9851 -0.1654 -0.8658
   70SLPC   H5S 6015   3.087   0.943   9.761  0.6373  0.9479 -1.0415
   70SLPC   C26 6016   3.269   0.928   9.655 -0.6355  0.2934  0.7836
   70SLPC   H6R 6017   3.236   0.827   9.623  1.6027 -0.0459 -0.6307
   70SLPC   H6S 6018   3.380   0.933   9.665 -0.6044  0.4865  0.3659
   70SLPC   C27 6019   3.232   1.030   9.548  0.1561  0.3307  0.1476
   70SLPC   H7R 6020   3.259   1.131   9.584  0.5902 -1.0034  4.1358
   70SLPC   H7S 6021   3.124   1.034   9.524 -0.0697  0.1256  1.1053
   70SLPC   C28 6022   3.307   0.999   9.414  0.2665 -0.3226  0.3253
   70SLPC   H8R 6023   3.271   0.911   9.356  3.4459 -0.6017 -1.4979
   70SLPC   H8S 6024   3.409   0.962   9.436  0.1899  0.5353  2.2577
   70SLPC   C29 6025   3.310   1.125   9.315  0.5589 -0.0690 -0.0890
   70SLPC   H9R 6026   3.314   1.218   9.373 -2.5875 -0.0920  0.3336
   70SLPC  C210 6027   3.272   1.127   9.190  0.8213  0.7714  0.3859
   70SLPC  H10R 6028   3.258   1.225   9.142  1.4304  1.8303  2.2562
   70SLPC  C211 6029   3.230   1.011   9.099  0.5600  0.1898 -0.1091
   70SLPC  H11R 6030   3.257   0.915   9.146  1.7365  0.1894 -0.7669
   70SLPC  H11S 6031   3.289   1.018   9.005  0.1354 -1.5580 -0.5391
   70SLPC  C212 6032   3.083   1.003   9.063 -0.6969 -0.5904 -0.0948
   70SLPC  H12R 6033   3.021   0.959   9.142  0.9139 -1.0215  0.9801
   70SLPC  C213 6034   3.025   1.048   8.951 -0.4757  0.3141  0.2598
   70SLPC  H13R 6035   2.915   1.045   8.942 -0.7668  4.4441  0.5045
   70SLPC  C214 6036   3.096   1.106   8.830 -0.1644  0.0357 -0.2727
   70SLPC  H14R 6037   3.077   1.035   8.747  0.9325 -0.1258 -0.4004
   70SLPC  H14S 6038   3.203   1.120   8.858 -0.1740 -1.8714  0.8788
   70SLPC  C215 6039   3.038   1.230   8.763  0.2436  0.5227 -0.3638
   70SLPC  H15R 6040   2.936   1.209   8.725 -0.5714  0.1935  1.8636
   70SLPC  H15S 6041   3.096   1.271   8.677 -0.0425  3.3052  0.6445
   70SLPC  C216 6042   3.024   1.354   8.857  0.7218  0.3753  0.2318
   70SLPC  H16R 6043   3.130   1.379   8.878  0.9520 -1.0318  0.8328
   70SLPC  H16S 6044   2.980   1.328   8.956 -0.2425  1.2769  0.0676
   70SLPC  C217 6045   2.961   1.473   8.788 -0.1682  0.5483  0.4346
   70SLPC  H17R 6046   2.856   1.456   8.757 -0.4977  0.7485  1.4047
   70SLPC  H17S 6047   3.016   1.496   8.694  0.5347  1.6942  1.1013
   70SLPC  C218 6048   2.975   1.598   8.874  0.5977 -0.3962 -0.7317
   70SLPC  H18R 6049   3.079   1.625   8.904 -0.8266  3.5654  1.3958
   70SLPC  H18S 6050   2.919   1.581   8.969 -1.6664 -0.4800 -2.0124
   70SLPC  H18T 6051   2.934   1.696   8.841 -0.4724 -0.2212  0.9658
   70SLPC   C33 6052   3.302   1.540   9.988  0.4046 -0.1858  0.2678
   70SLPC   H3X 6053   3.267   1.438  10.014  0.2320 -0.6638 -1.7137
   70SLPC   H3Y 6054   3.413   1.536  10.000  0.6907 -1.5678 -2.2394
   70SLPC   C34 6055   3.263   1.538   9.842  0.0906  0.9544 -0.2795
   70SLPC   H4X 6056   3.153   1.543   9.830 -0.1386  0.1061  1.2566
   70SLPC   H4Y 6057   3.290   1.438   9.801  1.8831 -0.0008  2.9345
   70SLPC   C35 6058   3.336   1.641   9.759 -0.3337  0.2479  0.5386
   70SLPC   H5X 6059   3.340   1.730   9.825 -0.5959  0.1118  0.7412
   70SLPC   H5Y 6060   3.270   1.652   9.670 -0.6091 -1.0616  0.5548
   70SLPC   C36 6061   3.475   1.602   9.711 -0.4638  0.3690  0.5430
   70SLPC   H6X 6062   3.465   1.522   9.635 -0.0721 -0.2332  1.1091
   70SLPC   H6Y 6063   3.530   1.554   9.795  0.7975  1.5028  0.3917
   70SLPC   C37 6064   3.571   1.717   9.666  0.1255  0.1297  0.1437
   70SLPC   H7X 6065   3.597   1.779   9.755  0.0640  0.4652 -0.0662
   70SLPC   H7Y 6066   3.509   1.787   9.606  0.0794  0.6972  0.8287
   70SLPC   C38 6067   3.700   1.668   9.592  0.4449 -0.0842 -0.6475
   70SLPC   H8X 6068   3.659   1.585   9.530 -0.8587 -1.3120  1.7259
   70SLPC   H8Y 6069   3.773   1.621   9.661 -1.1784 -1.3008  0.3133
   70SLPC   C39 6070   3.769   1.767   9.508  0.0078 -0.1293 -0.2844
   70SLPC   H9X 6071   3.855   1.721   9.454  0.8265  0.2659  0.6519
   70SLPC   H9Y 6072   3.806   1.850   9.570 -1.2220  0.3616 -0.1868
   70SLPC  C310 6073   3.672   1.826   9.403 -0.1567  0.1770 -0.2249
   70SLPC  H10X 6074   3.592   1.893   9.444 -3.9289 -3.4180 -1.0718
   70SLPC  H10Y 6075   3.621   1.746   9.346 -1.7279 -0.3917  1.8178
   70SLPC  C311 6076   3.762   1.909   9.311 -0.0342 -0.2060 -0.2838
   70SLPC  H11X 6077   3.851   1.847   9.286  0.2945  0.2836 -0.3360
   70SLPC  H11Y 6078   3.788   1.994   9.378 -1.1437 -0.6169  0.7015
   70SLPC  C312 6079   3.690   1.952   9.188 -0.1976 -0.0476 -0.6987
   70SLPC  H12X 6080   3.606   2.016   9.222  0.1220  0.2050 -0.3662
   70SLPC  H12Y 6081   3.637   1.862   9.151 -1.0341  0.6158 -1.1402
   70SLPC  C313 6082   3.774   2.018   9.079 -0.2066 -0.5074 -0.5140
   70SLPC  H13X 6083   3.852   1.945   9.049  1.2290  0.7617 -0.0163
   70SLPC  H13Y 6084   3.826   2.103   9.129 -0.8293 -0.6656  0.4438
   70SLPC  C314 6085   3.678   2.058   8.963 -0.2935  0.1374  0.8786
   70SLPC  H14X 6086   3.624   2.151   8.991 -0.3948  1.3268 -2.7587
   70SLPC  H14Y 6087   3.602   1.980   8.943 -1.0948  1.4398 -1.6209
   70SLPC  C315 6088   3.745   2.068   8.832 -0.0445  0.0781  1.0447
   70SLPC  H15X 6089   3.794   1.971   8.805 -1.0647 -0.4956  1.2217
   70SLPC  H15Y 6090   3.836   2.131   8.844  0.4214 -0.7473  1.9596
   70SLPC  C316 6091   3.661   2.111   8.707  0.6919  0.3479  0.0379
   70SLPC  H16X 6092   3.718   2.116   8.612 -0.6169 -0.3855 -0.8091
   70SLPC  H16Y 6093   3.611   2.205   8.739  2.8874  1.0205  1.7826
   70SLPC  C317 6094   3.550   2.013   8.681 -0.3260  0.5137 -0.2482
   70SLPC  H17X 6095   3.481   2.044   8.600 -1.1952 -0.0170  0.2791
   70SLPC  H17Y 6096   3.487   2.002   8.772  0.4354 -0.3673  0.1971
   70SLPC  C318 6097   3.590   1.877   8.639  0.4467 -0.1658  0.1739
   70SLPC  H18X 6098   3.659   1.824   8.708 -3.0680 -1.1858  3.2236
   70SLPC  H18Y 6099   3.639   1.901   8.542 -2.6608 -0.0832 -1.5103
   70SLPC  H18Z 6100   3.503   1.813   8.613  1.0699  0.1759 -3.2069
   71SLPC     N 6101   3.337   5.743  10.651 -0.0601 -0.9462  0.3258
   71SLPC   C13 6102   3.196   5.754  10.696  0.0420 -0.3385  0.4091
   71SLPC  H13A 6103   3.137   5.746  10.606  1.2845 -3.1391 -0.2477
   71SLPC  H13B 6104   3.165   5.677  10.764  0.8319  0.4147  1.6568
   71SLPC  H13C 6105   3.168   5.843  10.751  1.9922  1.0398 -0.6885
   71SLPC   C14 6106   3.346   5.608  10.587  0.3455  0.3836  0.5622
   71SLPC  H14A 6107   3.278   5.584  10.506  0.3214  1.2402  0.3164
   71SLPC  H14B 6108   3.447   5.602  10.549 -0.1469  0.9839 -0.9260
   71SLPC  H14C 6109   3.337   5.521  10.650 -1.2002  0.5920  0.6634
   71SLPC   C15 6110   3.419   5.757  10.769  0.3010  0.3511  0.1207
   71SLPC  H15A 6111   3.525   5.753  10.745  0.2631  1.8537 -0.3592
   71SLPC  H15B 6112   3.405   5.847  10.826 -1.5105  0.5060 -0.5278
   71SLPC  H15C 6113   3.405   5.675  10.839  0.9820 -0.0662 -0.2092
   71SLPC   C12 6114   3.365   5.865  10.560  0.3066  0.2542 -0.4600
   71SLPC  H12A 6115   3.363   5.945  10.632  1.6031  0.9839 -1.2102
   71SLPC  H12B 6116   3.283   5.870  10.490 -2.1513 -2.6212  1.8827
   71SLPC   C11 6117   3.500   5.888  10.498  0.0005  0.4421  0.0279
   71SLPC  H11A 6118   3.502   5.976  10.430  0.4924  0.1535 -0.3347
   71SLPC  H11B 6119   3.525   5.801  10.434  0.6877  1.0845 -0.6008
   71SLPC     P 6120   3.745   5.895  10.577  0.1403  0.1072  0.2719
   71SLPC   O13 6121   3.773   6.012  10.489 -0.2967 -0.0992 -0.4884
   71SLPC   O14 6122   3.827   5.874  10.699  0.0930 -0.2600 -0.6244
   71SLPC   O12 6123   3.596   5.911  10.605  0.4917  0.5595  0.4477
   71SLPC   O11 6124   3.761   5.771  10.488 -0.0349 -0.1840  0.5216
   71SLPC    C1 6125   3.717   5.640  10.525 -0.4639 -0.7414  0.3747
   71SLPC    HA 6126   3.792   5.584  10.586 -0.6182 -0.9286  0.3928
   71SLPC    HB 6127   3.629   5.649  10.592  0.0797  0.0214  1.0160
   71SLPC    C2 6128   3.696   5.560  10.404 -0.0034 -0.1621  0.1348
   71SLPC    HS 6129   3.790   5.566  10.345  0.0650  1.1886  0.3504
   71SLPC   O21 6130   3.580   5.609  10.330  0.0615 -0.6488  0.0243
   71SLPC   C21 6131   3.596   5.619  10.199 -0.4955 -0.6833  0.0706
   71SLPC   O22 6132   3.699   5.581  10.143 -0.1001 -0.9675 -0.5456
   71SLPC   C22 6133   3.483   5.697  10.145  0.9173  0.2324  0.2063
   71SLPC   H2R 6134   3.395   5.688  10.212  0.9179  0.5341  0.2489
   71SLPC   H2S 6135   3.504   5.806  10.140  0.7857  0.2095 -1.5918
   71SLPC    C3 6136   3.661   5.409  10.446 -0.2958 -0.9374  0.5415
   71SLPC    HX 6137   3.572   5.412  10.511 -1.4029  1.2492 -0.9582
   71SLPC    HY 6138   3.743   5.374  10.512 -1.2824  0.1758  2.4258
   71SLPC   O31 6139   3.625   5.326  10.330 -0.2425 -0.0642  0.4514
   71SLPC   C31 6140   3.683   5.213  10.326  0.4344  0.1730  0.5040
   71SLPC   O32 6141   3.771   5.170  10.402 -0.2055  0.0332  0.1916
   71SLPC   C32 6142   3.639   5.130  10.203 -0.1458 -0.0613  0.5750
   71SLPC   H2X 6143   3.533   5.105  10.222  0.1044 -1.4635  0.2693
   71SLPC   H2Y 6144   3.702   5.038  10.199  1.4320  0.9709  0.7425
   71SLPC   C23 6145   3.417   5.641  10.014 -0.1617  0.0979  0.1788
   71SLPC   H3R 6146   3.366   5.544  10.028 -1.6513  0.9651  1.0095
   71SLPC   H3S 6147   3.489   5.631   9.931 -0.7588  1.2614 -0.4991
   71SLPC   C24 6148   3.304   5.735   9.963 -0.3077 -0.8966 -0.1133
   71SLPC   H4R 6149   3.340   5.839   9.953 -0.6036 -1.0467 -4.8870
   71SLPC   H4S 6150   3.226   5.738  10.042  0.0934  0.8027  0.2701
   71SLPC   C25 6151   3.245   5.689   9.831  0.6122  0.0570 -0.1763
   71SLPC   H5R 6152   3.146   5.739   9.816  1.3583  1.0613 -2.1074
   71SLPC   H5S 6153   3.216   5.582   9.842  0.7896  0.1473  1.3876
   71SLPC   C26 6154   3.328   5.712   9.708  0.3878  0.0347  0.2374
   71SLPC   H6R 6155   3.433   5.678   9.720  0.9884  1.6393 -0.1875
   71SLPC   H6S 6156   3.335   5.820   9.684 -1.5768 -0.4362 -3.0133
   71SLPC   C27 6157   3.274   5.638   9.582  0.3543  0.1014  0.5822
   71SLPC   H7R 6158   3.174   5.672   9.548  0.2860  0.1505  0.8288
   71SLPC   H7S 6159   3.264   5.531   9.612 -1.1628  0.3059  0.8972
   71SLPC   C28 6160   3.379   5.649   9.472  0.3273 -0.3829  0.3282
   71SLPC   H8R 6161   3.458   5.574   9.492 -1.2583 -2.2743 -0.1008
   71SLPC   H8S 6162   3.415   5.754   9.467  0.1605 -0.3320  0.1733
   71SLPC   C29 6163   3.325   5.601   9.341  0.1713  0.0886 -0.2636
   71SLPC   H9R 6164   3.274   5.503   9.349  1.2772 -0.3642  4.1363
   71SLPC  C210 6165   3.326   5.662   9.223 -0.0856 -0.2165  0.6195
   71SLPC  H10R 6166   3.284   5.626   9.128  1.6677  3.6796 -1.8896
   71SLPC  C211 6167   3.400   5.794   9.198 -0.1360  1.3771 -0.5097
   71SLPC  H11R 6168   3.483   5.775   9.127  1.1545  1.8932  0.8123
   71SLPC  H11S 6169   3.450   5.821   9.294 -1.9291  1.3133  0.4848
   71SLPC  C212 6170   3.315   5.917   9.159 -0.1541 -0.4306 -0.0808
   71SLPC  H12R 6171   3.229   5.935   9.225 -0.0621  2.7195 -0.6544
   71SLPC  C213 6172   3.348   6.009   9.066 -0.2298  0.6580  0.3877
   71SLPC  H13R 6173   3.279   6.093   9.046 -1.9432 -1.1982 -2.2436
   71SLPC  C214 6174   3.474   6.018   8.979 -0.5065 -0.2051  0.5429
   71SLPC  H14R 6175   3.526   5.921   8.968 -0.5767 -0.5545  2.7548
   71SLPC  H14S 6176   3.540   6.097   9.022  0.7397 -0.4463 -0.8494
   71SLPC  C215 6177   3.433   6.073   8.839 -0.0149  0.1006 -0.5101
   71SLPC  H15R 6178   3.394   6.175   8.860  0.2873 -0.2589  2.0992
   71SLPC  H15S 6179   3.349   6.016   8.793 -0.9721  1.0460  0.0156
   71SLPC  C216 6180   3.555   6.068   8.747 -0.1177  0.6244 -0.0888
   71SLPC  H16R 6181   3.572   5.962   8.719 -1.7977 -0.8912  3.8857
   71SLPC  H16S 6182   3.651   6.087   8.800 -0.4980 -0.8452  1.2119
   71SLPC  C217 6183   3.549   6.153   8.623  0.7726 -0.1724 -0.1027
   71SLPC  H17R 6184   3.651   6.144   8.581  0.6892  0.5055 -0.4744
   71SLPC  H17S 6185   3.522   6.258   8.648  2.1759  0.1992 -0.0723
   71SLPC  C218 6186   3.455   6.106   8.512  0.1402  0.5569  0.2634
   71SLPC  H18R 6187   3.347   6.122   8.531 -0.4462 -2.7828  0.3946
   71SLPC  H18S 6188   3.473   5.997   8.496 -3.9137 -0.0946 -0.8672
   71SLPC  H18T 6189   3.489   6.163   8.423  0.9134  0.4998  0.5166
   71SLPC   C33 6190   3.645   5.209  10.075 -0.1490  0.6326 -0.0765
   71SLPC   H3X 6191   3.744   5.251  10.047 -0.4966  2.2872  1.0321
   71SLPC   H3Y 6192   3.570   5.289  10.092  1.2086  1.4563  2.6502
   71SLPC   C34 6193   3.614   5.116   9.962 -0.5038 -0.4255  0.6695
   71SLPC   H4X 6194   3.518   5.065   9.981 -0.2200 -1.3115 -0.1636
   71SLPC   H4Y 6195   3.689   5.034   9.959  1.9293  1.6622  1.0202
   71SLPC   C35 6196   3.630   5.169   9.822  0.1334 -0.1050  0.4058
   71SLPC   H5X 6197   3.733   5.162   9.783  0.7268 -1.6639  2.0919
   71SLPC   H5Y 6198   3.608   5.278   9.829 -1.1729 -0.3984  1.4872
   71SLPC   C36 6199   3.538   5.095   9.719  0.3742 -0.2618 -0.3706
   71SLPC   H6X 6200   3.437   5.116   9.761  0.5759 -1.0046  0.5250
   71SLPC   H6Y 6201   3.557   4.985   9.719 -0.8899 -0.5016 -0.5878
   71SLPC   C37 6202   3.547   5.158   9.579 -0.2120 -0.9141 -0.0652
   71SLPC   H7X 6203   3.646   5.139   9.532  0.8207  0.9402  1.2186
   71SLPC   H7Y 6204   3.535   5.268   9.591 -0.4114 -0.2737 -4.2832
   71SLPC   C38 6205   3.434   5.092   9.493 -0.7639 -0.5311 -0.2764
   71SLPC   H8X 6206   3.337   5.105   9.544 -1.0021  0.6898 -0.9916
   71SLPC   H8Y 6207   3.452   4.983   9.483  2.1906 -0.1161 -0.4342
   71SLPC   C39 6208   3.437   5.163   9.355  0.1313  0.4323 -1.0875
   71SLPC   H9X 6209   3.533   5.149   9.302  0.3477  1.1451 -0.8868
   71SLPC   H9Y 6210   3.415   5.272   9.361  0.5407  0.4479  1.1359
   71SLPC  C310 6211   3.317   5.101   9.280 -0.6005 -0.8818 -0.2579
   71SLPC  H10X 6212   3.228   5.135   9.337 -0.1642  1.8788 -1.0474
   71SLPC  H10Y 6213   3.322   4.990   9.288  1.6972 -0.7767  0.2953
   71SLPC  C311 6214   3.308   5.143   9.131 -0.1025  0.0909 -0.3097
   71SLPC  H11X 6215   3.410   5.145   9.086 -0.0465  0.9741 -0.1657
   71SLPC  H11Y 6216   3.265   5.246   9.135 -1.5100 -0.5173  0.8065
   71SLPC  C312 6217   3.210   5.054   9.069 -0.2139 -0.0143  0.4319
   71SLPC  H12X 6218   3.125   5.057   9.141 -0.5607 -0.4031  0.0465
   71SLPC  H12Y 6219   3.258   4.954   9.065  2.4641  1.0958  1.9157
   71SLPC  C313 6220   3.173   5.107   8.929  0.5136 -0.3431 -0.0135
   71SLPC  H13X 6221   3.268   5.102   8.871  0.1231  3.3502 -1.1788
   71SLPC  H13Y 6222   3.150   5.215   8.929 -0.7769 -0.5944 -0.9319
   71SLPC  C314 6223   3.057   5.035   8.857  0.0277 -0.2065 -0.4096
   71SLPC  H14X 6224   2.971   5.032   8.927  1.0597 -0.1469  0.9032
   71SLPC  H14Y 6225   3.103   4.934   8.852  0.4548  0.0204 -1.2536
   71SLPC  C315 6226   3.017   5.084   8.722 -0.0157 -0.0571 -0.5512
   71SLPC  H15X 6227   2.957   4.998   8.687 -1.0606  1.6745 -3.3243
   71SLPC  H15Y 6228   3.106   5.098   8.657  0.4231 -0.8908 -0.1422
   71SLPC  C316 6229   2.929   5.209   8.710  0.7439  0.0029 -0.0018
   71SLPC  H16X 6230   2.978   5.295   8.761  0.4056  1.8775 -2.6068
   71SLPC  H16Y 6231   2.830   5.189   8.755  0.3790  2.4456  0.4282
   71SLPC  C317 6232   2.895   5.245   8.561 -0.5710 -0.3240  0.1468
   71SLPC  H17X 6233   2.817   5.323   8.564 -1.3677 -1.1109  0.2538
   71SLPC  H17Y 6234   2.860   5.156   8.505 -2.2757 -0.0083  0.6478
   71SLPC  C318 6235   3.020   5.297   8.487  0.6347 -0.0498  0.3604
   71SLPC  H18X 6236   3.101   5.223   8.468  0.3662 -0.5111  0.9745
   71SLPC  H18Y 6237   3.058   5.388   8.539  2.8861 -0.9749  0.4540
   71SLPC  H18Z 6238   2.981   5.329   8.388  1.0349  1.2551  0.5960
   72SLPC     N 6239   5.910   4.734  10.775 -0.2552 -0.8433  0.3551
   72SLPC   C13 6240   5.869   4.646  10.893 -0.2459 -0.4201 -0.6391
   72SLPC  H13A 6241   5.835   4.553  10.851 -1.7207 -0.2065  0.0247
   72SLPC  H13B 6242   5.952   4.635  10.962  0.7785 -0.7300 -1.8764
   72SLPC  H13C 6243   5.781   4.684  10.942  0.1756 -1.8628  1.3682
   72SLPC   C14 6244   6.021   4.670  10.699  0.3112  0.4586 -0.1352
   72SLPC  H14A 6245   6.107   4.645  10.759  0.2323  0.2524 -0.1069
   72SLPC  H14B 6246   5.994   4.569  10.670  2.0344  0.0224 -0.3720
   72SLPC  H14C 6247   6.060   4.731  10.619 -2.0932  0.8732 -1.0661
   72SLPC   C15 6248   5.966   4.861  10.833  0.4388  0.1114 -0.7945
   72SLPC  H15A 6249   5.907   4.899  10.914  0.7487  3.7535 -2.0984
   72SLPC  H15B 6250   6.063   4.840  10.877 -0.3319 -0.5613  0.6211
   72SLPC  H15C 6251   5.984   4.942  10.764  1.1074  0.6067 -0.0538
   72SLPC   C12 6252   5.793   4.776  10.692 -0.0571  0.1655  0.2031
   72SLPC  H12A 6253   5.831   4.855  10.629  0.7675 -1.6697 -1.7670
   72SLPC  H12B 6254   5.714   4.810  10.757 -0.8960 -1.0683 -0.1355
   72SLPC   C11 6255   5.729   4.667  10.589  0.4183 -0.1918 -0.0603
   72SLPC  H11A 6256   5.819   4.624  10.542  0.9718 -0.5511  1.2677
   72SLPC  H11B 6257   5.663   4.722  10.519 -0.6551  0.4331  1.3703
   72SLPC     P 6258   5.701   4.415  10.657  0.2342  0.0316  0.1706
   72SLPC   O13 6259   5.840   4.410  10.702 -0.4561  0.2645  0.0124
   72SLPC   O14 6260   5.603   4.331  10.730  0.4930 -0.0067  0.2302
   72SLPC   O12 6261   5.647   4.566  10.653 -0.1412 -0.2230 -0.0361
   72SLPC   O11 6262   5.696   4.382  10.505  0.1245 -0.2761 -0.5739
   72SLPC    C1 6263   5.569   4.379  10.444 -0.0826 -0.4062  0.1054
   72SLPC    HA 6264   5.500   4.309  10.495 -1.1458  0.5359  0.0078
   72SLPC    HB 6265   5.520   4.479  10.455  2.2027  1.0803 -2.1063
   72SLPC    C2 6266   5.577   4.341  10.288 -0.5927 -0.4541 -0.1499
   72SLPC    HS 6267   5.475   4.321  10.250 -0.3075  0.7072 -1.6090
   72SLPC   O21 6268   5.658   4.229  10.260 -0.5364 -0.9034 -0.4358
   72SLPC   C21 6269   5.634   4.119  10.324  0.4423 -0.1017 -0.0093
   72SLPC   O22 6270   5.535   4.095  10.394  0.0062 -0.0227  0.1444
   72SLPC   C22 6271   5.754   4.025  10.303  0.5361 -0.3491  0.3841
   72SLPC   H2R 6272   5.823   4.072  10.230  3.1304 -0.5140  2.5629
   72SLPC   H2S 6273   5.807   4.024  10.401 -0.5836  0.8859  1.0414
   72SLPC    C3 6274   5.647   4.456  10.209 -0.2608 -0.2492 -0.8242
   72SLPC    HX 6275   5.757   4.441  10.219  0.1659  2.5637 -0.6364
   72SLPC    HY 6276   5.619   4.551  10.259 -0.8937  0.1708 -1.9463
   72SLPC   O31 6277   5.600   4.456  10.079  0.0586 -0.0121 -0.0452
   72SLPC   C31 6278   5.690   4.467   9.983 -0.0712 -0.1075 -0.1933
   72SLPC   O32 6279   5.810   4.465   9.998  0.2128 -0.0694  0.0767
   72SLPC   C32 6280   5.621   4.471   9.849 -0.2853  0.6094 -0.3973
   72SLPC   H2X 6281   5.567   4.568   9.839  1.2128  1.9717  3.1150
   72SLPC   H2Y 6282   5.549   4.388   9.857 -0.3169  0.4260 -2.2511
   72SLPC   C23 6283   5.716   3.878  10.264 -0.3196  0.0082 -0.2880
   72SLPC   H3R 6284   5.661   3.817  10.339 -0.1183 -2.3155 -1.9357
   72SLPC   H3S 6285   5.811   3.821  10.255 -0.7477 -0.5894 -1.1504
   72SLPC   C24 6286   5.655   3.855  10.126 -0.2657 -0.2538  0.5399
   72SLPC   H4R 6287   5.579   3.934  10.109 -1.2682 -0.9482  1.6533
   72SLPC   H4S 6288   5.601   3.758  10.134  1.0892 -1.1295 -0.5426
   72SLPC   C25 6289   5.766   3.827  10.018  0.1754  0.0194  0.0247
   72SLPC   H5R 6290   5.833   3.758  10.074  0.7900  1.2232  0.8084
   72SLPC   H5S 6291   5.821   3.920   9.993  1.4704 -1.0275 -1.1280
   72SLPC   C26 6292   5.701   3.757   9.891 -0.2400  0.5612  1.2330
   72SLPC   H6R 6293   5.657   3.663   9.930  1.2111 -0.0637  1.4145
   72SLPC   H6S 6294   5.786   3.731   9.825  1.0211 -1.2165  3.4100
   72SLPC   C27 6295   5.587   3.842   9.826  0.3079 -0.3502  0.3623
   72SLPC   H7R 6296   5.509   3.853   9.904  1.4928  1.1627  1.4088
   72SLPC   H7S 6297   5.543   3.784   9.743 -1.5083  1.3734  0.0225
   72SLPC   C28 6298   5.629   3.980   9.778  0.4998  0.1284  0.5380
   72SLPC   H8R 6299   5.671   4.040   9.862  1.2647 -0.6451  0.7303
   72SLPC   H8S 6300   5.539   4.034   9.743  1.3836  1.4305  0.2129
   72SLPC   C29 6301   5.734   3.970   9.672  0.0425 -0.3880  0.1425
   72SLPC   H9R 6302   5.837   3.958   9.708  0.4881 -1.7726 -1.4827
   72SLPC  C210 6303   5.726   3.976   9.542 -0.1482 -0.8734 -0.3263
   72SLPC  H10R 6304   5.824   3.973   9.492 -0.2529  0.5486 -0.6609
   72SLPC  C211 6305   5.606   4.001   9.463  0.5575  0.2953 -0.3027
   72SLPC  H11R 6306   5.612   4.104   9.421 -0.7160 -0.1630 -1.6999
   72SLPC  H11S 6307   5.523   3.986   9.535 -0.3669 -0.7312 -1.5340
   72SLPC  C212 6308   5.587   3.906   9.345  0.0868  0.6998 -0.2535
   72SLPC  H12R 6309   5.493   3.848   9.344  0.1325  0.6312 -0.6110
   72SLPC  C213 6310   5.643   3.911   9.227  0.4819  0.4102  0.4628
   72SLPC  H13R 6311   5.600   3.850   9.146  1.4287 -0.1264  0.3404
   72SLPC  C214 6312   5.736   4.017   9.174  0.4351  0.1154 -0.0777
   72SLPC  H14R 6313   5.836   3.971   9.164  0.0908 -0.5842 -0.3799
   72SLPC  H14S 6314   5.747   4.109   9.235  3.0852  0.0451 -0.3567
   72SLPC  C215 6315   5.686   4.070   9.033 -0.7144  0.6005 -0.6378
   72SLPC  H15R 6316   5.754   4.158   9.022 -0.0353  0.5402  2.2280
   72SLPC  H15S 6317   5.581   4.106   9.031 -0.5387  1.1400 -2.4447
   72SLPC  C216 6318   5.705   3.968   8.929  0.4334 -0.0416  0.8281
   72SLPC  H16R 6319   5.675   3.864   8.950  1.1220 -0.4678 -0.2391
   72SLPC  H16S 6320   5.813   3.972   8.904  0.6000 -2.4170  1.0136
   72SLPC  C217 6321   5.627   3.995   8.793  0.1131 -0.0919  0.1382
   72SLPC  H17R 6322   5.687   3.951   8.711  1.6543 -0.7906  1.5749
   72SLPC  H17S 6323   5.634   4.105   8.775 -0.6073 -0.0552  0.0494
   72SLPC  C218 6324   5.476   3.956   8.794  0.1555  0.3013 -0.0485
   72SLPC  H18R 6325   5.434   3.941   8.692 -0.7768 -2.0014  0.6009
   72SLPC  H18S 6326   5.424   4.041   8.842  1.0036  1.7616 -1.5957
   72SLPC  H18T 6327   5.459   3.861   8.849  1.8509  0.2841  0.5126
   72SLPC   C33 6328   5.717   4.463   9.722 -0.6792  0.0459 -0.6055
   72SLPC   H3X 6329   5.800   4.394   9.750  0.2170  0.9251 -1.0508
   72SLPC   H3Y 6330   5.748   4.568   9.706 -2.6427  0.8207  0.2844
   72SLPC   C34 6331   5.634   4.403   9.603  0.3753 -0.3929 -0.5868
   72SLPC   H4X 6332   5.545   4.467   9.585  1.1120  0.8700  0.0861
   72SLPC   H4Y 6333   5.591   4.307   9.638  0.7119  0.3363  2.0211
   72SLPC   C35 6334   5.699   4.383   9.467  0.1011 -0.0995  0.2779
   72SLPC   H5X 6335   5.635   4.322   9.399 -0.6650  0.4067  0.5310
   72SLPC   H5Y 6336   5.794   4.326   9.477 -0.0732 -0.3480  0.5300
   72SLPC   C36 6337   5.723   4.521   9.398 -0.6658 -0.5064 -0.1436
   72SLPC   H6X 6338   5.799   4.576   9.458 -1.8474  0.6206  0.3823
   72SLPC   H6Y 6339   5.627   4.576   9.403 -1.2847 -1.3545 -1.8406
   72SLPC   C37 6340   5.796   4.506   9.263  0.0265  0.8557 -0.2539
   72SLPC   H7X 6341   5.889   4.448   9.281 -1.3290 -1.1679  0.6896
   72SLPC   H7Y 6342   5.815   4.609   9.227 -1.7294  1.1889 -0.2992
   72SLPC   C38 6343   5.717   4.432   9.157 -1.2621 -0.4871  0.0004
   72SLPC   H8X 6344   5.674   4.336   9.193 -1.1957 -0.2194  0.8121
   72SLPC   H8Y 6345   5.786   4.402   9.075 -0.5550  0.9848  0.0366
   72SLPC   C39 6346   5.621   4.526   9.086 -0.1995 -0.5475  0.4083
   72SLPC   H9X 6347   5.681   4.618   9.067  1.1304 -1.5653 -0.5489
   72SLPC   H9Y 6348   5.535   4.556   9.150 -1.0607 -2.3758  0.1932
   72SLPC  C310 6349   5.572   4.479   8.951  0.3287  0.8285 -0.1445
   72SLPC  H10X 6350   5.554   4.370   8.955 -0.9244  1.0574  1.3927
   72SLPC  H10Y 6351   5.653   4.492   8.876  1.8146  0.3076  1.3019
   72SLPC  C311 6352   5.450   4.552   8.905 -0.4651  0.2210 -0.2785
   72SLPC  H11X 6353   5.486   4.657   8.893 -1.5280  0.6092 -0.1465
   72SLPC  H11Y 6354   5.369   4.539   8.980 -2.4786  1.2447 -2.1686
   72SLPC  C312 6355   5.383   4.501   8.774 -0.2019 -0.4885 -0.6340
   72SLPC  H12X 6356   5.336   4.401   8.784 -0.8989 -0.1269 -0.1737
   72SLPC  H12Y 6357   5.459   4.491   8.694 -0.2062 -0.2333 -0.6712
   72SLPC  C313 6358   5.280   4.598   8.718  1.2779 -0.8193 -0.0603
   72SLPC  H13X 6359   5.258   4.560   8.617 -2.0896 -1.9095  0.9715
   72SLPC  H13Y 6360   5.324   4.700   8.710  0.2542 -0.0194  2.8905
   72SLPC  C314 6361   5.147   4.602   8.796 -0.1057  0.7014  0.0076
   72SLPC  H14X 6362   5.167   4.615   8.904  1.6832 -0.5610 -0.1271
   72SLPC  H14Y 6363   5.088   4.508   8.793  1.6028 -0.3940 -0.3173
   72SLPC  C315 6364   5.058   4.715   8.743  0.5690  0.1713  0.1048
   72SLPC  H15X 6365   5.117   4.809   8.749  1.2372 -0.1015 -1.7590
   72SLPC  H15Y 6366   4.973   4.728   8.814  2.1810  2.6881  1.7539
   72SLPC  C316 6367   4.996   4.712   8.603  0.2367  0.1121  0.4861
   72SLPC  H16X 6368   5.077   4.712   8.527 -1.0008 -0.9088 -0.9068
   72SLPC  H16Y 6369   4.933   4.803   8.590  0.7375  0.5996  1.3810
   72SLPC  C317 6370   4.903   4.599   8.585  0.4957  1.2459  1.0351
   72SLPC  H17X 6371   4.806   4.616   8.638 -0.3614 -2.8579  1.1129
   72SLPC  H17Y 6372   4.931   4.499   8.624 -0.7753  0.2703 -0.4211
   72SLPC  C318 6373   4.872   4.584   8.431 -0.2446 -0.3132 -0.9687
   72SLPC  H18X 6374   4.783   4.519   8.415 -0.0456 -0.7202 -0.4542
   72SLPC  H18Y 6375   4.959   4.540   8.378 -0.4219  0.1614 -1.6598
   72SLPC  H18Z 6376   4.860   4.684   8.385  0.0319 -0.2698 -0.9475
   73SLPC     N 6377   4.925   3.410  11.104 -0.0640  0.1108 -0.0189
   73SLPC   C13 6378   4.849   3.280  11.081  0.2332  0.1758  0.0418
   73SLPC  H13A 6379   4.794   3.237  11.163 -1.7714 -0.9111 -1.7759
   73SLPC  H13B 6380   4.786   3.311  10.999  0.3048  2.3283  0.7275
   73SLPC  H13C 6381   4.915   3.202  11.046 -2.0620 -1.4083 -1.0165
   73SLPC   C14 6382   5.055   3.391  11.176 -0.2056 -0.0459  0.7739
   73SLPC  H14A 6383   5.106   3.485  11.192  0.9767 -0.6275  0.5994
   73SLPC  H14B 6384   5.042   3.332  11.266 -0.6070 -0.4738  0.4392
   73SLPC  H14C 6385   5.125   3.328  11.123  2.4190  2.1429  1.4262
   73SLPC   C15 6386   4.841   3.488  11.190  0.5078 -0.4270 -0.2072
   73SLPC  H15A 6387   4.879   3.588  11.210  0.0818 -0.2097 -0.4669
   73SLPC  H15B 6388   4.742   3.491  11.147 -0.2838 -0.2734  1.5344
   73SLPC  H15C 6389   4.830   3.450  11.290  1.3379  0.1814  0.1316
   73SLPC   C12 6390   4.964   3.480  10.973  0.2736  0.3991  0.2271
   73SLPC  H12A 6391   5.013   3.404  10.914 -1.2833 -1.7979  1.6122
   73SLPC  H12B 6392   5.040   3.554  10.996  0.9057  0.2752 -1.3407
   73SLPC   C11 6393   4.860   3.552  10.885  0.3514  0.5129  0.3456
   73SLPC  H11A 6394   4.903   3.615  10.805 -2.3701  1.2336 -0.6486
   73SLPC  H11B 6395   4.797   3.622  10.945 -2.0769  0.4531 -1.9604
   73SLPC     P 6396   4.831   3.358  10.708 -0.3295  0.0796  0.2204
   73SLPC   O13 6397   4.928   3.265  10.769 -0.2055 -0.0512  0.2087
   73SLPC   O14 6398   4.715   3.299  10.632 -0.6871 -0.2474  0.2422
   73SLPC   O12 6399   4.782   3.456  10.821 -0.4185  1.1213  0.1040
   73SLPC   O11 6400   4.915   3.449  10.617  0.0797  0.2413 -0.0873
   73SLPC    C1 6401   4.852   3.546  10.535 -0.9132 -0.3573  0.0205
   73SLPC    HA 6402   4.755   3.587  10.571 -1.7463 -2.5305  0.4014
   73SLPC    HB 6403   4.928   3.624  10.512 -0.4208  0.0644  2.8025
   73SLPC    C2 6404   4.825   3.487  10.392 -0.0314  0.2767 -0.7294
   73SLPC    HS 6405   4.733   3.425  10.393 -0.4426  0.8777 -0.3473
   73SLPC   O21 6406   4.938   3.416  10.332  0.4261 -0.1454 -0.0667
   73SLPC   C21 6407   4.916   3.296  10.281  0.0337 -0.5790  0.5114
   73SLPC   O22 6408   4.819   3.226  10.306 -0.1717  0.1562 -0.1910
   73SLPC   C22 6409   5.033   3.255  10.182  0.1002 -0.1909 -0.3110
   73SLPC   H2R 6410   5.018   3.314  10.089  1.1241  0.7666  0.1071
   73SLPC   H2S 6411   5.120   3.304  10.232 -0.1067 -1.0304  0.9180
   73SLPC    C3 6412   4.790   3.589  10.284 -0.0648 -0.7701 -0.5088
   73SLPC    HX 6413   4.881   3.629  10.234 -0.5717  0.8762 -0.1992
   73SLPC    HY 6414   4.765   3.689  10.326  2.0604  0.0101 -0.9783
   73SLPC   O31 6415   4.705   3.541  10.181  0.5134 -0.2324 -0.1298
   73SLPC   C31 6416   4.576   3.556  10.213 -0.6338 -1.1957 -0.2492
   73SLPC   O32 6417   4.531   3.617  10.307 -0.5829  0.0223 -0.4538
   73SLPC   C32 6418   4.495   3.506  10.097 -0.1141  0.4200 -0.2801
   73SLPC   H2X 6419   4.503   3.395  10.092 -0.5569  0.3577  0.2588
   73SLPC   H2Y 6420   4.533   3.555  10.005  0.9780 -0.9509 -0.5967
   73SLPC   C23 6421   5.056   3.107  10.167 -0.2334  0.5071 -0.1014
   73SLPC   H3R 6422   4.987   3.049  10.102 -2.2409  2.3031  0.3165
   73SLPC   H3S 6423   5.061   3.058  10.267  0.3122 -2.2441 -1.3885
   73SLPC   C24 6424   5.192   3.072  10.114 -0.4873  0.8134  0.4709
   73SLPC   H4R 6425   5.216   2.963  10.125 -1.0158  0.3593 -2.1784
   73SLPC   H4S 6426   5.268   3.128  10.173  0.8962  0.2242 -0.6630
   73SLPC   C25 6427   5.198   3.111   9.962  0.1020 -0.0548  0.0279
   73SLPC   H5R 6428   5.166   3.218   9.955  2.1166  0.5154 -1.1539
   73SLPC   H5S 6429   5.129   3.046   9.904  1.7648 -2.8685  1.0511
   73SLPC   C26 6430   5.337   3.090   9.894 -0.6146 -0.2905  0.5213
   73SLPC   H6R 6431   5.361   2.984   9.918  1.2324  0.1789  0.9054
   73SLPC   H6S 6432   5.421   3.144   9.942  1.3278 -1.3867 -1.4987
   73SLPC   C27 6433   5.335   3.102   9.738  0.1220 -0.3656  0.5426
   73SLPC   H7R 6434   5.235   3.070   9.702 -0.6585  2.0365  0.4230
   73SLPC   H7S 6435   5.399   3.032   9.681  0.0970  0.6548 -0.8045
   73SLPC   C28 6436   5.368   3.243   9.671 -0.4572  0.0123  0.1625
   73SLPC   H8R 6437   5.296   3.313   9.718 -0.1433 -1.5983  3.2945
   73SLPC   H8S 6438   5.336   3.229   9.565 -1.1853 -0.4408  0.4322
   73SLPC   C29 6439   5.514   3.280   9.687  0.5715 -0.1301 -0.8002
   73SLPC   H9R 6440   5.541   3.300   9.792  0.2336 -0.3647 -0.6668
   73SLPC  C210 6441   5.611   3.296   9.593  1.0238 -0.1195 -0.2067
   73SLPC  H10R 6442   5.699   3.350   9.629 -0.1536  0.2129  2.4097
   73SLPC  C211 6443   5.605   3.284   9.438 -0.3533  0.8972  0.1194
   73SLPC  H11R 6444   5.501   3.309   9.409 -0.5722 -0.4026 -0.2275
   73SLPC  H11S 6445   5.614   3.180   9.401 -0.8259  0.1234  2.0428
   73SLPC  C212 6446   5.706   3.381   9.378 -0.2149  0.2099  1.0042
   73SLPC  H12R 6447   5.808   3.366   9.416  0.3400  2.0275  0.3007
   73SLPC  C213 6448   5.669   3.480   9.291 -0.1494 -0.1850  0.1826
   73SLPC  H13R 6449   5.741   3.548   9.243  0.4269 -1.4005 -0.7491
   73SLPC  C214 6450   5.528   3.503   9.242  0.4673 -0.1975  0.0296
   73SLPC  H14R 6451   5.518   3.609   9.211  2.8002 -0.0655 -0.4112
   73SLPC  H14S 6452   5.454   3.488   9.323  0.3893  1.6040  0.3258
   73SLPC  C215 6453   5.475   3.418   9.129  0.4987  0.3230 -0.3299
   73SLPC  H15R 6454   5.368   3.447   9.115  0.1134  1.5660  3.8179
   73SLPC  H15S 6455   5.468   3.310   9.152 -1.3018 -0.1202 -2.5607
   73SLPC  C216 6456   5.555   3.427   8.998  0.1972  0.0003 -0.2786
   73SLPC  H16R 6457   5.512   3.355   8.925 -0.8604  1.9941 -1.7199
   73SLPC  H16S 6458   5.662   3.400   9.015 -0.4314 -1.7016  1.2731
   73SLPC  C217 6459   5.546   3.569   8.941 -0.0347 -0.4084  0.2222
   73SLPC  H17R 6460   5.611   3.628   9.008  1.4557 -2.0109  0.2675
   73SLPC  H17S 6461   5.445   3.614   8.951  1.0892  2.2218  0.4416
   73SLPC  C218 6462   5.596   3.578   8.798  0.7796  1.1869 -0.0614
   73SLPC  H18R 6463   5.692   3.524   8.784 -1.0758 -3.1427  2.0181
   73SLPC  H18S 6464   5.600   3.687   8.776  0.6395  1.5976  1.7598
   73SLPC  H18T 6465   5.518   3.524   8.739  0.8433  0.5885  0.3922
   73SLPC   C33 6466   4.341   3.545  10.120  0.2605 -0.1021  0.5188
   73SLPC   H3X 6467   4.310   3.649  10.142 -1.0809 -0.0530 -1.3616
   73SLPC   H3Y 6468   4.300   3.479  10.199 -0.3658 -1.1981 -0.6893
   73SLPC   C34 6469   4.261   3.507   9.992  0.3058  0.6274 -0.1851
   73SLPC   H4X 6470   4.156   3.495  10.024 -0.1254 -1.1388 -2.0424
   73SLPC   H4Y 6471   4.300   3.415   9.942 -1.1440  1.3972 -2.9109
   73SLPC   C35 6472   4.266   3.618   9.883 -0.0231  0.1369 -0.4803
   73SLPC   H5X 6473   4.373   3.638   9.858  1.2387 -0.5935  3.5412
   73SLPC   H5Y 6474   4.229   3.712   9.930 -0.4091 -0.1050 -0.2963
   73SLPC   C36 6475   4.190   3.580   9.757  0.5156 -0.1781 -0.1025
   73SLPC   H6X 6476   4.081   3.587   9.775  1.0581  1.1002  3.6980
   73SLPC   H6Y 6477   4.211   3.477   9.720 -1.9282 -1.0297  0.6562
   73SLPC   C37 6478   4.223   3.672   9.641 -0.0062 -0.2636  1.1654
   73SLPC   H7X 6479   4.331   3.654   9.624  0.1938 -0.4669  2.4767
   73SLPC   H7Y 6480   4.207   3.780   9.663  0.3005  0.1080 -0.3577
   73SLPC   C38 6481   4.146   3.648   9.507 -0.0223  0.1783 -1.2301
   73SLPC   H8X 6482   4.039   3.676   9.515  0.3163  0.9740  1.5952
   73SLPC   H8Y 6483   4.157   3.540   9.483  1.9532  0.1833 -0.5432
   73SLPC   C39 6484   4.219   3.723   9.394 -0.2491 -0.1593  0.3367
   73SLPC   H9X 6485   4.328   3.700   9.389  0.1104  1.5622 -0.6173
   73SLPC   H9Y 6486   4.217   3.831   9.419 -1.7334  0.1786 -1.0941
   73SLPC  C310 6487   4.159   3.697   9.251  0.1357  0.3575 -0.6779
   73SLPC  H10X 6488   4.059   3.743   9.242 -0.6427 -1.6206 -3.6267
   73SLPC  H10Y 6489   4.137   3.589   9.234  2.1300 -0.0588 -0.9029
   73SLPC  C311 6490   4.256   3.744   9.139 -0.4987 -0.2686 -0.5292
   73SLPC  H11X 6491   4.358   3.700   9.139  0.3432  1.5877 -0.0965
   73SLPC  H11Y 6492   4.279   3.851   9.158  0.6616 -0.8479  1.6634
   73SLPC  C312 6493   4.193   3.716   8.999 -0.3502 -0.0505  0.5805
   73SLPC  H12X 6494   4.116   3.794   8.986 -0.0812  0.4336  1.7415
   73SLPC  H12Y 6495   4.143   3.618   9.010  0.0468 -0.3688 -0.3522
   73SLPC  C313 6496   4.284   3.735   8.869  0.4075 -0.4031  0.0317
   73SLPC  H13X 6497   4.345   3.643   8.865  0.1101 -0.6879  1.4530
   73SLPC  H13Y 6498   4.358   3.816   8.886 -0.6350  0.9108 -1.4085
   73SLPC  C314 6499   4.223   3.754   8.732  0.1741  0.2721  0.1444
   73SLPC  H14X 6500   4.158   3.664   8.727  0.2500  0.0651  2.0600
   73SLPC  H14Y 6501   4.298   3.730   8.654  1.4966  0.8075  1.2183
   73SLPC  C315 6502   4.147   3.885   8.716 -0.0227  0.5096  0.5294
   73SLPC  H15X 6503   4.223   3.960   8.749  2.3182 -1.0263 -1.0325
   73SLPC  H15Y 6504   4.064   3.890   8.789  0.7797  0.8069  1.4331
   73SLPC  C316 6505   4.108   3.924   8.570  0.2431 -0.7752  0.7603
   73SLPC  H16X 6506   4.019   3.866   8.538  1.3401 -2.0447 -0.0465
   73SLPC  H16Y 6507   4.196   3.903   8.506  1.2207 -0.2762  1.9041
   73SLPC  C317 6508   4.096   4.074   8.544  0.5199  0.5743 -0.0636
   73SLPC  H17X 6509   4.084   4.087   8.435 -0.1193 -1.1400 -0.2338
   73SLPC  H17Y 6510   4.195   4.120   8.563  0.4148  0.4270  0.9308
   73SLPC  C318 6511   3.988   4.142   8.625 -0.6830  0.2541  0.0517
   73SLPC  H18X 6512   3.983   4.251   8.601 -2.1584  0.5273  1.4553
   73SLPC  H18Y 6513   3.996   4.127   8.734 -0.0389 -0.2428 -0.0557
   73SLPC  H18Z 6514   3.884   4.107   8.606 -0.5740 -1.5241  2.3390
   74SLPC     N 6515   6.744   5.663  10.644 -0.0838  0.5879  0.1648
   74SLPC   C13 6516   6.637   5.757  10.672 -0.4472  0.2532 -0.3588
   74SLPC  H13A 6517   6.671   5.851  10.633 -2.0167  1.2031  0.4525
   74SLPC  H13B 6518   6.544   5.739  10.620 -1.6348 -0.5057  1.8569
   74SLPC  H13C 6519   6.617   5.768  10.778  0.8094  0.1653 -0.0978
   74SLPC   C14 6520   6.868   5.688  10.729 -0.4692 -0.5589 -0.9950
   74SLPC  H14A 6521   6.926   5.773  10.697 -0.2764 -0.1311  0.4510
   74SLPC  H14B 6522   6.848   5.694  10.835  1.0924 -2.5685 -0.5193
   74SLPC  H14C 6523   6.940   5.607  10.725  0.4358  0.1928 -0.1625
   74SLPC   C15 6524   6.775   5.678  10.502 -0.1943 -0.0883  1.1236
   74SLPC  H15A 6525   6.693   5.648  10.440  1.8375 -0.2200 -1.6842
   74SLPC  H15B 6526   6.803   5.779  10.476 -0.3593 -0.4016 -0.3481
   74SLPC  H15C 6527   6.851   5.612  10.463 -0.5488  0.7872 -1.1369
   74SLPC   C12 6528   6.693   5.519  10.676  0.5275  0.3242  0.1204
   74SLPC  H12A 6529   6.616   5.484  10.608  0.9237  1.5901 -1.0414
   74SLPC  H12B 6530   6.649   5.527  10.774  1.0233  1.8908  0.2374
   74SLPC   C11 6531   6.800   5.410  10.655 -0.4910  0.4350 -0.2840
   74SLPC  H11A 6532   6.850   5.415  10.754 -0.9721 -1.1617  0.0626
   74SLPC  H11B 6533   6.868   5.435  10.571  1.2515  0.5695  1.1122
   74SLPC     P 6534   6.768   5.182  10.515 -0.4277  0.4008  0.1284
   74SLPC   O13 6535   6.915   5.187  10.496 -0.7087 -0.3826  0.2496
   74SLPC   O14 6536   6.705   5.051  10.548 -0.0813 -0.6702 -0.4605
   74SLPC   O12 6537   6.732   5.280  10.635  0.2440  0.5779  0.2818
   74SLPC   O11 6538   6.708   5.237  10.382 -0.1837  0.0107  0.3255
   74SLPC    C1 6539   6.632   5.154  10.290 -0.6414  0.5775 -0.1100
   74SLPC    HA 6540   6.595   5.060  10.336  2.5502  0.1338  1.8127
   74SLPC    HB 6541   6.541   5.215  10.268 -0.1672  2.3624  2.3543
   74SLPC    C2 6542   6.690   5.133  10.152  0.1297  0.4585  0.2236
   74SLPC    HS 6543   6.723   5.027  10.144 -2.4933 -0.5331  1.3415
   74SLPC   O21 6544   6.790   5.234  10.122 -0.2976 -0.0756 -0.2102
   74SLPC   C21 6545   6.913   5.187  10.086  0.6542  0.4825 -0.5862
   74SLPC   O22 6546   6.944   5.069  10.075  0.4878 -0.5288 -0.7584
   74SLPC   C22 6547   7.007   5.306  10.071  0.1661 -1.2736  0.0187
   74SLPC   H2R 6548   6.976   5.359   9.978  0.5930 -3.2226 -1.2999
   74SLPC   H2S 6549   6.984   5.375  10.155 -4.1921 -1.0845 -1.0536
   74SLPC    C3 6550   6.587   5.139  10.038  0.6195 -0.3858 -1.2143
   74SLPC    HX 6551   6.542   5.238  10.064 -1.8217 -1.8259  0.5133
   74SLPC    HY 6552   6.507   5.063  10.055 -1.6328  2.4121  1.9403
   74SLPC   O31 6553   6.649   5.129   9.907  0.1826 -0.1967 -0.2151
   74SLPC   C31 6554   6.671   5.004   9.859 -0.2720 -0.5774 -0.3651
   74SLPC   O32 6555   6.664   4.894   9.921  0.2749 -0.8485  0.0001
   74SLPC   C32 6556   6.719   5.017   9.714 -0.0610 -0.5368  0.2152
   74SLPC   H2X 6557   6.646   4.973   9.643 -0.8920 -0.0266  0.7349
   74SLPC   H2Y 6558   6.823   4.979   9.709  0.8267  1.8923 -1.7052
   74SLPC   C23 6559   7.155   5.278  10.073 -0.3998  0.4413 -0.6331
   74SLPC   H3R 6560   7.177   5.209  10.158 -1.1958 -0.0107 -0.7785
   74SLPC   H3S 6561   7.221   5.366  10.085  1.7348 -0.8092 -2.4646
   74SLPC   C24 6562   7.208   5.195   9.951 -0.3473 -0.8988  0.1738
   74SLPC   H4R 6563   7.139   5.113   9.922 -2.2404  0.2917  1.1261
   74SLPC   H4S 6564   7.305   5.148   9.978 -0.3334 -1.4857 -0.8455
   74SLPC   C25 6565   7.217   5.280   9.828  0.0906  0.1607  0.0823
   74SLPC   H5R 6566   7.276   5.372   9.848  1.1849 -0.3221 -0.8085
   74SLPC   H5S 6567   7.116   5.326   9.821  0.5916  1.7987  2.4155
   74SLPC   C26 6568   7.257   5.217   9.700  0.3729  0.2581  0.4529
   74SLPC   H6R 6569   7.167   5.162   9.665 -0.2765 -0.2246  2.7320
   74SLPC   H6S 6570   7.342   5.146   9.717 -0.6511 -0.8675  1.0286
   74SLPC   C27 6571   7.283   5.327   9.595 -0.6299  0.5729  0.2046
   74SLPC   H7R 6572   7.380   5.373   9.625 -0.7417  0.3755  0.8855
   74SLPC   H7S 6573   7.204   5.405   9.589 -1.3115 -0.2136 -2.2332
   74SLPC   C28 6574   7.298   5.268   9.457  0.5860 -0.6878  0.1932
   74SLPC   H8R 6575   7.369   5.183   9.460  2.1510  0.5992  1.5977
   74SLPC   H8S 6576   7.348   5.356   9.412 -1.3466 -0.2438 -1.2156
   74SLPC   C29 6577   7.166   5.244   9.391  0.1552 -0.4484 -0.5359
   74SLPC   H9R 6578   7.090   5.194   9.454  0.6559  1.7608  2.0217
   74SLPC  C210 6579   7.134   5.296   9.272  0.3879  0.6184  0.0125
   74SLPC  H10R 6580   7.033   5.268   9.236  0.5951 -1.0249  0.6044
   74SLPC  C211 6581   7.219   5.379   9.183 -0.2052  0.6551 -0.2261
   74SLPC  H11R 6582   7.270   5.452   9.250 -3.1725  1.5466  1.2415
   74SLPC  H11S 6583   7.159   5.444   9.115  0.1046  0.7738 -0.3883
   74SLPC  C212 6584   7.330   5.318   9.100  0.2315  0.0444 -0.3217
   74SLPC  H12R 6585   7.402   5.256   9.156  1.6487  0.3339 -1.7373
   74SLPC  C213 6586   7.344   5.341   8.959  0.1492 -0.1022  0.4193
   74SLPC  H13R 6587   7.427   5.297   8.902 -0.1795 -0.6611  0.3621
   74SLPC  C214 6588   7.264   5.432   8.868 -0.0911 -0.0416  0.1928
   74SLPC  H14R 6589   7.310   5.534   8.870 -0.4382  0.1107  1.6778
   74SLPC  H14S 6590   7.163   5.438   8.913  0.5788 -1.0454  1.9325
   74SLPC  C215 6591   7.246   5.395   8.718 -1.0774 -0.7717 -0.6850
   74SLPC  H15R 6592   7.185   5.304   8.704 -0.5560 -1.0705 -1.0494
   74SLPC  H15S 6593   7.346   5.369   8.678  0.0445 -1.6508  2.4305
   74SLPC  C216 6594   7.174   5.508   8.648 -0.0949 -0.7359 -0.4684
   74SLPC  H16R 6595   7.119   5.578   8.714  0.4158 -1.2544  0.5257
   74SLPC  H16S 6596   7.095   5.461   8.585  0.2806  0.5140 -1.9222
   74SLPC  C217 6597   7.263   5.595   8.556 -0.1849  0.1825 -0.2577
   74SLPC  H17R 6598   7.337   5.531   8.502 -0.1245  0.7226 -0.8310
   74SLPC  H17S 6599   7.322   5.662   8.622 -0.1697  0.7027 -0.7842
   74SLPC  C218 6600   7.193   5.675   8.448 -0.3196  0.0608  0.1076
   74SLPC  H18R 6601   7.143   5.596   8.387  0.7972  0.8379 -1.9119
   74SLPC  H18S 6602   7.264   5.741   8.393 -0.0986  0.4379  0.8415
   74SLPC  H18T 6603   7.116   5.743   8.491  1.6127  2.7456 -0.4200
   74SLPC   C33 6604   6.744   5.159   9.670 -0.1537  0.4347 -0.0638
   74SLPC   H3X 6605   6.806   5.216   9.744 -2.3760  1.1950  1.3229
   74SLPC   H3Y 6606   6.645   5.210   9.672 -1.0770 -1.3113  1.0887
   74SLPC   C34 6607   6.809   5.166   9.534  0.0609 -0.4931 -0.0934
   74SLPC   H4X 6608   6.900   5.103   9.536 -0.4265 -1.2389 -0.8626
   74SLPC   H4Y 6609   6.849   5.269   9.519  0.9214 -0.8452 -0.2711
   74SLPC   C35 6610   6.713   5.146   9.418  0.0103 -0.4350  0.7356
   74SLPC   H5X 6611   6.615   5.197   9.431  0.3774  0.4125  0.2838
   74SLPC   H5Y 6612   6.693   5.037   9.424 -1.7901 -0.0945  1.6485
   74SLPC   C36 6613   6.778   5.178   9.281  0.0599  0.1749  0.3435
   74SLPC   H6X 6614   6.866   5.111   9.275 -0.9177 -1.2182  1.0130
   74SLPC   H6Y 6615   6.812   5.283   9.299 -0.5820  0.5285 -0.4616
   74SLPC   C37 6616   6.681   5.148   9.171 -0.2361  0.3691  0.7245
   74SLPC   H7X 6617   6.596   5.214   9.195  0.0309  0.4568  1.4667
   74SLPC   H7Y 6618   6.645   5.043   9.178  0.0802 -0.1090 -3.0612
   74SLPC   C38 6619   6.739   5.182   9.032 -0.2981 -0.4931  0.1737
   74SLPC   H8X 6620   6.825   5.113   9.015  0.4837  1.2345 -4.2206
   74SLPC   H8Y 6621   6.758   5.291   9.025  0.5178 -0.7521 -3.8149
   74SLPC   C39 6622   6.636   5.148   8.922  0.7309  0.5684 -0.0704
   74SLPC   H9X 6623   6.548   5.215   8.933  0.3195 -0.0759  0.6477
   74SLPC   H9Y 6624   6.616   5.041   8.944  0.3592  1.1195  2.6239
   74SLPC  C310 6625   6.684   5.174   8.781  0.0615  0.0419 -0.2533
   74SLPC  H10X 6626   6.608   5.133   8.710  1.1452 -2.7925  0.0941
   74SLPC  H10Y 6627   6.774   5.115   8.755  0.1005  0.8885 -2.1994
   74SLPC  C311 6628   6.710   5.319   8.744 -0.3341  0.5014 -0.0717
   74SLPC  H11X 6629   6.774   5.365   8.823  1.8846  1.3533 -2.2321
   74SLPC  H11Y 6630   6.612   5.370   8.753 -1.7781 -2.0671 -0.4479
   74SLPC  C312 6631   6.770   5.337   8.601 -0.4980  0.5514  0.0513
   74SLPC  H12X 6632   6.860   5.273   8.596 -0.5839  0.3514  1.0302
   74SLPC  H12Y 6633   6.793   5.444   8.580 -1.3166  0.5232 -1.0841
   74SLPC  C313 6634   6.689   5.280   8.487  0.1382  0.0681  0.7803
   74SLPC  H13X 6635   6.677   5.170   8.500  1.3785 -0.5338 -2.2155
   74SLPC  H13Y 6636   6.748   5.282   8.393 -0.8903 -2.5099 -0.0155
   74SLPC  C314 6637   6.551   5.333   8.473 -0.4333 -0.8195  0.5765
   74SLPC  H14X 6638   6.551   5.444   8.464  0.5541 -0.9014 -0.7526
   74SLPC  H14Y 6639   6.499   5.316   8.570  0.2418 -1.3338  0.8530
   74SLPC  C315 6640   6.468   5.294   8.346  0.2164  0.7292 -0.0803
   74SLPC  H15X 6641   6.487   5.186   8.327  1.7682  0.5530  2.1358
   74SLPC  H15Y 6642   6.501   5.352   8.257  1.1625 -0.8558 -0.8030
   74SLPC  C316 6643   6.316   5.317   8.360  0.5951 -0.3190 -0.6231
   74SLPC  H16X 6644   6.266   5.309   8.261  0.9195 -2.1302 -0.6636
   74SLPC  H16Y 6645   6.290   5.419   8.394 -1.3105 -1.2130  0.7293
   74SLPC  C317 6646   6.250   5.225   8.463 -0.1054  0.3164  0.3415
   74SLPC  H17X 6647   6.320   5.178   8.535  0.8644 -2.0683 -1.9743
   74SLPC  H17Y 6648   6.200   5.143   8.408 -2.5544  1.8970  0.0882
   74SLPC  C318 6649   6.140   5.291   8.543  0.7528  0.5893 -0.2978
   74SLPC  H18X 6650   6.069   5.335   8.471 -0.8194 -0.8937  0.2759
   74SLPC  H18Y 6651   6.178   5.360   8.622  0.1960 -0.6772  1.1417
   74SLPC  H18Z 6652   6.086   5.212   8.599  2.4861  0.3698  1.1928
   75SLPC     N 6653   1.480   1.622   6.420 -0.3123 -0.4801  0.3367
   75SLPC   C13 6654   1.413   1.494   6.471 -0.2970  0.4180  0.1056
   75SLPC  H13A 6655   1.387   1.507   6.575 -1.0929 -0.8121  0.0821
   75SLPC  H13B 6656   1.319   1.484   6.419 -0.8873 -0.4077  1.2903
   75SLPC  H13C 6657   1.481   1.410   6.463  1.4344  1.6864  0.7540
   75SLPC   C14 6658   1.529   1.599   6.283 -0.2902 -0.1360  0.7543
   75SLPC  H14A 6659   1.585   1.511   6.257  0.7387  0.5568  0.5381
   75SLPC  H14B 6660   1.446   1.600   6.214 -0.3976  1.0036  0.8812
   75SLPC  H14C 6661   1.597   1.676   6.250  0.7872 -1.0821  0.7115
   75SLPC   C15 6662   1.600   1.647   6.506  0.5193  0.2888 -1.0288
   75SLPC  H15A 6663   1.639   1.746   6.485 -1.6276  2.0734  2.4545
   75SLPC  H15B 6664   1.567   1.648   6.609 -0.7129  0.6957 -1.3992
   75SLPC  H15C 6665   1.676   1.571   6.493 -0.6006 -0.8752 -1.0155
   75SLPC   C12 6666   1.395   1.741   6.413  0.5764 -0.0229  0.1361
   75SLPC  H12A 6667   1.339   1.750   6.504 -0.6799 -0.0500 -0.6100
   75SLPC  H12B 6668   1.318   1.711   6.343 -1.1971  3.9770  0.1181
   75SLPC   C11 6669   1.457   1.871   6.374 -0.1452  0.1803 -0.9561
   75SLPC  H11A 6670   1.383   1.927   6.314  1.2470  1.9241 -1.1072
   75SLPC  H11B 6671   1.537   1.853   6.299 -0.5727  1.5544 -1.7691
   75SLPC     P 6672   1.434   2.010   6.587 -0.1626  0.1875  0.0013
   75SLPC   O13 6673   1.435   2.153   6.545  0.2103  0.0852  0.2935
   75SLPC   O14 6674   1.305   1.939   6.606 -0.0442 -0.0680  0.5431
   75SLPC   O12 6675   1.528   1.936   6.485  0.2872 -0.5610 -0.2647
   75SLPC   O11 6676   1.525   2.003   6.710  0.0288  0.2097 -0.2841
   75SLPC    C1 6677   1.661   2.056   6.715  0.3598 -1.1575  0.3635
   75SLPC    HA 6678   1.729   2.001   6.646 -0.9895 -1.8618 -0.4560
   75SLPC    HB 6679   1.667   2.165   6.692 -1.8369 -0.7328  1.4767
   75SLPC    C2 6680   1.719   2.032   6.859  0.6809 -0.3378 -0.1175
   75SLPC    HS 6681   1.818   2.081   6.858  0.5802 -0.1309 -1.5899
   75SLPC   O21 6682   1.728   1.890   6.882 -0.2953  0.2207 -0.3756
   75SLPC   C21 6683   1.838   1.836   6.829  0.1363 -0.2067  0.8388
   75SLPC   O22 6684   1.930   1.893   6.774  0.4906 -0.4684 -0.1302
   75SLPC   C22 6685   1.846   1.685   6.874 -0.5441  0.1576 -0.1114
   75SLPC   H2R 6686   1.761   1.631   6.828  1.3853 -3.3438  0.0447
   75SLPC   H2S 6687   1.937   1.637   6.832  0.0153  1.0567  0.0501
   75SLPC    C3 6688   1.627   2.107   6.958 -0.3254 -0.4715 -0.7108
   75SLPC    HX 6689   1.526   2.063   6.943 -0.6352 -0.1298  0.2886
   75SLPC    HY 6690   1.615   2.211   6.922  2.1522  1.2328  2.7656
   75SLPC   O31 6691   1.680   2.089   7.092  0.0927 -0.1108  0.0824
   75SLPC   C31 6692   1.738   2.187   7.146  0.2415 -0.3036 -0.4130
   75SLPC   O32 6693   1.761   2.301   7.102  0.6130 -0.5751  0.1695
   75SLPC   C32 6694   1.791   2.153   7.284  0.2389  0.2535  0.0937
   75SLPC   H2X 6695   1.902   2.152   7.279  0.4486  0.9199  3.0930
   75SLPC   H2Y 6696   1.766   2.048   7.308  0.3780 -0.5922 -3.0662
   75SLPC   C23 6697   1.837   1.668   7.027 -0.8672  0.1265 -1.0138
   75SLPC   H3R 6698   1.864   1.568   7.068  1.9627  1.4591  0.7520
   75SLPC   H3S 6699   1.733   1.702   7.048  0.0026  1.3359  1.9188
   75SLPC   C24 6700   1.948   1.747   7.101  0.5149 -0.0173  0.1821
   75SLPC   H4R 6701   1.906   1.848   7.087 -1.1173 -0.9089 -1.8196
   75SLPC   H4S 6702   2.048   1.733   7.054  1.7295  0.8108  2.3677
   75SLPC   C25 6703   1.960   1.715   7.248 -0.2407 -0.2801 -0.1047
   75SLPC   H5R 6704   2.064   1.739   7.280 -0.0310 -2.5325  1.1951
   75SLPC   H5S 6705   1.961   1.607   7.275 -0.3868  0.0672  1.4278
   75SLPC   C26 6706   1.859   1.785   7.333 -0.2592 -0.3155 -0.9677
   75SLPC   H6R 6707   1.755   1.761   7.301 -0.5235 -3.9488  1.9729
   75SLPC   H6S 6708   1.879   1.895   7.328 -1.2006  0.0471  1.5764
   75SLPC   C27 6709   1.877   1.762   7.483  0.3857  0.1288  0.0072
   75SLPC   H7R 6710   1.881   1.655   7.513  1.2172  0.3839  0.8638
   75SLPC   H7S 6711   1.797   1.819   7.535 -0.9889 -0.0372 -1.8447
   75SLPC   C28 6712   2.014   1.819   7.536  0.4341  0.0334  0.6296
   75SLPC   H8R 6713   1.977   1.883   7.620 -1.2637 -0.7490  0.5188
   75SLPC   H8S 6714   2.057   1.891   7.464  1.3964 -1.3062 -0.1866
   75SLPC   C29 6715   2.110   1.706   7.559  0.5730 -0.2960  0.4936
   75SLPC   H9R 6716   2.144   1.667   7.462  1.1214 -1.5070  1.1338
   75SLPC  C210 6717   2.153   1.656   7.675 -0.3324  1.1803 -0.1242
   75SLPC  H10R 6718   2.232   1.580   7.666 -0.2925  1.2732 -0.5858
   75SLPC  C211 6719   2.115   1.707   7.813  0.0742  0.1398 -0.7466
   75SLPC  H11R 6720   2.041   1.635   7.854  2.4768 -1.3907  1.2061
   75SLPC  H11S 6721   2.067   1.807   7.809 -1.9188 -0.7777 -1.4007
   75SLPC  C212 6722   2.242   1.719   7.903  0.5586 -0.2195  0.4012
   75SLPC  H12R 6723   2.295   1.623   7.917  0.4460 -0.1067  1.6544
   75SLPC  C213 6724   2.306   1.829   7.931 -0.0633  0.6715 -1.0919
   75SLPC  H13R 6725   2.406   1.827   7.979  0.1211 -0.9508 -1.4794
   75SLPC  C214 6726   2.275   1.971   7.893 -0.4859 -0.1992  0.4619
   75SLPC  H14R 6727   2.327   2.037   7.966 -0.1511 -0.2881  0.3078
   75SLPC  H14S 6728   2.166   1.993   7.900 -0.5254 -0.3970  0.4507
   75SLPC  C215 6729   2.318   1.995   7.743  0.1002  0.1892 -0.5192
   75SLPC  H15R 6730   2.288   2.100   7.719 -0.8359  0.6109  2.1371
   75SLPC  H15S 6731   2.260   1.925   7.680  2.5652  0.2660 -3.0761
   75SLPC  C216 6732   2.473   1.968   7.711  0.6906 -0.1875 -0.7621
   75SLPC  H16R 6733   2.502   1.874   7.763  1.4407 -1.2344 -2.9731
   75SLPC  H16S 6734   2.535   2.051   7.751  1.9814 -1.5946  0.2285
   75SLPC  C217 6735   2.510   1.946   7.567 -0.1136 -0.1403  0.3180
   75SLPC  H17R 6736   2.469   1.852   7.523  0.9032 -0.3055 -0.2912
   75SLPC  H17S 6737   2.619   1.942   7.545 -0.2108 -1.6981  0.0342
   75SLPC  C218 6738   2.457   2.064   7.491 -0.1409  0.7412  0.3552
   75SLPC  H18R 6739   2.492   2.161   7.533 -1.9274  1.4105  0.3847
   75SLPC  H18S 6740   2.346   2.061   7.484 -0.3511 -0.6980  2.8893
   75SLPC  H18T 6741   2.495   2.064   7.387  3.7756 -1.5634  1.5979
   75SLPC   C33 6742   1.752   2.253   7.393  0.0670 -0.0137  0.2293
   75SLPC   H3X 6743   1.769   2.360   7.367  0.0769 -0.2544 -0.7981
   75SLPC   H3Y 6744   1.647   2.250   7.430  0.4559  0.3470  1.4039
   75SLPC   C34 6745   1.849   2.245   7.503  0.0542 -0.5250 -0.6992
   75SLPC   H4X 6746   1.842   2.342   7.557 -0.3059 -0.8799 -0.1107
   75SLPC   H4Y 6747   1.951   2.233   7.461  1.2555 -2.9665  2.5686
   75SLPC   C35 6748   1.823   2.137   7.606  0.6636  0.6275 -0.0659
   75SLPC   H5X 6749   1.919   2.093   7.640  0.7778 -0.1251 -1.2991
   75SLPC   H5Y 6750   1.765   2.058   7.554  1.2385 -0.0556  0.3050
   75SLPC   C36 6751   1.739   2.178   7.728 -0.2566  0.6205 -0.0236
   75SLPC   H6X 6752   1.669   2.260   7.700  2.9467  2.8808 -2.0044
   75SLPC   H6Y 6753   1.810   2.224   7.800 -0.7412  1.0935  0.1620
   75SLPC   C37 6754   1.655   2.057   7.779  0.1559 -1.7645  0.1172
   75SLPC   H7X 6755   1.595   2.020   7.693 -0.0828  0.4884 -0.7484
   75SLPC   H7Y 6756   1.583   2.108   7.847  1.0823  0.4781 -0.4784
   75SLPC   C38 6757   1.721   1.925   7.829  0.5795 -0.2521  0.6472
   75SLPC   H8X 6758   1.784   1.872   7.753  2.2071 -1.5244  2.7789
   75SLPC   H8Y 6759   1.640   1.857   7.862 -0.9787  0.7560 -0.9318
   75SLPC   C39 6760   1.801   1.965   7.954  0.0302  0.4664 -0.1005
   75SLPC   H9X 6761   1.740   2.031   8.019 -0.0726  0.1644  0.1081
   75SLPC   H9Y 6762   1.892   2.027   7.937 -0.0279  0.9601  1.2331
   75SLPC  C310 6763   1.827   1.846   8.051 -0.6772  0.5855 -0.3026
   75SLPC  H10X 6764   1.843   1.754   7.990  0.8419  2.0515 -2.2713
   75SLPC  H10Y 6765   1.742   1.824   8.119 -0.0470 -4.1413 -0.7037
   75SLPC  C311 6766   1.960   1.861   8.125 -0.0015 -0.7285  0.1244
   75SLPC  H11X 6767   1.938   1.955   8.180 -0.4566 -0.5474 -0.3604
   75SLPC  H11Y 6768   2.042   1.887   8.056 -0.9624  0.6980 -0.5353
   75SLPC  C312 6769   1.999   1.740   8.214  0.5271 -0.3036 -0.2593
   75SLPC  H12X 6770   2.014   1.655   8.144  1.3454 -0.4906  0.1409
   75SLPC  H12Y 6771   1.911   1.711   8.276 -0.2085 -0.4125 -1.3141
   75SLPC  C313 6772   2.111   1.758   8.303 -0.2789  0.1050  0.5331
   75SLPC  H13X 6773   2.093   1.841   8.374  0.2890  0.1999  0.5700
   75SLPC  H13Y 6774   2.197   1.791   8.241 -0.8879 -1.0021 -0.9915
   75SLPC  C314 6775   2.154   1.631   8.386 -0.3483  0.6910  0.4566
   75SLPC  H14X 6776   2.240   1.677   8.438  0.1118  2.5497 -1.7638
   75SLPC  H14Y 6777   2.187   1.545   8.323 -1.4360 -0.2371  1.1075
   75SLPC  C315 6778   2.056   1.569   8.487 -1.0688  0.0848  0.6598
   75SLPC  H15X 6779   1.996   1.654   8.527 -2.0763 -0.9580  1.4216
   75SLPC  H15Y 6780   2.113   1.526   8.572 -0.5021  0.9848  0.7518
   75SLPC  C316 6781   1.972   1.459   8.423  0.3519 -0.4800 -0.9598
   75SLPC  H16X 6782   2.042   1.380   8.390  0.7619 -0.2630 -0.6133
   75SLPC  H16Y 6783   1.920   1.492   8.330 -0.5261 -2.4225 -1.1933
   75SLPC  C317 6784   1.861   1.405   8.520 -0.4571  0.0223  0.4808
   75SLPC  H17X 6785   1.918   1.375   8.611  1.3494  2.2419  0.1742
   75SLPC  H17Y 6786   1.811   1.327   8.460 -1.5425 -0.3357  1.7943
   75SLPC  C318 6787   1.754   1.509   8.554  0.0896  0.0599  0.2567
   75SLPC  H18X 6788   1.796   1.594   8.612 -2.2116  0.1505  1.9031
   75SLPC  H18Y 6789   1.681   1.464   8.624 -0.0314 -0.4862 -0.2101
   75SLPC  H18Z 6790   1.695   1.547   8.469  0.5774  1.8295  0.6733
   76SLPC     N 6791   3.805   0.537   6.238 -0.1177  0.3449  0.0182
   76SLPC   C13 6792   3.809   0.628   6.120 -0.1148  0.1697 -0.1022
   76SLPC  H13A 6793   3.815   0.567   6.031  0.1962  1.9791 -1.3803
   76SLPC  H13B 6794   3.716   0.679   6.098  0.3859 -0.0135 -3.0586
   76SLPC  H13C 6795   3.888   0.701   6.122  1.1025 -1.1199  1.0259
   76SLPC   C14 6796   3.690   0.448   6.214 -0.0811 -0.2688 -0.3444
   76SLPC  H14A 6797   3.671   0.376   6.292 -2.1442 -1.4135 -1.8012
   76SLPC  H14B 6798   3.604   0.512   6.203  0.4051  0.3916 -0.3882
   76SLPC  H14C 6799   3.701   0.393   6.123 -0.2177 -2.3644  0.8477
   76SLPC   C15 6800   3.780   0.613   6.366  0.2875  0.5000 -0.0413
   76SLPC  H15A 6801   3.846   0.693   6.396  0.1495  0.9724 -0.9900
   76SLPC  H15B 6802   3.683   0.660   6.358 -0.2584 -0.5559  0.1812
   76SLPC  H15C 6803   3.765   0.540   6.445 -1.1795 -0.5071 -1.2145
   76SLPC   C12 6804   3.929   0.455   6.242 -0.0243 -0.2602  0.4047
   76SLPC  H12A 6805   3.913   0.362   6.295  0.0983  1.0383  2.8761
   76SLPC  H12B 6806   4.004   0.512   6.295 -0.1619  0.7672 -0.4753
   76SLPC   C11 6807   4.006   0.433   6.116 -0.7993 -0.3000  0.6378
   76SLPC  H11A 6808   3.935   0.392   6.041  1.4102 -0.1368 -1.6627
   76SLPC  H11B 6809   4.079   0.350   6.127  1.5849  1.7626  1.2023
   76SLPC     P 6810   4.196   0.600   6.152  0.0289  0.0923  0.2949
   76SLPC   O13 6811   4.271   0.488   6.214 -0.2708  0.2255 -0.6389
   76SLPC   O14 6812   4.281   0.693   6.073  0.0072  0.2968  0.0990
   76SLPC   O12 6813   4.080   0.542   6.054 -0.1400  0.3130  0.4298
   76SLPC   O11 6814   4.118   0.683   6.258 -0.1011  0.3920  0.0122
   76SLPC    C1 6815   4.195   0.780   6.332 -0.3814 -0.4963  0.1499
   76SLPC    HA 6816   4.291   0.813   6.287  0.2648 -1.1340  1.0298
   76SLPC    HB 6817   4.133   0.872   6.323 -0.0030 -0.4216 -2.8987
   76SLPC    C2 6818   4.225   0.730   6.477 -0.3134 -0.1364  0.1888
   76SLPC    HS 6819   4.286   0.642   6.447 -0.3416 -0.2819  0.5563
   76SLPC   O21 6820   4.093   0.695   6.525  0.1152 -0.1918 -0.3987
   76SLPC   C21 6821   4.093   0.578   6.593  0.5388 -0.0723 -0.0820
   76SLPC   O22 6822   4.183   0.504   6.600 -0.2630  0.3397 -0.5753
   76SLPC   C22 6823   3.970   0.579   6.679  0.3433 -0.0448 -0.2184
   76SLPC   H2R 6824   3.981   0.635   6.774 -1.1008 -0.8449  0.4513
   76SLPC   H2S 6825   3.902   0.647   6.623  1.2244  1.2162  0.1882
   76SLPC    C3 6826   4.297   0.833   6.574 -0.1742 -0.4391  0.3910
   76SLPC    HX 6827   4.235   0.925   6.567  0.6980  0.2841  1.8531
   76SLPC    HY 6828   4.395   0.866   6.533 -0.8278  1.3679  0.2045
   76SLPC   O31 6829   4.302   0.788   6.708 -0.0524 -0.1779 -0.6488
   76SLPC   C31 6830   4.381   0.685   6.735  0.4212 -0.3783  0.6633
   76SLPC   O32 6831   4.454   0.631   6.654  0.0805 -0.0395  0.1491
   76SLPC   C32 6832   4.367   0.641   6.880  0.1667 -0.5859  0.4970
   76SLPC   H2X 6833   4.286   0.569   6.903 -0.6979  0.9540  2.6126
   76SLPC   H2Y 6834   4.364   0.738   6.934 -1.0945 -0.1105 -0.3797
   76SLPC   C23 6835   3.905   0.437   6.709 -0.4760 -0.9799 -0.3730
   76SLPC   H3R 6836   3.905   0.384   6.612  0.7091  0.8625 -1.4418
   76SLPC   H3S 6837   3.797   0.450   6.734  0.1810  2.6367  1.3429
   76SLPC   C24 6838   3.976   0.357   6.817  0.0048 -0.3672  0.0909
   76SLPC   H4R 6839   4.054   0.301   6.762 -2.4723 -3.9530 -0.1044
   76SLPC   H4S 6840   3.906   0.276   6.848 -0.7025  0.9684  2.2285
   76SLPC   C25 6841   4.026   0.432   6.938 -0.1699 -0.3477 -0.0887
   76SLPC   H5R 6842   3.944   0.486   6.991  0.9520 -0.4688  1.8745
   76SLPC   H5S 6843   4.103   0.502   6.899 -2.4133  0.3041 -3.9316
   76SLPC   C26 6844   4.070   0.328   7.050  0.4994 -0.0912  0.1690
   76SLPC   H6R 6845   3.997   0.245   7.048  0.5956 -0.2026  1.0473
   76SLPC   H6S 6846   4.068   0.381   7.148  1.3113  0.5738 -0.1585
   76SLPC   C27 6847   4.211   0.269   7.034  0.1287  0.3745 -0.3560
   76SLPC   H7R 6848   4.284   0.340   7.077 -0.2165 -0.6754  2.1543
   76SLPC   H7S 6849   4.222   0.252   6.924  5.0040 -1.0122  0.1077
   76SLPC   C28 6850   4.231   0.125   7.100  0.2424  0.0056  0.9249
   76SLPC   H8R 6851   4.194   0.130   7.205 -0.8223  0.7650  0.5377
   76SLPC   H8S 6852   4.170   0.052   7.044  0.3819  0.3299  0.3490
   76SLPC   C29 6853   4.370   0.087   7.091  0.2567 -0.5362  0.1619
   76SLPC   H9R 6854   4.400   0.042   6.995  0.2050 -1.3473  0.5227
   76SLPC  C210 6855   4.460   0.099   7.185 -0.1125  0.7220  0.4542
   76SLPC  H10R 6856   4.562   0.058   7.177 -0.9938 -1.9008  1.4748
   76SLPC  C211 6857   4.432   0.154   7.323  0.1591  0.4083  0.1038
   76SLPC  H11R 6858   4.350   0.086   7.357 -0.6351  1.6473  0.7608
   76SLPC  H11S 6859   4.378   0.251   7.312 -3.2970 -1.2374  0.9548
   76SLPC  C212 6860   4.547   0.152   7.419  0.6598 -0.1362 -0.2148
   76SLPC  H12R 6861   4.639   0.180   7.367 -1.1487  0.9207 -3.0522
   76SLPC  C213 6862   4.549   0.119   7.556  0.1250  0.8001  0.4526
   76SLPC  H13R 6863   4.646   0.119   7.608  1.8424 -4.4027 -2.1344
   76SLPC  C214 6864   4.428   0.072   7.631 -1.3052 -0.2056 -0.1409
   76SLPC  H14R 6865   4.343   0.055   7.562 -0.0085 -1.0346 -1.5901
   76SLPC  H14S 6866   4.399   0.142   7.713 -3.0250 -2.0504  0.9324
   76SLPC  C215 6867   4.473  -0.049   7.716  0.7561  0.2577  0.1885
   76SLPC  H15R 6868   4.540  -0.116   7.658  2.8902  0.4737  2.2545
   76SLPC  H15S 6869   4.386  -0.114   7.739 -1.2881  2.6349 -0.3931
   76SLPC  C216 6870   4.537  -0.015   7.855  0.0532  0.2561 -0.4754
   76SLPC  H16R 6871   4.474   0.071   7.884 -0.7178  0.1691 -1.8082
   76SLPC  H16S 6872   4.643   0.012   7.833  0.5065 -0.5556  0.6303
   76SLPC  C217 6873   4.533  -0.118   7.971  0.2344 -0.7621  0.0205
   76SLPC  H17R 6874   4.576  -0.213   7.932 -1.2607 -0.7967 -1.6441
   76SLPC  H17S 6875   4.428  -0.136   8.002  0.6314 -2.5410  0.4354
   76SLPC  C218 6876   4.611  -0.072   8.092  0.1588  0.7241 -0.2947
   76SLPC  H18R 6877   4.596  -0.145   8.175  0.3198 -0.1830 -1.0514
   76SLPC  H18S 6878   4.586   0.031   8.126  0.2630  0.6594 -0.0205
   76SLPC  H18T 6879   4.721  -0.068   8.073  0.2599  1.9834  0.4003
   76SLPC   C33 6880   4.506   0.582   6.922  0.7274  0.6621 -0.8949
   76SLPC   H3X 6881   4.596   0.622   6.870  2.5764 -2.4000 -0.3024
   76SLPC   H3Y 6882   4.503   0.473   6.901  0.3173 -0.2673  3.1019
   76SLPC   C34 6883   4.536   0.612   7.073  0.3503  0.0241  0.0197
   76SLPC   H4X 6884   4.456   0.555   7.124  1.9730 -1.4819  0.9766
   76SLPC   H4Y 6885   4.531   0.714   7.117  1.1488  0.0742  0.0014
   76SLPC   C35 6886   4.666   0.539   7.110 -0.0567 -0.5041 -0.1872
   76SLPC   H5X 6887   4.746   0.596   7.058  0.0921  1.3771  1.9486
   76SLPC   H5Y 6888   4.643   0.436   7.075 -0.3715 -1.7836  3.3376
   76SLPC   C36 6889   4.684   0.532   7.266 -0.5354  0.9616  0.3215
   76SLPC   H6X 6890   4.601   0.466   7.299  0.6872 -1.7834 -1.6981
   76SLPC   H6Y 6891   4.664   0.631   7.311  0.6477  0.9672  0.8671
   76SLPC   C37 6892   4.823   0.473   7.319 -0.2608 -0.2261 -0.7256
   76SLPC   H7X 6893   4.911   0.530   7.282  1.6382 -0.5902  2.8837
   76SLPC   H7Y 6894   4.839   0.375   7.269  2.1439 -0.8865  1.1578
   76SLPC   C38 6895   4.832   0.448   7.471  0.8517 -0.3256 -0.1727
   76SLPC   H8X 6896   4.764   0.361   7.485 -0.9618  1.0724 -0.0219
   76SLPC   H8Y 6897   4.779   0.525   7.530 -0.0842  0.4119 -1.9101
   76SLPC   C39 6898   4.977   0.423   7.512  0.7955  0.7162 -0.9553
   76SLPC   H9X 6899   5.030   0.518   7.493 -2.2493  3.0862  1.3953
   76SLPC   H9Y 6900   5.014   0.339   7.448 -1.4223 -2.3387  1.4388
   76SLPC  C310 6901   4.981   0.389   7.666 -0.2054 -0.4951 -0.2769
   76SLPC  H10X 6902   4.971   0.493   7.703  1.8080 -0.8379  1.4247
   76SLPC  H10Y 6903   5.085   0.353   7.685  0.4332  2.1860  1.8244
   76SLPC  C311 6904   4.877   0.283   7.711 -0.2326  0.6089  0.1429
   76SLPC  H11X 6905   4.900   0.206   7.635  0.4577  0.5771  0.3762
   76SLPC  H11Y 6906   4.772   0.315   7.695 -0.1048  0.9640  0.0074
   76SLPC  C312 6907   4.902   0.243   7.856  0.3236 -0.3234 -0.8163
   76SLPC  H12X 6908   5.009   0.219   7.868  0.9396  2.0344 -1.1970
   76SLPC  H12Y 6909   4.841   0.152   7.878  0.2082 -0.2410 -0.7957
   76SLPC  C313 6910   4.867   0.359   7.951  0.2195 -0.3245  0.6466
   76SLPC  H13X 6911   4.768   0.404   7.929  0.6818 -0.4342 -1.9810
   76SLPC  H13Y 6912   4.944   0.439   7.943  0.5682 -0.5761  1.3218
   76SLPC  C314 6913   4.863   0.311   8.090  0.4348  0.4835  0.1331
   76SLPC  H14X 6914   4.787   0.232   8.108 -0.1446  0.2639 -2.8310
   76SLPC  H14Y 6915   4.834   0.397   8.154  1.8438  1.8754 -1.0123
   76SLPC  C315 6916   5.000   0.258   8.142 -0.0289 -0.2152  0.0364
   76SLPC  H15X 6917   5.080   0.319   8.095 -0.1081 -1.8292 -2.3526
   76SLPC  H15Y 6918   5.011   0.152   8.108 -1.6540  0.2850 -2.3098
   76SLPC  C316 6919   5.002   0.243   8.293 -0.3308 -0.5780  0.5189
   76SLPC  H16X 6920   4.921   0.169   8.314 -2.1735  1.5624  1.2653
   76SLPC  H16Y 6921   4.969   0.327   8.357  0.6843 -0.9873  1.6012
   76SLPC  C317 6922   5.138   0.196   8.329  0.1192  0.1389  0.3574
   76SLPC  H17X 6923   5.218   0.245   8.269  0.5370  1.0835  1.6331
   76SLPC  H17Y 6924   5.150   0.087   8.316  0.4293  0.1470  0.5751
   76SLPC  C318 6925   5.170   0.232   8.479 -0.2485  0.7067  0.4035
   76SLPC  H18X 6926   5.201   0.338   8.486  1.7910  0.1151  1.0476
   76SLPC  H18Y 6927   5.251   0.168   8.521 -2.1290 -2.4903 -0.4609
   76SLPC  H18Z 6928   5.086   0.203   8.545  1.0642 -0.0428  1.8055
   77SLPC     N 6929   0.402   6.803   6.379  0.4381 -0.6190  0.1676
   77SLPC   C13 6930   0.552   6.830   6.378  0.1719  0.1610  0.5787
   77SLPC  H13A 6931   0.595   6.749   6.322 -0.3658  1.4878 -1.8666
   77SLPC  H13B 6932   0.570   6.923   6.327 -0.5870  2.3031  3.9042
   77SLPC  H13C 6933   0.596   6.831   6.477  0.3626 -1.1316  0.5205
   77SLPC   C14 6934   0.387   6.668   6.450  0.3321 -0.2437  0.4758
   77SLPC  H14A 6935   0.422   6.673   6.552  0.3871  2.1711  0.4094
   77SLPC  H14B 6936   0.284   6.635   6.449  0.0514  0.5203  1.8174
   77SLPC  H14C 6937   0.457   6.594   6.414 -1.1970 -1.8409  0.6657
   77SLPC   C15 6938   0.348   6.796   6.242 -0.0052 -0.2557 -0.1586
   77SLPC  H15A 6939   0.373   6.698   6.201  0.8128  0.1976 -0.7849
   77SLPC  H15B 6940   0.240   6.796   6.249  0.0347 -0.0484  0.5107
   77SLPC  H15C 6941   0.388   6.877   6.183  0.7981  0.6948  1.6193
   77SLPC   C12 6942   0.336   6.918   6.455  0.3859  0.8907  0.1883
   77SLPC  H12A 6943   0.337   7.003   6.387  1.3621 -0.2285 -1.2679
   77SLPC  H12B 6944   0.394   6.959   6.536  1.3509  0.5875 -0.3323
   77SLPC   C11 6945   0.191   6.884   6.508 -0.4253  0.4106 -0.4045
   77SLPC  H11A 6946   0.145   6.974   6.554 -0.9575 -0.0484 -0.0281
   77SLPC  H11B 6947   0.203   6.807   6.587 -0.2354 -1.2822 -2.0045
   77SLPC     P 6948   0.006   6.718   6.437 -0.2013  0.0671  0.1126
   77SLPC   O13 6949  -0.102   6.712   6.341  1.0631 -0.3532 -0.5904
   77SLPC   O14 6950   0.081   6.593   6.447 -0.1961  0.4488 -0.0150
   77SLPC   O12 6951   0.103   6.838   6.400 -0.4942  0.4666  0.8413
   77SLPC   O11 6952  -0.061   6.753   6.572 -0.2794  0.7362  0.5281
   77SLPC    C1 6953  -0.129   6.879   6.593  0.3089  1.0982 -0.3558
   77SLPC    HA 6954  -0.073   6.972   6.573  2.0919 -0.2526 -2.0173
   77SLPC    HB 6955  -0.221   6.885   6.531  1.6836  0.9376 -2.5162
   77SLPC    C2 6956  -0.182   6.881   6.742 -0.1996  0.4546 -0.2473
   77SLPC    HS 6957  -0.233   6.979   6.754 -1.6879 -0.2621 -0.4773
   77SLPC   O21 6958  -0.069   6.874   6.830 -0.2448  0.1042 -0.0313
   77SLPC   C21 6959   0.008   6.988   6.843  0.3283 -0.3420  0.2541
   77SLPC   O22 6960   0.011   7.085   6.775  0.0380 -0.1833 -0.3610
   77SLPC   C22 6961   0.103   6.978   6.963 -0.5858 -0.0550  0.5729
   77SLPC   H2R 6962   0.158   6.882   6.946  0.7307  1.0111 -1.5133
   77SLPC   H2S 6963   0.168   7.068   6.964  0.9916 -1.1428  0.1767
   77SLPC    C3 6964  -0.268   6.763   6.782  0.2728 -1.2023 -0.6798
   77SLPC    HX 6965  -0.207   6.670   6.793  2.8296  0.5288  0.8482
   77SLPC    HY 6966  -0.339   6.745   6.699 -0.5031  0.1774 -0.3446
   77SLPC   O31 6967  -0.327   6.786   6.913  0.5545  0.1233  0.1551
   77SLPC   C31 6968  -0.430   6.875   6.921 -0.2048 -0.0674  0.2223
   77SLPC   O32 6969  -0.492   6.929   6.832 -0.3138 -0.4246 -0.6190
   77SLPC   C32 6970  -0.467   6.885   7.066 -0.2889  0.0587 -0.4910
   77SLPC   H2X 6971  -0.380   6.931   7.118 -0.2922 -2.0757  1.5846
   77SLPC   H2Y 6972  -0.468   6.781   7.107  0.1559 -0.3069 -1.3645
   77SLPC   C23 6973   0.040   6.960   7.104 -0.5261 -0.8664  0.6874
   77SLPC   H3R 6974   0.117   6.965   7.184 -0.3006 -2.4156  0.5986
   77SLPC   H3S 6975  -0.005   6.859   7.113 -1.4804 -0.5550 -0.3509
   77SLPC   C24 6976  -0.059   7.063   7.135  0.7552 -0.9383  0.0314
   77SLPC   H4R 6977  -0.148   7.054   7.069  0.7089  0.8244 -0.2076
   77SLPC   H4S 6978  -0.005   7.158   7.112 -2.3089  1.0327  0.3562
   77SLPC   C25 6979  -0.085   7.081   7.289 -0.1115  0.3391  0.3774
   77SLPC   H5R 6980  -0.167   7.012   7.318  2.5419 -3.5810 -0.7156
   77SLPC   H5S 6981  -0.129   7.183   7.302 -0.0202  0.4427 -0.0998
   77SLPC   C26 6982   0.036   7.077   7.386  0.0791 -0.5768  0.1513
   77SLPC   H6R 6983   0.096   7.166   7.356 -0.1884 -0.1315  0.9119
   77SLPC   H6S 6984   0.085   6.978   7.378  0.0946 -0.5059 -0.6959
   77SLPC   C27 6985   0.003   7.109   7.530  0.2175  0.5317 -0.0963
   77SLPC   H7R 6986  -0.060   7.200   7.534  1.1004  1.1157  2.5166
   77SLPC   H7S 6987   0.096   7.148   7.576 -0.4748 -0.1907  1.9936
   77SLPC   C28 6988  -0.045   6.998   7.611  1.0955  0.3170  0.0110
   77SLPC   H8R 6989   0.021   6.909   7.610 -0.8465 -1.1848  0.6922
   77SLPC   H8S 6990  -0.142   6.958   7.577  1.0502  0.4366 -0.0026
   77SLPC   C29 6991  -0.057   7.046   7.748 -0.3473  0.3600 -0.4313
   77SLPC   H9R 6992  -0.117   7.137   7.763 -2.5988 -1.1165  0.0513
   77SLPC  C210 6993  -0.019   6.982   7.863 -0.3146  0.2302  0.5410
   77SLPC  H10R 6994  -0.028   7.037   7.958  2.3330  1.5919  0.1052
   77SLPC  C211 6995   0.038   6.847   7.870  0.2521  0.3137  1.0088
   77SLPC  H11R 6996   0.082   6.825   7.970 -0.6646 -0.0188  1.3530
   77SLPC  H11S 6997   0.113   6.829   7.790 -1.3698 -0.2529 -0.4481
   77SLPC  C212 6998  -0.067   6.738   7.836  0.2648 -0.3778  0.5396
   77SLPC  H12R 6999  -0.170   6.776   7.825  1.0673  1.2139 -3.6633
   77SLPC  C213 7000  -0.058   6.610   7.808  0.4652  0.9118 -0.4019
   77SLPC  H13R 7001  -0.153   6.560   7.783  1.0647 -1.4996  1.6860
   77SLPC  C214 7002   0.074   6.536   7.802  0.3117  0.9040  0.1789
   77SLPC  H14R 7003   0.143   6.575   7.723  1.3795 -1.4207 -0.1183
   77SLPC  H14S 7004   0.047   6.432   7.777 -3.9740  2.0810 -0.8773
   77SLPC  C215 7005   0.163   6.528   7.932  0.4590 -0.2752  0.2726
   77SLPC  H15R 7006   0.128   6.441   7.990  0.5356 -0.9518 -0.6752
   77SLPC  H15S 7007   0.135   6.618   7.992 -2.4553 -0.8161 -0.1693
   77SLPC  C216 7008   0.315   6.538   7.909  0.1486  0.0096  0.5526
   77SLPC  H16R 7009   0.345   6.645   7.902 -1.4293  0.4582  0.0850
   77SLPC  H16S 7010   0.327   6.499   7.805 -0.1672  2.2387 -0.3746
   77SLPC  C217 7011   0.403   6.466   8.013 -0.4081 -0.2825 -0.1203
   77SLPC  H17R 7012   0.370   6.359   8.013 -0.4818 -0.2915 -2.3296
   77SLPC  H17S 7013   0.386   6.515   8.111 -2.2697 -0.4989 -0.2900
   77SLPC  C218 7014   0.548   6.479   7.992  0.6725 -0.2588  0.4980
   77SLPC  H18R 7015   0.605   6.506   8.083  0.5678 -0.5047  0.6385
   77SLPC  H18S 7016   0.563   6.561   7.918 -1.7497 -1.2303 -1.2015
   77SLPC  H18T 7017   0.596   6.393   7.939  0.3880 -0.4701  0.5818
   77SLPC   C33 7018  -0.590   6.970   7.089  0.5384  0.2104  0.0362
   77SLPC   H3X 7019  -0.678   6.905   7.071 -0.3111  1.4790 -0.5115
   77SLPC   H3Y 7020  -0.618   7.040   7.007 -4.1517 -0.8608  0.4393
   77SLPC   C34 7021  -0.590   7.045   7.219 -0.2883 -0.2133  0.6277
   77SLPC   H4X 7022  -0.668   7.122   7.235  0.0085 -0.1257  1.7829
   77SLPC   H4Y 7023  -0.492   7.097   7.225 -0.0736 -0.0231 -2.7292
   77SLPC   C35 7024  -0.602   6.946   7.338 -0.6821 -0.1471 -0.5984
   77SLPC   H5X 7025  -0.519   6.873   7.338 -0.1509  0.4434  0.4070
   77SLPC   H5Y 7026  -0.703   6.900   7.340 -0.8357  0.1952 -0.3189
   77SLPC   C36 7027  -0.599   7.016   7.474 -0.6287 -0.5707 -0.0235
   77SLPC   H6X 7028  -0.686   7.083   7.493  0.5274  1.0689 -0.2939
   77SLPC   H6Y 7029  -0.506   7.077   7.469 -1.5747  0.8916 -0.3383
   77SLPC   C37 7030  -0.590   6.926   7.592 -0.0644  0.0345 -0.5242
   77SLPC   H7X 7031  -0.506   6.857   7.573 -0.2560 -0.4217  0.1986
   77SLPC   H7Y 7032  -0.679   6.861   7.609  0.6864 -0.8502  0.0642
   77SLPC   C38 7033  -0.558   7.008   7.720 -0.0876  0.2333  0.3560
   77SLPC   H8X 7034  -0.630   7.092   7.728  0.3491  0.6568 -0.0761
   77SLPC   H8Y 7035  -0.461   7.060   7.709 -0.7609  0.9888 -3.5535
   77SLPC   C39 7036  -0.573   6.920   7.841  0.3717  0.7154 -0.6944
   77SLPC   H9X 7037  -0.519   6.825   7.821 -0.3196  0.4381 -1.3025
   77SLPC   H9Y 7038  -0.678   6.889   7.859  0.7130  0.5025  1.1412
   77SLPC  C310 7039  -0.533   6.984   7.970  0.0464  0.1207 -0.5991
   77SLPC  H10X 7040  -0.584   6.936   8.055  2.9416 -1.4012  0.4021
   77SLPC  H10Y 7041  -0.548   7.095   7.969 -0.3848  0.1624  2.1950
   77SLPC  C311 7042  -0.386   6.958   7.995  0.6128  0.1466 -0.2007
   77SLPC  H11X 7043  -0.323   7.020   7.928  2.5704 -0.5586  0.9021
   77SLPC  H11Y 7044  -0.367   6.854   7.961 -0.5858  1.0961 -4.3062
   77SLPC  C312 7045  -0.340   6.980   8.142 -0.1521  0.5467  0.1416
   77SLPC  H12X 7046  -0.244   6.927   8.160 -0.4341  0.3250  1.0498
   77SLPC  H12Y 7047  -0.413   6.928   8.207 -1.4507  3.8254  1.5079
   77SLPC  C313 7048  -0.327   7.130   8.181 -0.1063 -0.1792 -0.0094
   77SLPC  H13X 7049  -0.419   7.190   8.161 -0.6934 -1.1407 -0.2397
   77SLPC  H13Y 7050  -0.248   7.163   8.110  0.2069 -0.4227  0.2215
   77SLPC  C314 7051  -0.290   7.153   8.327 -0.5418 -0.0820  0.3096
   77SLPC  H14X 7052  -0.208   7.081   8.350 -0.0865  0.9065  1.9370
   77SLPC  H14Y 7053  -0.371   7.136   8.401  0.1112  0.0094  1.0655
   77SLPC  C315 7054  -0.233   7.296   8.337 -0.4986 -0.2102  0.1914
   77SLPC  H15X 7055  -0.321   7.364   8.340  0.9800  1.7836  0.0893
   77SLPC  H15Y 7056  -0.168   7.316   8.250  0.9955 -0.3127  1.2581
   77SLPC  C316 7057  -0.162   7.323   8.468  0.1717  0.0728  0.0432
   77SLPC  H16X 7058  -0.096   7.237   8.493 -0.7246 -0.3844  0.9046
   77SLPC  H16Y 7059  -0.241   7.331   8.545 -1.0026 -0.8746 -1.0283
   77SLPC  C317 7060  -0.085   7.460   8.463 -0.2057  0.0645 -0.7768
   77SLPC  H17X 7061  -0.153   7.548   8.464 -0.3678 -0.0178 -1.9954
   77SLPC  H17Y 7062  -0.032   7.457   8.365  0.7229  0.9354 -0.3129
   77SLPC  C318 7063   0.014   7.475   8.576 -0.3998 -1.1398  0.2179
   77SLPC  H18X 7064  -0.037   7.472   8.674 -1.0689  0.7465 -0.0218
   77SLPC  H18Y 7065   0.071   7.570   8.577  0.9296 -1.9157 -0.1966
   77SLPC  H18Z 7066   0.098   7.404   8.566  0.7595  0.3081 -0.8529
   78SLPC     N 7067   1.374   6.751   5.872  0.6808  0.3064  0.6595
   78SLPC   C13 7068   1.401   6.637   5.961 -0.5772 -0.1819 -0.1462
   78SLPC  H13A 7069   1.355   6.654   6.057  0.4806  2.4310 -0.0416
   78SLPC  H13B 7070   1.363   6.542   5.924  2.0163 -1.4570  0.1928
   78SLPC  H13C 7071   1.506   6.616   5.978 -0.3587  2.2069  2.0495
   78SLPC   C14 7072   1.225   6.747   5.836  0.0856 -0.1150  0.0624
   78SLPC  H14A 7073   1.177   6.831   5.884 -0.7604 -0.4977 -0.0898
   78SLPC  H14B 7074   1.200   6.753   5.731  1.7105 -1.1765 -0.4114
   78SLPC  H14C 7075   1.196   6.647   5.866 -0.4871  0.3614  1.1484
   78SLPC   C15 7076   1.457   6.724   5.748  0.3175 -0.2564 -0.1865
   78SLPC  H15A 7077   1.424   6.634   5.697  0.4249 -0.7847  0.6541
   78SLPC  H15B 7078   1.458   6.807   5.678 -0.0181  0.4762  0.6623
   78SLPC  H15C 7079   1.558   6.708   5.782  0.2679  0.3657  0.2779
   78SLPC   C12 7080   1.406   6.884   5.941 -0.6024  0.0248  0.1106
   78SLPC  H12A 7081   1.360   6.966   5.888 -0.6361  0.3709  0.6682
   78SLPC  H12B 7082   1.513   6.897   5.937 -0.8405  2.6038  0.6460
   78SLPC   C11 7083   1.364   6.902   6.081 -1.3008 -0.4721  0.8901
   78SLPC  H11A 7084   1.404   7.001   6.111 -1.5339  0.0413 -0.4173
   78SLPC  H11B 7085   1.426   6.826   6.133  0.6977  0.5311  0.0775
   78SLPC     P 7086   1.148   6.812   6.184 -0.0292  0.1098 -0.4722
   78SLPC   O13 7087   1.004   6.827   6.153  0.0804  0.0810  0.2090
   78SLPC   O14 7088   1.203   6.680   6.164  0.5399 -0.0495  0.7706
   78SLPC   O12 7089   1.226   6.908   6.099  0.2851 -0.4625  0.4138
   78SLPC   O11 7090   1.169   6.857   6.329 -0.3920 -0.0313 -0.3415
   78SLPC    C1 7091   1.293   6.846   6.406  0.7624 -0.2164 -0.7089
   78SLPC    HA 7092   1.354   6.764   6.364 -0.4818 -1.5412 -0.0335
   78SLPC    HB 7093   1.350   6.938   6.382  1.1141 -0.1842  0.2086
   78SLPC    C2 7094   1.264   6.838   6.555 -0.1676 -0.4787 -0.3105
   78SLPC    HS 7095   1.179   6.766   6.559 -2.9219  2.3428 -2.4190
   78SLPC   O21 7096   1.227   6.974   6.599 -0.1599  0.1692 -0.3037
   78SLPC   C21 7097   1.121   6.969   6.674 -0.0848  0.7386  0.4756
   78SLPC   O22 7098   1.048   6.871   6.699  0.0500  0.0790 -0.0580
   78SLPC   C22 7099   1.104   7.093   6.762  0.2808 -0.1403 -0.0496
   78SLPC   H2R 7100   1.147   7.166   6.690 -0.7903  2.3164  1.6485
   78SLPC   H2S 7101   0.997   7.116   6.781  0.7707  1.5320  0.8557
   78SLPC    C3 7102   1.380   6.780   6.638  0.1265 -0.0852 -0.3496
   78SLPC    HX 7103   1.448   6.866   6.654 -0.9477  1.0766 -1.7932
   78SLPC    HY 7104   1.448   6.722   6.571  1.2249  2.0903 -1.2016
   78SLPC   O31 7105   1.343   6.725   6.770  0.3445 -0.0123 -0.1219
   78SLPC   C31 7106   1.450   6.667   6.825  0.6137 -0.2704 -0.6256
   78SLPC   O32 7107   1.558   6.654   6.769  0.3094  0.1387 -0.0127
   78SLPC   C32 7108   1.415   6.623   6.960 -0.0823  0.7915 -0.8882
   78SLPC   H2X 7109   1.357   6.529   6.950  1.8103 -0.4099 -1.1813
   78SLPC   H2Y 7110   1.358   6.705   7.009  1.3823  1.5154 -0.3298
   78SLPC   C23 7111   1.191   7.089   6.888 -0.6235 -0.1697  0.1989
   78SLPC   H3R 7112   1.212   7.192   6.924 -0.3764 -1.1194  3.0737
   78SLPC   H3S 7113   1.291   7.046   6.868 -0.4755  0.4928 -0.5636
   78SLPC   C24 7114   1.125   7.003   6.999 -0.0745 -0.8323  0.0925
   78SLPC   H4R 7115   1.090   6.906   6.957  0.8783 -1.0702 -0.1648
   78SLPC   H4S 7116   1.031   7.055   7.031 -0.0874 -1.0895  0.4835
   78SLPC   C25 7117   1.214   6.984   7.120 -0.8000  0.4853  0.3093
   78SLPC   H5R 7118   1.249   7.087   7.142 -1.7773  1.2358 -1.4963
   78SLPC   H5S 7119   1.309   6.929   7.102 -1.2841 -1.9659  4.0859
   78SLPC   C26 7120   1.147   6.921   7.248 -0.0112 -0.1317  0.3042
   78SLPC   H6R 7121   1.211   6.909   7.339 -0.7447  0.5325  0.9239
   78SLPC   H6S 7122   1.097   6.827   7.216  1.9422 -0.3206 -2.5207
   78SLPC   C27 7123   1.026   7.008   7.298 -0.7440  0.2165 -0.1073
   78SLPC   H7R 7124   0.942   7.005   7.225  0.2143 -0.2930 -1.2374
   78SLPC   H7S 7125   1.063   7.109   7.322  1.8793 -0.1008 -2.2692
   78SLPC   C28 7126   0.971   6.954   7.430  0.1073 -0.0541  0.2575
   78SLPC   H8R 7127   1.060   6.951   7.497  2.1615 -0.3243 -2.3011
   78SLPC   H8S 7128   0.940   6.849   7.410 -0.3923  0.4586 -1.8648
   78SLPC   C29 7129   0.848   7.030   7.491  0.1303 -0.0851 -0.5026
   78SLPC   H9R 7130   0.757   7.029   7.429  0.0314 -0.6835 -0.3519
   78SLPC  C210 7131   0.841   7.085   7.612  0.3150 -0.4331 -0.6931
   78SLPC  H10R 7132   0.741   7.119   7.643  0.5281  0.6660 -1.2027
   78SLPC  C211 7133   0.940   7.090   7.725 -0.1725 -0.4448  0.5984
   78SLPC  H11R 7134   0.955   7.199   7.742  0.2481 -0.7992  2.8891
   78SLPC  H11S 7135   1.040   7.050   7.695 -0.3642 -1.7250  1.5597
   78SLPC  C212 7136   0.899   7.038   7.862 -0.2373  0.8615  0.1989
   78SLPC  H12R 7137   0.797   7.060   7.895 -2.4039 -2.5922 -3.3653
   78SLPC  C213 7138   0.975   6.947   7.933 -0.6215 -0.0117  0.5647
   78SLPC  H13R 7139   0.946   6.926   8.037  0.3976  3.6189  1.7388
   78SLPC  C214 7140   1.115   6.892   7.893  0.4855  0.8050  0.5367
   78SLPC  H14R 7141   1.132   6.905   7.784  1.4983 -1.0801  0.4410
   78SLPC  H14S 7142   1.124   6.782   7.906 -1.4115  0.4913 -0.5727
   78SLPC  C215 7143   1.221   6.972   7.963 -0.0380 -0.2488 -0.3118
   78SLPC  H15R 7144   1.214   7.082   7.949  1.5062 -0.2030 -0.9176
   78SLPC  H15S 7145   1.319   6.952   7.916  1.5639  1.9405  1.8363
   78SLPC  C216 7146   1.248   6.945   8.110 -1.0484 -0.3183 -0.3995
   78SLPC  H16R 7147   1.296   6.849   8.138 -0.3594  0.4940  1.3160
   78SLPC  H16S 7148   1.153   6.943   8.167 -1.3512  3.9498 -0.4303
   78SLPC  C217 7149   1.340   7.048   8.179 -0.0696 -0.3585  0.1399
   78SLPC  H17R 7150   1.289   7.145   8.199 -2.2137 -1.4581  0.3245
   78SLPC  H17S 7151   1.427   7.070   8.112  0.8376  2.5417  2.0784
   78SLPC  C218 7152   1.404   6.996   8.311  0.6767  0.2947 -0.0326
   78SLPC  H18R 7153   1.461   7.082   8.353 -1.1885  1.4132  0.3317
   78SLPC  H18S 7154   1.467   6.907   8.292  2.8827  1.1731  2.5588
   78SLPC  H18T 7155   1.323   6.985   8.387  1.1807  0.8609  0.5970
   78SLPC   C33 7156   1.546   6.594   7.040  0.9741  0.7539  0.2045
   78SLPC   H3X 7157   1.607   6.686   7.045  3.7194 -0.9513  0.5815
   78SLPC   H3Y 7158   1.608   6.523   6.981  1.9024  1.5514  0.2051
   78SLPC   C34 7159   1.521   6.536   7.181  0.8747  0.2974  0.3070
   78SLPC   H4X 7160   1.435   6.466   7.177  1.3970 -0.3051 -0.7736
   78SLPC   H4Y 7161   1.492   6.621   7.247  0.4864  1.0168 -0.7756
   78SLPC   C35 7162   1.647   6.476   7.247  0.1668  0.0129 -0.2406
   78SLPC   H5X 7163   1.717   6.423   7.179 -0.0885 -2.1721  1.1089
   78SLPC   H5Y 7164   1.604   6.384   7.291  0.3538 -0.2914 -0.6869
   78SLPC   C36 7165   1.726   6.574   7.337 -0.8231 -0.0746  0.2561
   78SLPC   H6X 7166   1.663   6.606   7.423 -0.3499  0.0071  0.5766
   78SLPC   H6Y 7167   1.759   6.663   7.278  3.1784 -1.2957  0.3127
   78SLPC   C37 7168   1.859   6.513   7.377 -0.0483  0.1731 -0.6421
   78SLPC   H7X 7169   1.932   6.518   7.293  0.3078 -0.1162 -0.3536
   78SLPC   H7Y 7170   1.841   6.403   7.376 -4.4140  0.7159 -1.1964
   78SLPC   C38 7171   1.918   6.576   7.503  0.3041  0.5715 -0.5011
   78SLPC   H8X 7172   1.897   6.684   7.491 -4.6917 -0.1067 -0.2801
   78SLPC   H8Y 7173   2.025   6.548   7.503  0.2340  0.3016 -0.6915
   78SLPC   C39 7174   1.853   6.531   7.629 -0.3268 -0.7039 -0.3818
   78SLPC   H9X 7175   1.857   6.420   7.636  0.5659 -0.6033  1.1141
   78SLPC   H9Y 7176   1.747   6.565   7.633  0.9400  3.7190  0.7642
   78SLPC  C310 7177   1.922   6.591   7.758  0.1266 -0.5025 -0.5416
   78SLPC  H10X 7178   1.871   6.688   7.774 -1.8189 -1.1926 -2.0864
   78SLPC  H10Y 7179   2.026   6.608   7.723 -1.1717  1.9724 -3.7932
   78SLPC  C311 7180   1.920   6.502   7.881  0.1006 -0.2484 -0.0488
   78SLPC  H11X 7181   2.000   6.425   7.869  0.1756 -0.1780 -0.0017
   78SLPC  H11Y 7182   1.822   6.451   7.890 -0.0431 -0.2675 -1.4737
   78SLPC  C312 7183   1.955   6.589   8.007  0.2281  0.0633  0.0910
   78SLPC  H12X 7184   1.868   6.653   8.033  0.8274  0.2986  1.5779
   78SLPC  H12Y 7185   2.049   6.645   7.990  0.3879 -0.3702 -0.5184
   78SLPC  C313 7186   1.969   6.493   8.124 -0.1676 -0.5382  0.4409
   78SLPC  H13X 7187   2.074   6.456   8.122  0.4952  1.2256 -2.1097
   78SLPC  H13Y 7188   1.910   6.400   8.121 -0.1095 -0.5578 -0.3266
   78SLPC  C314 7189   1.945   6.554   8.260  0.0063 -0.3359 -0.6592
   78SLPC  H14X 7190   1.964   6.475   8.337 -0.7305  1.7079  1.7612
   78SLPC  H14Y 7191   1.844   6.596   8.280  0.6640  1.5353 -1.0950
   78SLPC  C315 7192   2.034   6.676   8.290 -0.2083  0.2919 -0.0458
   78SLPC  H15X 7193   2.008   6.708   8.393 -0.6689 -2.3343  0.7191
   78SLPC  H15Y 7194   2.007   6.764   8.228  0.3400  1.3878  1.2237
   78SLPC  C316 7195   2.181   6.637   8.307 -0.2518  1.2183  0.3068
   78SLPC  H16X 7196   2.231   6.734   8.326 -2.6459  2.4429  0.6342
   78SLPC  H16Y 7197   2.221   6.596   8.211 -1.4778 -3.0446  1.3884
   78SLPC  C317 7198   2.207   6.547   8.432 -0.0097  0.1849  0.0721
   78SLPC  H17X 7199   2.170   6.446   8.401  1.3847 -0.1598 -0.5634
   78SLPC  H17Y 7200   2.159   6.590   8.522  2.9642 -1.7986  2.8255
   78SLPC  C318 7201   2.352   6.559   8.469  0.1353 -0.0619 -0.4159
   78SLPC  H18X 7202   2.371   6.659   8.512  2.8031 -0.5037 -0.4363
   78SLPC  H18Y 7203   2.414   6.531   8.382  0.1981 -1.5192  0.0600
   78SLPC  H18Z 7204   2.388   6.500   8.556  0.0738 -0.7112 -0.8232
   79SLPC     N 7205   5.634   2.369   6.152  0.1734 -0.1032  0.2775
   79SLPC   C13 7206   5.553   2.245   6.129 -0.0755 -0.0697 -0.0882
   79SLPC  H13A 7207   5.613   2.164   6.168 -0.7371 -0.7560 -0.4576
   79SLPC  H13B 7208   5.458   2.246   6.181  0.1198 -2.3705  0.4441
   79SLPC  H13C 7209   5.541   2.226   6.024 -1.4221 -0.0089  0.0301
   79SLPC   C14 7210   5.555   2.486   6.124  0.2219  0.0189 -0.1264
   79SLPC  H14A 7211   5.622   2.564   6.091 -1.4975  1.0511 -1.2965
   79SLPC  H14B 7212   5.486   2.465   6.044  0.7421  0.3162 -0.6584
   79SLPC  H14C 7213   5.494   2.522   6.206 -1.7136 -3.3379  0.0732
   79SLPC   C15 7214   5.743   2.356   6.055 -0.1290 -0.3880  0.0652
   79SLPC  H15A 7215   5.802   2.447   6.050  0.1939 -0.5739  0.4294
   79SLPC  H15B 7216   5.819   2.284   6.082 -0.6798 -0.9701  0.0801
   79SLPC  H15C 7217   5.714   2.348   5.951  0.7198 -1.3569 -0.1122
   79SLPC   C12 7218   5.688   2.373   6.297  0.5386  0.0484  0.1705
   79SLPC  H12A 7219   5.610   2.371   6.372  1.5845 -0.1862  1.2932
   79SLPC  H12B 7220   5.728   2.471   6.316  0.7887  0.3475 -1.6755
   79SLPC   C11 7221   5.786   2.265   6.345  0.0038  0.1097  0.1498
   79SLPC  H11A 7222   5.741   2.166   6.324  0.1302  0.5822 -2.7137
   79SLPC  H11B 7223   5.780   2.279   6.455 -1.7135 -0.6380  0.1877
   79SLPC     P 7224   6.003   2.408   6.337 -0.4233 -0.1853  0.1519
   79SLPC   O13 7225   6.144   2.372   6.355 -0.0573  0.3341  0.3410
   79SLPC   O14 7226   5.973   2.509   6.234  0.3340 -0.1274 -0.2667
   79SLPC   O12 7227   5.916   2.281   6.308  0.8688  0.0890 -0.1323
   79SLPC   O11 7228   5.946   2.473   6.468  0.0242  0.2274 -0.2513
   79SLPC    C1 7229   6.032   2.492   6.581 -0.5615 -0.9641  0.6835
   79SLPC    HA 7230   5.968   2.511   6.670 -2.9164  3.9772 -1.6509
   79SLPC    HB 7231   6.092   2.400   6.602 -0.4586 -0.8901  0.7123
   79SLPC    C2 7232   6.129   2.609   6.569  0.0717  0.2096 -0.2867
   79SLPC    HS 7233   6.197   2.591   6.484  2.5161 -0.2103  1.6430
   79SLPC   O21 7234   6.209   2.603   6.690 -0.5519  0.9085 -0.2519
   79SLPC   C21 7235   6.329   2.647   6.680 -0.9432  0.1560  0.3310
   79SLPC   O22 7236   6.373   2.706   6.581  0.0584  1.1523 -0.2284
   79SLPC   C22 7237   6.404   2.616   6.812  0.1862  0.7812  0.3949
   79SLPC   H2R 7238   6.373   2.691   6.888  0.2205  3.4477 -2.0602
   79SLPC   H2S 7239   6.380   2.511   6.841  1.0853  0.4508 -0.0220
   79SLPC    C3 7240   6.065   2.749   6.552  0.3182 -0.2769 -0.6656
   79SLPC    HX 7241   5.993   2.744   6.467 -1.9203 -2.0590  1.2079
   79SLPC    HY 7242   6.142   2.826   6.530 -0.7599  0.9246 -0.3291
   79SLPC   O31 7243   5.987   2.784   6.665  0.1637 -0.9341  0.0688
   79SLPC   C31 7244   5.985   2.917   6.681 -0.6729  0.5171 -0.7790
   79SLPC   O32 7245   6.049   3.004   6.620  0.0150 -0.0437  0.4996
   79SLPC   C32 7246   5.903   2.945   6.810 -0.4299  0.4063  0.1771
   79SLPC   H2X 7247   5.840   2.856   6.835  0.4122 -0.5911 -1.1206
   79SLPC   H2Y 7248   5.837   3.030   6.782  0.6971  1.9873  2.1256
   79SLPC   C23 7249   6.559   2.624   6.798 -0.4107 -0.5249 -0.5987
   79SLPC   H3R 7250   6.601   2.718   6.754 -1.8797 -0.4476 -1.9526
   79SLPC   H3S 7251   6.600   2.544   6.733 -0.4777 -1.0208 -0.0334
   79SLPC   C24 7252   6.614   2.614   6.932 -0.2714  0.0011  0.9090
   79SLPC   H4R 7253   6.714   2.567   6.938 -0.0290  0.2154 -0.9282
   79SLPC   H4S 7254   6.546   2.543   6.984 -2.5424  0.2711 -1.4740
   79SLPC   C25 7255   6.609   2.749   7.006  0.0163 -0.3496 -0.0313
   79SLPC   H5R 7256   6.503   2.783   7.003  0.7689  2.4008  1.1741
   79SLPC   H5S 7257   6.665   2.819   6.941 -0.7692 -1.0653 -1.5286
   79SLPC   C26 7258   6.672   2.756   7.145  0.0309  0.0694 -0.0240
   79SLPC   H6R 7259   6.699   2.858   7.180 -1.9303  0.0308  1.7665
   79SLPC   H6S 7260   6.766   2.697   7.135  0.7049  1.2948 -1.2239
   79SLPC   C27 7261   6.586   2.697   7.263 -0.4366 -0.1850 -0.4015
   79SLPC   H7R 7262   6.577   2.586   7.266  1.2683 -0.3341  0.8666
   79SLPC   H7S 7263   6.493   2.756   7.268  0.1802  0.6933  1.3949
   79SLPC   C28 7264   6.651   2.746   7.394 -0.6097 -0.2777  0.0735
   79SLPC   H8R 7265   6.650   2.857   7.391 -1.8130 -0.2408  0.9324
   79SLPC   H8S 7266   6.760   2.726   7.388 -0.6702 -0.1496 -1.9045
   79SLPC   C29 7267   6.591   2.682   7.512 -0.4488 -0.3265 -0.1676
   79SLPC   H9R 7268   6.579   2.575   7.491 -0.9087  0.2610 -3.4533
   79SLPC  C210 7269   6.556   2.745   7.625 -0.8680  0.2053 -1.0053
   79SLPC  H10R 7270   6.515   2.677   7.701 -1.3075  1.3976 -0.1446
   79SLPC  C211 7271   6.567   2.895   7.654 -0.2288 -1.1391 -0.5108
   79SLPC  H11R 7272   6.476   2.927   7.709 -1.1190 -0.7046 -2.1886
   79SLPC  H11S 7273   6.573   2.956   7.562  0.4636  2.9094  1.9310
   79SLPC  C212 7274   6.690   2.930   7.733 -0.1212 -1.1019  0.3307
   79SLPC  H12R 7275   6.768   2.972   7.668  0.4975  2.1578  2.8659
   79SLPC  C213 7276   6.704   2.941   7.868 -0.4824 -0.3110  0.5546
   79SLPC  H13R 7277   6.791   2.980   7.922 -2.1788  0.9899  2.5310
   79SLPC  C214 7278   6.593   2.910   7.960  0.5744 -0.4496 -0.6411
   79SLPC  H14R 7279   6.622   2.840   8.041 -3.4134 -2.8761 -1.0425
   79SLPC  H14S 7280   6.517   2.852   7.904  0.7200 -0.7801 -0.4925
   79SLPC  C215 7281   6.530   3.035   8.024 -1.0784 -0.0217  0.4600
   79SLPC  H15R 7282   6.442   3.061   7.962 -0.2192  1.6909 -0.1111
   79SLPC  H15S 7283   6.587   3.130   8.032 -1.7937  0.3949  0.6966
   79SLPC  C216 7284   6.500   3.006   8.171  0.2405  0.6342  0.1298
   79SLPC  H16R 7285   6.592   2.965   8.217 -1.2228 -3.3775 -0.1428
   79SLPC  H16S 7286   6.415   2.936   8.185  2.8170 -2.7152  0.1883
   79SLPC  C217 7287   6.456   3.128   8.241  0.0232 -0.6372  1.2102
   79SLPC  H17R 7288   6.369   3.168   8.186  1.6803  0.8339 -0.4671
   79SLPC  H17S 7289   6.533   3.206   8.227 -1.2295  0.6085  1.1114
   79SLPC  C218 7290   6.425   3.108   8.389 -0.0273 -0.3125 -0.3461
   79SLPC  H18R 7291   6.350   3.029   8.410  0.6311 -0.9124 -0.2099
   79SLPC  H18S 7292   6.397   3.205   8.435  1.7550  0.0849  0.0012
   79SLPC  H18T 7293   6.521   3.078   8.438  1.0592  3.4070  0.0717
   79SLPC   C33 7294   6.001   2.987   6.924  0.2577 -0.0251  0.0390
   79SLPC   H3X 7295   5.952   3.003   7.022 -2.0375 -2.0527 -0.6907
   79SLPC   H3Y 7296   6.052   3.083   6.898 -2.0455  0.3652 -3.8249
   79SLPC   C34 7297   6.105   2.877   6.965  0.9976  0.2752  0.3176
   79SLPC   H4X 7298   6.168   2.862   6.874 -0.3621 -0.7856 -0.4923
   79SLPC   H4Y 7299   6.050   2.783   6.986  1.4766  0.0966  0.7956
   79SLPC   C35 7300   6.189   2.913   7.086 -0.2817 -0.2191  0.6131
   79SLPC   H5X 7301   6.250   3.006   7.080  0.8966 -0.9617  0.6734
   79SLPC   H5Y 7302   6.254   2.825   7.102 -0.5982 -0.4574  0.5975
   79SLPC   C36 7303   6.110   2.931   7.221 -0.0869 -0.3629  1.0278
   79SLPC   H6X 7304   6.047   2.841   7.235 -1.5639 -0.2541 -3.2751
   79SLPC   H6Y 7305   6.044   3.020   7.215  0.7621  0.3423  1.8989
   79SLPC   C37 7306   6.199   2.962   7.347  0.8261 -0.4858  0.1711
   79SLPC   H7X 7307   6.240   3.064   7.336 -0.9882  0.6070  2.6866
   79SLPC   H7Y 7308   6.286   2.893   7.349  1.4051  0.1813 -0.9500
   79SLPC   C38 7309   6.116   2.954   7.475 -0.4560  0.4771  0.0922
   79SLPC   H8X 7310   6.091   2.851   7.508  2.2253 -0.0216  0.7480
   79SLPC   H8Y 7311   6.028   3.022   7.477 -0.7021  0.1471  1.7266
   79SLPC   C39 7312   6.183   3.005   7.609 -0.4868 -0.7235 -0.1136
   79SLPC   H9X 7313   6.216   3.111   7.608 -1.4149 -0.4224 -1.0893
   79SLPC   H9Y 7314   6.268   2.935   7.626  0.4041  0.6326  1.2213
   79SLPC  C310 7315   6.094   2.997   7.718 -0.4168 -0.6171 -0.3462
   79SLPC  H10X 7316   6.062   2.892   7.728 -0.2228 -0.6806 -0.3864
   79SLPC  H10Y 7317   6.007   3.062   7.695  0.1862 -0.2359 -1.6659
   79SLPC  C311 7318   6.157   3.039   7.855  0.2293 -0.2825 -0.2984
   79SLPC  H11X 7319   6.210   3.135   7.840  1.2071 -0.8403 -0.5345
   79SLPC  H11Y 7320   6.245   2.975   7.877  2.4085  2.0801 -1.6810
   79SLPC  C312 7321   6.054   3.040   7.966 -0.8328  0.0046 -0.1025
   79SLPC  H12X 7322   6.037   2.933   7.991 -0.3089 -0.5471 -1.9300
   79SLPC  H12Y 7323   5.959   3.079   7.924  0.3220  1.1074 -1.7941
   79SLPC  C313 7324   6.106   3.123   8.080 -0.7605 -0.3351  0.5801
   79SLPC  H13X 7325   6.130   3.226   8.046  0.5179 -0.8207 -0.0450
   79SLPC  H13Y 7326   6.195   3.077   8.127  0.1675  1.2902  0.4807
   79SLPC  C314 7327   6.003   3.141   8.193  0.0216  1.0946  0.1154
   79SLPC  H14X 7328   5.974   3.037   8.220  1.6387  0.7848  0.7545
   79SLPC  H14Y 7329   5.920   3.200   8.148  1.7577  0.7999 -3.9845
   79SLPC  C315 7330   6.061   3.206   8.312  0.3269 -0.5770 -0.4876
   79SLPC  H15X 7331   6.127   3.289   8.281  1.7035 -1.2748  0.5037
   79SLPC  H15Y 7332   6.139   3.136   8.347  0.6326 -0.7844 -1.5423
   79SLPC  C316 7333   5.976   3.241   8.437 -0.4472  0.7984  0.0883
   79SLPC  H16X 7334   6.047   3.257   8.521 -0.5330 -0.4621  0.4289
   79SLPC  H16Y 7335   5.906   3.157   8.458 -1.9742  1.7872 -0.8248
   79SLPC  C317 7336   5.889   3.370   8.414 -0.2271  0.3663  0.0644
   79SLPC  H17X 7337   5.816   3.345   8.333 -0.2527  0.0156  0.1929
   79SLPC  H17Y 7338   5.953   3.453   8.379  1.5440 -0.8869  0.2019
   79SLPC  C318 7339   5.822   3.387   8.554  0.1400 -0.0118  0.1065
   79SLPC  H18X 7340   5.893   3.401   8.638  0.9023  1.1092 -0.7000
   79SLPC  H18Y 7341   5.757   3.301   8.583 -0.9666  0.6016 -0.4679
   79SLPC  H18Z 7342   5.752   3.473   8.547  0.5323  0.3000  0.0289
   80SLPC     N 7343   6.309   5.984   5.852 -0.4333  0.4971  0.2399
   80SLPC   C13 7344   6.175   5.949   5.782 -0.2630  0.1687  0.0691
   80SLPC  H13A 7345   6.184   5.959   5.675 -3.1004 -2.1993 -0.4995
   80SLPC  H13B 7346   6.141   5.847   5.788  0.2164  0.0315  0.5874
   80SLPC  H13C 7347   6.092   6.006   5.821  0.8446  1.3279  0.8377
   80SLPC   C14 7348   6.333   6.124   5.822 -0.1800  0.5023  0.8098
   80SLPC  H14A 7349   6.357   6.128   5.717  0.6059 -0.4210  0.9451
   80SLPC  H14B 7350   6.250   6.192   5.836 -0.3161  0.2514  1.2478
   80SLPC  H14C 7351   6.420   6.150   5.881  0.6460 -0.7393  0.1780
   80SLPC   C15 7352   6.422   5.901   5.792 -0.5343  0.1409 -0.9622
   80SLPC  H15A 7353   6.442   5.923   5.688 -0.1445 -1.0342 -1.1583
   80SLPC  H15B 7354   6.513   5.927   5.844 -1.0783 -2.2117  1.4055
   80SLPC  H15C 7355   6.407   5.794   5.800  1.1717 -0.1240 -0.7931
   80SLPC   C12 7356   6.289   5.966   5.996 -0.1287  0.4013 -0.7354
   80SLPC  H12A 7357   6.273   5.862   6.021 -0.7295  0.7179  0.2826
   80SLPC  H12B 7358   6.202   6.020   6.029  0.3585  0.5569  0.3250
   80SLPC   C11 7359   6.402   6.006   6.091 -0.5570  0.5384 -0.4468
   80SLPC  H11A 7360   6.382   5.993   6.199 -0.5733  0.1564 -0.4946
   80SLPC  H11B 7361   6.420   6.114   6.073  1.7068 -0.0413 -2.1423
   80SLPC     P 7362   6.555   5.796   6.138 -0.0943 -0.4933 -0.1879
   80SLPC   O13 7363   6.431   5.720   6.145 -0.2024 -0.1003 -0.1174
   80SLPC   O14 7364   6.678   5.748   6.079  0.2381 -0.3649  0.2640
   80SLPC   O12 7365   6.520   5.930   6.059 -0.2881 -0.1521 -0.3896
   80SLPC   O11 7366   6.583   5.849   6.276 -0.4048  0.1263 -0.7283
   80SLPC    C1 7367   6.688   5.942   6.304 -0.4514  0.2282 -0.1870
   80SLPC    HA 7368   6.771   5.919   6.234 -1.8955 -4.2886 -0.7390
   80SLPC    HB 7369   6.643   6.042   6.284  1.3633  0.8027 -1.7021
   80SLPC    C2 7370   6.732   5.936   6.447 -0.2072 -0.3016 -0.2625
   80SLPC    HS 7371   6.758   5.831   6.470 -0.1289  0.2779  2.6607
   80SLPC   O21 7372   6.625   5.980   6.535  0.0804  0.6177 -0.2818
   80SLPC   C21 7373   6.541   5.897   6.586  0.1358  0.0242 -0.3028
   80SLPC   O22 7374   6.551   5.775   6.591 -0.4113  0.3816  0.1082
   80SLPC   C22 7375   6.425   5.964   6.655 -0.3659  0.6280 -0.5158
   80SLPC   H2R 7376   6.451   6.070   6.677  2.2096 -0.0368 -0.0249
   80SLPC   H2S 7377   6.336   5.981   6.591 -1.9937  1.0339  1.7633
   80SLPC    C3 7378   6.863   6.015   6.479  0.7060 -0.7649  0.1744
   80SLPC    HX 7379   6.836   6.119   6.452 -0.8305 -1.2432 -0.2761
   80SLPC    HY 7380   6.942   5.987   6.407 -0.8029 -0.6966 -1.5866
   80SLPC   O31 7381   6.909   6.026   6.616  0.0478  0.5960 -0.2783
   80SLPC   C31 7382   6.969   5.916   6.657  0.3112  0.7022 -0.2024
   80SLPC   O32 7383   6.975   5.810   6.597 -0.0237 -0.0707  0.0424
   80SLPC   C32 7384   7.052   5.958   6.780 -0.4707  0.0506 -0.2447
   80SLPC   H2X 7385   6.988   6.026   6.840  0.1980 -1.6610  2.5866
   80SLPC   H2Y 7386   7.144   6.014   6.751  0.0142 -0.7629 -0.3374
   80SLPC   C23 7387   6.389   5.888   6.787  0.5676 -0.7668  0.3062
   80SLPC   H3R 7388   6.478   5.831   6.822 -0.5913 -1.1992  2.7356
   80SLPC   H3S 7389   6.320   5.807   6.758  0.3746 -0.6547  0.4496
   80SLPC   C24 7390   6.339   5.984   6.891  1.4123 -0.6161 -0.1933
   80SLPC   H4R 7391   6.265   6.058   6.852  1.6502 -0.5425 -0.5061
   80SLPC   H4S 7392   6.426   6.038   6.933 -0.2340  0.3632  2.1879
   80SLPC   C25 7393   6.271   5.906   7.006  0.3688 -0.0664  0.4529
   80SLPC   H5R 7394   6.342   5.828   7.041  2.8362  1.9404  0.1031
   80SLPC   H5S 7395   6.183   5.847   6.971  0.3872 -0.6998  1.4279
   80SLPC   C26 7396   6.217   5.986   7.116 -0.0251 -0.0669  0.9157
   80SLPC   H6R 7397   6.129   6.035   7.070  0.6855  0.1313 -0.2863
   80SLPC   H6S 7398   6.278   6.077   7.136  1.2904 -0.1717 -2.0055
   80SLPC   C27 7399   6.169   5.906   7.235 -0.4477 -0.0041  0.3411
   80SLPC   H7R 7400   6.084   5.846   7.197  0.7057 -1.2394 -0.3545
   80SLPC   H7S 7401   6.134   5.981   7.309 -0.2492  0.0061  0.4272
   80SLPC   C28 7402   6.276   5.811   7.296 -0.4102  0.3443 -0.0641
   80SLPC   H8R 7403   6.363   5.880   7.296 -0.4816  0.4405 -0.6750
   80SLPC   H8S 7404   6.312   5.733   7.226  0.1808  1.1478 -0.6850
   80SLPC   C29 7405   6.252   5.753   7.435  0.0212  0.0969  0.8680
   80SLPC   H9R 7406   6.146   5.735   7.457 -0.6340  0.8808 -1.3598
   80SLPC  C210 7407   6.346   5.751   7.535 -0.2052 -0.3417  0.0178
   80SLPC  H10R 7408   6.319   5.699   7.628 -1.0850 -0.6969 -0.4220
   80SLPC  C211 7409   6.488   5.802   7.526 -0.6893  0.5764 -0.1036
   80SLPC  H11R 7410   6.505   5.882   7.601 -0.2789 -0.5665  1.0454
   80SLPC  H11S 7411   6.521   5.843   7.428  2.6964 -0.7131  0.3598
   80SLPC  C212 7412   6.581   5.695   7.578  0.2178 -0.3724  0.7611
   80SLPC  H12R 7413   6.620   5.703   7.680  0.2474 -1.7362  0.8761
   80SLPC  C213 7414   6.622   5.594   7.504 -0.6340 -0.2811  0.0480
   80SLPC  H13R 7415   6.704   5.529   7.538 -0.7299 -0.3597  0.1296
   80SLPC  C214 7416   6.579   5.555   7.365  0.7916 -0.3510  0.3161
   80SLPC  H14R 7417   6.482   5.601   7.338  1.3783 -0.1554 -1.5919
   80SLPC  H14S 7418   6.566   5.445   7.362 -1.4097 -0.1082 -1.6766
   80SLPC  C215 7419   6.688   5.594   7.269 -0.2322 -0.7730  0.2660
   80SLPC  H15R 7420   6.777   5.529   7.284  0.8405  0.8096  1.0283
   80SLPC  H15S 7421   6.717   5.701   7.279  1.1993 -1.0574 -0.4890
   80SLPC  C216 7422   6.638   5.571   7.121  0.7037  0.1742  0.5614
   80SLPC  H16R 7423   6.539   5.621   7.115  0.3699 -0.5643 -0.1456
   80SLPC  H16S 7424   6.612   5.465   7.102  1.1373  0.1948 -0.1930
   80SLPC  C217 7425   6.729   5.623   7.014 -0.0859  0.4128  0.4742
   80SLPC  H17R 7426   6.831   5.596   7.050  0.5942  1.9683 -0.1992
   80SLPC  H17S 7427   6.733   5.734   7.006  1.4249  0.2556 -1.7564
   80SLPC  C218 7428   6.705   5.574   6.871  0.3335 -0.0758 -0.3760
   80SLPC  H18R 7429   6.774   5.631   6.804 -0.1613  0.7816 -0.1705
   80SLPC  H18S 7430   6.599   5.604   6.860 -0.6792 -2.0398  2.8303
   80SLPC  H18T 7431   6.709   5.463   6.870 -1.0550 -0.1364 -0.8667
   80SLPC   C33 7432   7.087   5.845   6.882  0.0166  0.1648  0.7597
   80SLPC   H3X 7433   7.161   5.774   6.839  1.3291  2.2657 -0.6577
   80SLPC   H3Y 7434   6.999   5.787   6.918 -1.0706  1.0236 -0.4435
   80SLPC   C34 7435   7.168   5.903   7.001 -0.4088 -0.1748  0.7714
   80SLPC   H4X 7436   7.109   5.924   7.093 -0.1602  0.7769  0.7238
   80SLPC   H4Y 7437   7.219   5.998   6.972 -2.3150  0.6091 -0.1928
   80SLPC   C35 7438   7.280   5.818   7.059 -0.2290 -0.2459 -0.4070
   80SLPC   H5X 7439   7.339   5.790   6.969  0.0797 -0.7106 -0.0683
   80SLPC   H5Y 7440   7.242   5.719   7.094  0.0421 -0.7208 -1.4207
   80SLPC   C36 7441   7.366   5.894   7.160  0.5280  0.2753  0.0387
   80SLPC   H6X 7442   7.377   5.998   7.122  0.4967  0.7745  1.3595
   80SLPC   H6Y 7443   7.460   5.835   7.162  0.6296  0.4554  0.7053
   80SLPC   C37 7444   7.293   5.902   7.294 -0.7039 -0.0862  0.0041
   80SLPC   H7X 7445   7.240   5.804   7.299 -2.1343  0.4313 -2.9201
   80SLPC   H7Y 7446   7.223   5.988   7.284 -0.9488 -0.0195  1.9488
   80SLPC   C38 7447   7.396   5.925   7.402 -0.0351 -0.6466 -0.5199
   80SLPC   H8X 7448   7.467   6.007   7.377 -0.3136 -0.2974 -0.1673
   80SLPC   H8Y 7449   7.464   5.838   7.409  1.5802  0.6267  0.3653
   80SLPC   C39 7450   7.328   5.961   7.534 -0.1556 -0.5408 -0.7974
   80SLPC   H9X 7451   7.241   5.894   7.547 -0.4288 -0.2701 -1.1807
   80SLPC   H9Y 7452   7.283   6.061   7.515 -0.6627 -0.9802 -2.0294
   80SLPC  C310 7453   7.422   5.949   7.651 -0.3301  0.4275  0.2299
   80SLPC  H10X 7454   7.514   6.007   7.628 -1.0967  1.7078  0.3340
   80SLPC  H10Y 7455   7.455   5.843   7.663  2.7536  0.9770 -2.1832
   80SLPC  C311 7456   7.365   6.005   7.776 -0.1737 -0.3293  1.6839
   80SLPC  H11X 7457   7.272   5.945   7.784 -0.3453 -0.6999 -1.7207
   80SLPC  H11Y 7458   7.327   6.108   7.763  0.7709 -0.1507  0.1579
   80SLPC  C312 7459   7.450   5.987   7.899  0.2836 -0.2458  0.4106
   80SLPC  H12X 7460   7.527   6.067   7.901 -1.5594  1.6425 -0.0646
   80SLPC  H12Y 7461   7.509   5.893   7.889 -1.6799 -1.4588 -0.3767
   80SLPC  C313 7462   7.381   5.987   8.044  0.2125  0.1052 -0.0529
   80SLPC  H13X 7463   7.454   5.952   8.120  1.4662  0.6209 -0.9892
   80SLPC  H13Y 7464   7.290   5.923   8.045  0.7061 -0.5966  0.6568
   80SLPC  C314 7465   7.334   6.125   8.077 -0.0406 -0.3464  0.4238
   80SLPC  H14X 7466   7.244   6.144   8.016 -1.2177  1.8420  2.6472
   80SLPC  H14Y 7467   7.411   6.204   8.062 -1.2680  1.3824  2.5916
   80SLPC  C315 7468   7.271   6.154   8.221  0.5841 -0.0024 -0.1745
   80SLPC  H15X 7469   7.255   6.264   8.221  2.4574  0.4255 -3.9160
   80SLPC  H15Y 7470   7.354   6.128   8.291 -1.4980 -0.5788  2.1984
   80SLPC  C316 7471   7.147   6.066   8.258 -1.0647 -0.0348 -0.0703
   80SLPC  H16X 7472   7.126   6.086   8.365 -0.7269  2.2984 -0.4022
   80SLPC  H16Y 7473   7.182   5.962   8.240 -1.8505 -0.3043 -0.0664
   80SLPC  C317 7474   7.019   6.099   8.179 -0.2343 -0.1450  0.4705
   80SLPC  H17X 7475   6.953   6.011   8.190  1.3438 -1.5057 -0.4309
   80SLPC  H17Y 7476   7.051   6.110   8.073  1.8264 -1.0714  0.9408
   80SLPC  C318 7477   6.948   6.232   8.222  0.5833  0.1012 -0.0387
   80SLPC  H18X 7478   6.934   6.238   8.332  0.1669 -1.3725  0.0104
   80SLPC  H18Y 7479   6.850   6.248   8.173 -0.9124 -1.3769  2.2445
   80SLPC  H18Z 7480   7.010   6.319   8.190  1.1871 -0.6518 -0.9799
   81SAPS     N 7481   2.288   0.671  11.164 -0.1436 -0.5934 -0.2654
   81SAPS   HN1 7482   2.297   0.728  11.251  3.1322 -2.1178  0.5914
   81SAPS   HN2 7483   2.383   0.629  11.154 -0.8525 -2.2045 -0.5203
   81SAPS   HN3 7484   2.266   0.721  11.076 -0.6760 -2.6767 -1.4001
   81SAPS   C12 7485   2.176   0.568  11.176  0.8476  0.8065 -0.2620
   81SAPS  H12A 7486   2.214   0.479  11.225 -0.8076  1.3529  2.2243
   81SAPS   C13 7487   2.051   0.626  11.256 -0.0535  0.0436  0.1884
   81SAPS  O13A 7488   2.055   0.731  11.329 -0.0359 -0.0596  0.3187
   81SAPS  O13B 7489   1.959   0.540  11.265 -0.3227 -0.0830  0.1119
   81SAPS   C11 7490   2.133   0.539  11.026 -0.2767 -0.5794 -0.0299
   81SAPS  H11A 7491   2.047   0.470  11.027 -0.3877 -0.4483  1.5292
   81SAPS  H11B 7492   2.223   0.492  10.980  0.1860 -0.2571  0.5294
   81SAPS     P 7493   2.012   0.673  10.840 -0.3243 -0.4034 -0.3117
   81SAPS   O13 7494   1.899   0.579  10.857  0.5818  0.5443  0.2839
   81SAPS   O14 7495   1.968   0.814  10.829 -0.7616 -0.1703 -0.2585
   81SAPS   O12 7496   2.108   0.659  10.956 -0.0860 -0.0813 -0.7479
   81SAPS   O11 7497   2.096   0.633  10.711  0.1880 -0.7013  0.3060
   81SAPS    C1 7498   2.192   0.728  10.671 -0.5006 -0.3983 -0.1702
   81SAPS    HA 7499   2.241   0.775  10.760 -2.5739  0.4407  0.5903
   81SAPS    HB 7500   2.280   0.672  10.633 -2.2334 -2.5882 -1.1294
   81SAPS    C2 7501   2.143   0.831  10.567  0.3160  0.2359  0.1305
   81SAPS    HS 7502   2.049   0.879  10.603  0.4588  0.1835  0.5811
   81SAPS   O21 7503   2.131   0.758  10.441 -0.3102 -0.0716  0.3394
   81SAPS   C21 7504   2.030   0.790  10.365 -0.4535  0.1809 -0.4187
   81SAPS   O22 7505   1.957   0.890  10.382 -0.4229 -0.0179  0.0307
   81SAPS   C22 7506   2.002   0.699  10.244 -0.7300 -0.1402 -0.4948
   81SAPS   H2R 7507   1.953   0.605  10.279 -0.2059  0.1317  1.0453
   81SAPS   H2S 7508   1.934   0.748  10.171 -2.3993  0.7905  1.5905
   81SAPS    C3 7509   2.241   0.953  10.552 -0.0602 -0.4038  0.6874
   81SAPS    HX 7510   2.246   1.019  10.641 -1.4113  1.9947 -0.9036
   81SAPS    HY 7511   2.193   1.016  10.474 -1.9456 -1.6431  0.7846
   81SAPS   O31 7512   2.375   0.914  10.513  0.3201 -0.8724 -0.1002
   81SAPS   C31 7513   2.449   1.018  10.486  0.5251 -0.3098 -0.1078
   81SAPS   O32 7514   2.417   1.133  10.468 -0.0886 -0.1690  0.5471
   81SAPS   C32 7515   2.593   0.967  10.472 -0.5123  0.5179 -0.2895
   81SAPS   H2X 7516   2.576   0.857  10.468 -1.3316  0.5018  2.1196
   81SAPS   H2Y 7517   2.658   0.986  10.560  0.2683 -2.2731 -0.1699
   81SAPS   C23 7518   2.132   0.657  10.167  0.2602 -0.0955  0.2682
   81SAPS   H3R 7519   2.098   0.596  10.080 -3.4299  0.4043  1.1724
   81SAPS   H3S 7520   2.193   0.601  10.241  1.1367  0.0321 -0.3409
   81SAPS   C24 7521   2.215   0.779  10.104  0.4535 -0.6063 -0.3031
   81SAPS   H4R 7522   2.312   0.739  10.068  1.2162  0.0077  0.9799
   81SAPS   H4S 7523   2.243   0.849  10.186 -1.3299 -0.6398  0.4026
   81SAPS   C25 7524   2.138   0.850   9.999  0.3587  0.0467  0.5912
   81SAPS   H5R 7525   2.082   0.937  10.038  1.7852  0.6717  1.3285
   81SAPS   C26 7526   2.136   0.819   9.869  0.3560 -1.3009 -0.1230
   81SAPS   H6R 7527   2.072   0.879   9.804  0.0822 -1.6011 -0.1341
   81SAPS   C27 7528   2.196   0.703   9.794  0.5034 -0.1773 -0.6699
   81SAPS   H7R 7529   2.121   0.669   9.720 -0.0074  1.1502 -0.7753
   81SAPS   H7S 7530   2.192   0.616   9.864  2.5635  1.4311  1.6353
   81SAPS   C28 7531   2.328   0.719   9.726 -0.0130  0.1978 -0.2569
   81SAPS   H8R 7532   2.411   0.693   9.793 -1.2312 -1.3484  0.7430
   81SAPS   C29 7533   2.355   0.767   9.604  0.4411  0.1953  0.1190
   81SAPS   H9R 7534   2.458   0.755   9.567  2.6999  1.6120  5.1289
   81SAPS  C210 7535   2.254   0.820   9.506  0.1298 -0.2107  0.1656
   81SAPS  H10R 7536   2.296   0.898   9.438  0.4040 -1.4963 -1.1725
   81SAPS  H10S 7537   2.172   0.878   9.555  1.2215  2.0732 -0.5639
   81SAPS  C211 7538   2.204   0.708   9.422  0.3988  0.6335  0.7008
   81SAPS  H11R 7539   2.098   0.684   9.443 -0.1516 -0.1492 -2.3681
   81SAPS  C212 7540   2.270   0.645   9.316  0.5304 -0.4889 -0.0517
   81SAPS  H12R 7541   2.210   0.577   9.255  0.8370 -0.5456 -0.2901
   81SAPS  C213 7542   2.412   0.669   9.263 -0.5192 -0.0847  0.5195
   81SAPS  H13R 7543   2.493   0.599   9.290  0.4905  0.2084 -1.5497
   81SAPS  H13S 7544   2.446   0.772   9.285  1.3458 -0.6486  0.4531
   81SAPS  C214 7545   2.415   0.658   9.113  0.4119 -0.3070  0.3553
   81SAPS  H14R 7546   2.318   0.645   9.062  1.0903 -2.0325 -0.5920
   81SAPS  C215 7547   2.530   0.670   9.037  0.1714 -0.2832 -0.3373
   81SAPS  H15R 7548   2.524   0.657   8.928  0.9357 -1.8297 -0.2253
   81SAPS  C216 7549   2.670   0.677   9.091  0.2545 -0.2695  0.0206
   81SAPS  H16R 7550   2.732   0.591   9.060  1.3351  0.2413  0.7056
   81SAPS  H16S 7551   2.670   0.682   9.202  0.3423 -0.1120  0.0131
   81SAPS  C217 7552   2.737   0.800   9.036 -0.5289  0.0627  0.3698
   81SAPS  H17R 7553   2.842   0.799   9.074 -1.0283  0.9047  1.8316
   81SAPS  H17S 7554   2.708   0.897   9.080  1.5190  0.5420  0.7625
   81SAPS  C218 7555   2.729   0.810   8.877 -0.2647 -0.2569 -0.5698
   81SAPS  H18R 7556   2.775   0.905   8.844  1.4800 -0.3192  1.4512
   81SAPS  H18S 7557   2.624   0.830   8.847 -0.2990  0.9353  0.2721
   81SAPS  C219 7558   2.808   0.704   8.800  0.0650  0.0090 -0.4028
   81SAPS  H19R 7559   2.746   0.613   8.810 -1.0763  0.6968 -1.0654
   81SAPS  H19S 7560   2.909   0.683   8.843 -0.6484  0.8169  1.7907
   81SAPS  C220 7561   2.823   0.739   8.653 -0.3436 -0.3003 -0.1808
   81SAPS  H20R 7562   2.728   0.790   8.625  0.1245  0.3111 -0.6471
   81SAPS  H20S 7563   2.833   0.648   8.589  0.9508 -1.0837  1.0812
   81SAPS  H20T 7564   2.912   0.803   8.636 -1.9398  1.3474 -3.0532
   81SAPS   C33 7565   2.656   1.014  10.343 -0.7593 -0.6713 -0.8484
   81SAPS   H3X 7566   2.762   0.980  10.352  0.8130  3.8817  0.5569
   81SAPS   H3Y 7567   2.672   1.124  10.335  1.6829 -0.7191  1.7543
   81SAPS   C34 7568   2.595   0.961  10.214  0.0098  0.0459  0.1937
   81SAPS   H4X 7569   2.505   1.025  10.201  1.2981  1.6694 -0.9543
   81SAPS   H4Y 7570   2.554   0.858  10.223  0.2321 -0.0327  0.3042
   81SAPS   C35 7571   2.687   0.972  10.090 -0.5337  0.4361 -0.1247
   81SAPS   H5X 7572   2.776   0.909  10.111  0.4979  2.0927  0.6527
   81SAPS   H5Y 7573   2.728   1.075  10.086  1.6990 -0.4240 -1.1869
   81SAPS   C36 7574   2.617   0.925   9.955 -0.7070 -1.0615  0.0872
   81SAPS   H6X 7575   2.524   0.984   9.949 -1.3361 -1.9726  0.6559
   81SAPS   H6Y 7576   2.602   0.815   9.954 -1.2120 -1.0961  2.8866
   81SAPS   C37 7577   2.711   0.970   9.841 -0.5680  0.5190 -0.7271
   81SAPS   H7X 7578   2.815   0.931   9.855 -0.8959 -0.0345  0.2904
   81SAPS   H7Y 7579   2.716   1.081   9.848 -0.8482  0.6132 -1.8242
   81SAPS   C38 7580   2.669   0.954   9.693  0.5936 -0.2559  0.5469
   81SAPS   H8X 7581   2.585   1.023   9.670 -0.2919 -1.1665  0.9799
   81SAPS   H8Y 7582   2.624   0.854   9.672 -0.7131  0.1351  1.3717
   81SAPS   C39 7583   2.779   0.987   9.598 -0.3691 -1.0593  0.1342
   81SAPS   H9X 7584   2.856   0.907   9.596  1.1386  0.3332  0.1394
   81SAPS   H9Y 7585   2.839   1.076   9.625 -0.2805 -1.1156  0.1243
   81SAPS  C310 7586   2.725   1.005   9.454 -0.1536  0.1158 -0.1843
   81SAPS  H10X 7587   2.663   1.095   9.438 -1.0001 -0.4061  0.0956
   81SAPS  H10Y 7588   2.665   0.916   9.424 -1.5913 -0.2030  3.1770
   81SAPS  C311 7589   2.840   1.024   9.353  0.1378 -0.4272 -0.9426
   81SAPS  H11X 7590   2.835   0.943   9.278  0.1382 -0.4064 -0.9647
   81SAPS  H11Y 7591   2.931   1.004   9.412 -0.8137 -1.1882  0.3082
   81SAPS  C312 7592   2.823   1.160   9.282 -0.3200  0.9910 -0.1972
   81SAPS  H12X 7593   2.924   1.188   9.245 -1.1461  1.6513 -2.0311
   81SAPS  H12Y 7594   2.797   1.241   9.353 -0.9996 -0.9426  1.8925
   81SAPS  C313 7595   2.722   1.157   9.163 -0.5804  0.0701 -0.3068
   81SAPS  H13X 7596   2.637   1.100   9.206  0.8042 -1.9466 -0.0439
   81SAPS  H13Y 7597   2.767   1.103   9.077 -0.4368 -1.1046  0.4836
   81SAPS  C314 7598   2.683   1.299   9.119  0.1633  0.7768 -0.0071
   81SAPS  H14X 7599   2.783   1.347   9.109  0.8280 -0.1856  1.8043
   81SAPS  H14Y 7600   2.631   1.346   9.205 -1.6958 -0.0998 -0.5856
   81SAPS  C315 7601   2.591   1.299   8.998 -0.0418  0.3885  0.0005
   81SAPS  H15X 7602   2.494   1.245   9.011  0.7453 -0.5899  2.2892
   81SAPS  H15Y 7603   2.655   1.235   8.933  0.8326  0.3037  0.9251
   81SAPS  C316 7604   2.580   1.435   8.937  0.1456 -0.8791  0.1596
   81SAPS  H16X 7605   2.679   1.485   8.933 -0.7289  1.5192  3.7756
   81SAPS  H16Y 7606   2.512   1.503   8.992  0.5711 -0.0895 -0.2706
   81SAPS  C317 7607   2.551   1.431   8.787  0.4823 -0.0178  0.3260
   81SAPS  H17X 7608   2.472   1.354   8.774  0.5588  0.0394 -0.5229
   81SAPS  H17Y 7609   2.643   1.415   8.726  0.8131  0.2115  0.7525
   81SAPS  C318 7610   2.504   1.569   8.748  0.0601  0.4082  0.7653
   81SAPS  H18X 7611   2.510   1.579   8.637  3.1979 -0.9097  0.6975
   81SAPS  H18Y 7612   2.570   1.648   8.789  0.6815  0.6638 -0.6556
   81SAPS  H18Z 7613   2.400   1.588   8.780 -0.2105 -2.5709  2.0297
   82SAPS     N 7614   1.904   0.315  10.753 -0.0734  0.6300  0.0948
   82SAPS   HN1 7615   1.986   0.253  10.764  0.0662  0.9171  0.7852
   82SAPS   HN2 7616   1.912   0.364  10.662  0.7378  0.3770  0.0241
   82SAPS   HN3 7617   1.909   0.390  10.826 -2.0430  1.0392 -0.1503
   82SAPS   C12 7618   1.788   0.233  10.761  0.5142 -0.4910 -0.6590
   82SAPS  H12A 7619   1.763   0.184  10.667  0.7305 -0.7432 -0.5873
   82SAPS   C13 7620   1.795   0.139  10.879 -0.3644  0.0961 -0.1425
   82SAPS  O13A 7621   1.898   0.149  10.953  0.0555  0.0193  0.2720
   82SAPS  O13B 7622   1.732   0.031  10.876  0.1530  0.5655 -0.1957
   82SAPS   C11 7623   1.673   0.319  10.786  0.1928 -0.4368 -0.4930
   82SAPS  H11A 7624   1.679   0.381  10.878 -0.6393  0.7704 -1.2229
   82SAPS  H11B 7625   1.583   0.256  10.797  0.2336 -0.3391  0.4796
   82SAPS     P 7626   1.514   0.474  10.645  0.3739 -0.2508 -0.0342
   82SAPS   O13 7627   1.441   0.360  10.588 -0.2636  0.0894  0.0931
   82SAPS   O14 7628   1.459   0.549  10.759 -0.3100 -0.3014  0.6677
   82SAPS   O12 7629   1.652   0.415  10.685 -0.2033 -0.0010  0.3717
   82SAPS   O11 7630   1.562   0.568  10.528  0.1786  0.5644  0.1230
   82SAPS    C1 7631   1.669   0.521  10.441 -0.4979  0.5073  0.0850
   82SAPS    HA 7632   1.766   0.553  10.485  1.2628 -2.0003 -1.6881
   82SAPS    HB 7633   1.682   0.411  10.438 -0.5390  0.4330  1.8049
   82SAPS    C2 7634   1.645   0.549  10.291  0.0107 -0.0309 -0.3043
   82SAPS    HS 7635   1.737   0.512  10.241  1.8950 -0.7047  3.3167
   82SAPS   O21 7636   1.619   0.683  10.265  0.1407 -0.1382  0.7635
   82SAPS   C21 7637   1.648   0.723  10.143  0.2873 -0.0274  0.2455
   82SAPS   O22 7638   1.701   0.658  10.054  0.1052 -0.2180  0.3564
   82SAPS   C22 7639   1.590   0.861  10.116 -0.0752 -0.3725 -0.1890
   82SAPS   H2R 7640   1.527   0.857  10.025  1.2801  1.1182 -1.2437
   82SAPS   H2S 7641   1.532   0.891  10.206  0.0534  1.4802 -0.6645
   82SAPS    C3 7642   1.530   0.455  10.249  0.3032  0.3946 -0.4655
   82SAPS    HX 7643   1.446   0.489  10.313  0.5662 -0.8164  0.5505
   82SAPS    HY 7644   1.547   0.349  10.276 -1.2031  0.3014  0.2103
   82SAPS   O31 7645   1.491   0.464  10.110  0.2501 -0.0299  0.0806
   82SAPS   C31 7646   1.576   0.403  10.025 -0.5391 -0.5457  0.8194
   82SAPS   O32 7647   1.673   0.341  10.058  0.6510 -0.6633 -1.0671
   82SAPS   C32 7648   1.520   0.402   9.881  0.3305 -0.2900 -0.5838
   82SAPS   H2X 7649   1.556   0.498   9.837 -1.7339  1.5180  1.3932
   82SAPS   H2Y 7650   1.409   0.408   9.873  0.2104 -2.8169 -1.7140
   82SAPS   C23 7651   1.700   0.969  10.082 -0.2866  0.2846 -0.6034
   82SAPS   H3R 7652   1.777   0.961  10.162 -1.3402  2.4576  0.7406
   82SAPS   H3S 7653   1.655   1.070  10.093  0.0031  0.4694 -1.0750
   82SAPS   C24 7654   1.758   0.958   9.938  0.7446 -0.5651 -0.6046
   82SAPS   H4R 7655   1.661   0.949   9.884 -1.2384  2.3982  2.0740
   82SAPS   H4S 7656   1.813   0.861   9.936  1.8916  0.0818 -1.6434
   82SAPS   C25 7657   1.832   1.073   9.880 -0.2804 -0.4108  0.5077
   82SAPS   H5R 7658   1.897   1.133   9.945  0.4540 -2.2793  1.5918
   82SAPS   C26 7659   1.817   1.111   9.751 -0.5699 -0.1892 -0.3082
   82SAPS   H6R 7660   1.864   1.203   9.712  0.2406  0.0680  1.2308
   82SAPS   C27 7661   1.730   1.051   9.640 -0.5415  0.1958 -0.0644
   82SAPS   H7R 7662   1.632   1.026   9.688 -0.3143  1.1123  0.9040
   82SAPS   H7S 7663   1.779   0.956   9.609  1.4642  0.8332  1.0409
   82SAPS   C28 7664   1.722   1.138   9.516  0.0724  0.6387  0.3226
   82SAPS   H8R 7665   1.626   1.173   9.475  1.8372  2.1582 -2.8708
   82SAPS   C29 7666   1.825   1.174   9.438  0.2475 -0.0226 -0.2170
   82SAPS   H9R 7667   1.818   1.228   9.342 -0.4330 -0.5663 -0.4780
   82SAPS  C210 7668   1.965   1.134   9.462 -0.0144  0.2299 -0.0406
   82SAPS  H10R 7669   1.978   1.110   9.570 -1.3065  0.4857  0.1843
   82SAPS  H10S 7670   2.035   1.214   9.429 -1.7673  2.0306  0.4502
   82SAPS  C211 7671   1.985   1.007   9.382  0.6593 -0.5302 -0.9312
   82SAPS  H11R 7672   1.922   0.921   9.408 -0.8272  0.7071 -0.2457
   82SAPS  C212 7673   2.061   0.999   9.268  0.1533 -0.2437 -0.4904
   82SAPS  H12R 7674   2.059   0.909   9.205  4.5524 -0.5132 -0.5612
   82SAPS  C213 7675   2.146   1.102   9.195 -0.1937  0.3187  0.0937
   82SAPS  H13R 7676   2.170   1.181   9.270  2.0528 -0.0456 -0.1764
   82SAPS  H13S 7677   2.089   1.153   9.114 -0.3123  1.5192  0.8904
   82SAPS  C214 7678   2.275   1.033   9.157 -0.3801  0.8433  0.3406
   82SAPS  H14R 7679   2.345   1.034   9.243 -2.2808  0.5630  1.9534
   82SAPS  C215 7680   2.307   0.970   9.038 -0.3227  0.3714 -0.0619
   82SAPS  H15R 7681   2.409   0.928   9.031 -0.6336 -0.5904  0.9263
   82SAPS  C216 7682   2.210   0.956   8.924 -0.1992 -0.5095  0.3002
   82SAPS  H16R 7683   2.108   0.989   8.954  0.2193  2.4986 -1.2194
   82SAPS  H16S 7684   2.209   0.851   8.887  1.6535 -0.0817 -1.1126
   82SAPS  C217 7685   2.244   1.042   8.796  0.3678 -0.2954 -0.0580
   82SAPS  H17R 7686   2.260   1.146   8.831 -1.6793  1.2979 -3.2941
   82SAPS  H17S 7687   2.149   1.043   8.738 -0.8849 -2.5993  1.7692
   82SAPS  C218 7688   2.359   0.986   8.716 -0.4557 -0.2610 -0.2790
   82SAPS  H18R 7689   2.363   0.876   8.700 -1.4624 -0.2577 -0.6546
   82SAPS  H18S 7690   2.455   1.015   8.763 -0.7126  0.6246 -0.2835
   82SAPS  C219 7691   2.369   1.035   8.564 -0.0017 -0.3236 -0.6260
   82SAPS  H19R 7692   2.272   1.007   8.518 -1.4154  1.1463  1.3315
   82SAPS  H19S 7693   2.452   0.984   8.509 -0.6685 -1.7858 -0.3260
   82SAPS  C220 7694   2.387   1.188   8.543 -0.2289  0.1404  0.1018
   82SAPS  H20R 7695   2.312   1.246   8.600 -0.4321  1.0785 -1.0788
   82SAPS  H20S 7696   2.391   1.206   8.434  1.5656 -1.1780 -0.0958
   82SAPS  H20T 7697   2.486   1.221   8.582 -0.1259 -0.5752  0.4632
   82SAPS   C33 7698   1.566   0.287   9.794  0.4054  0.4455  0.2144
   82SAPS   H3X 7699   1.531   0.195   9.846  2.3220 -0.6755 -0.4061
   82SAPS   H3Y 7700   1.676   0.282   9.780  0.2224  1.2219 -1.7995
   82SAPS   C34 7701   1.511   0.269   9.652  0.3617  0.1366 -0.2357
   82SAPS   H4X 7702   1.561   0.334   9.577  1.5163  0.0308  0.4183
   82SAPS   H4Y 7703   1.401   0.287   9.655  0.3228 -0.1489  0.0534
   82SAPS   C35 7704   1.520   0.125   9.587 -0.2097 -0.5654 -0.2337
   82SAPS   H5X 7705   1.474   0.049   9.654  1.6758 -1.3472  0.2232
   82SAPS   H5Y 7706   1.628   0.100   9.590 -0.3938 -1.8472 -2.2582
   82SAPS   C36 7707   1.485   0.108   9.437  0.8584  0.0208 -0.2768
   82SAPS   H6X 7708   1.506   0.007   9.395 -1.8423 -1.4905  1.6854
   82SAPS   H6Y 7709   1.547   0.175   9.374 -0.7487 -0.3362 -2.3594
   82SAPS   C37 7710   1.344   0.148   9.399  0.5288 -0.6264  0.4216
   82SAPS   H7X 7711   1.334   0.257   9.417  1.8697 -0.3471 -0.3347
   82SAPS   H7Y 7712   1.269   0.098   9.463 -0.1526  0.7328  0.7256
   82SAPS   C38 7713   1.315   0.131   9.247  0.5037 -0.5843 -0.3709
   82SAPS   H8X 7714   1.365   0.035   9.222  1.3482 -1.2094  3.2722
   82SAPS   H8Y 7715   1.364   0.218   9.199  0.0396 -0.6552 -0.9927
   82SAPS   C39 7716   1.169   0.138   9.217 -0.5817  0.4180 -0.0600
   82SAPS   H9X 7717   1.144   0.242   9.249  0.2528  0.9292 -1.0017
   82SAPS   H9Y 7718   1.114   0.059   9.272 -0.0115  1.6276  2.3830
   82SAPS  C310 7719   1.153   0.139   9.067  0.8590 -0.1222 -0.1288
   82SAPS  H10X 7720   1.173   0.040   9.020  0.6576  0.1738 -0.8457
   82SAPS  H10Y 7721   1.218   0.214   9.019  1.1962  0.1181  0.6817
   82SAPS  C311 7722   1.008   0.167   9.029  1.3766 -0.0967 -0.0254
   82SAPS  H11X 7723   0.977   0.261   9.080 -0.0819 -0.5305 -0.0650
   82SAPS  H11Y 7724   0.938   0.087   9.061 -0.4553  1.0771 -0.9257
   82SAPS  C312 7725   0.982   0.190   8.877 -0.1990  0.4728 -0.3662
   82SAPS  H12X 7726   0.875   0.180   8.849  0.1484 -1.7141 -1.1359
   82SAPS  H12Y 7727   1.034   0.108   8.823 -2.1521 -2.4214  1.9102
   82SAPS  C313 7728   1.037   0.322   8.822  0.3029  0.4965 -0.5027
   82SAPS  H13X 7729   1.147   0.332   8.835  0.0139  1.1983  1.7434
   82SAPS  H13Y 7730   0.998   0.415   8.868 -2.8698 -0.2879 -1.3877
   82SAPS  C314 7731   1.010   0.318   8.668  0.3496 -0.6202  0.5506
   82SAPS  H14X 7732   0.901   0.309   8.647  0.6480  0.1474 -1.5430
   82SAPS  H14Y 7733   1.054   0.226   8.623  0.7374 -0.1811  0.0333
   82SAPS  C315 7734   1.063   0.434   8.594  0.3458  0.2153 -0.0754
   82SAPS  H15X 7735   1.171   0.435   8.621  0.2531 -1.2263  0.4810
   82SAPS  H15Y 7736   1.000   0.521   8.622  0.0730 -0.6936  2.4188
   82SAPS  C316 7737   1.066   0.400   8.440  0.3250 -0.3332  0.8050
   82SAPS  H16X 7738   1.125   0.306   8.434  3.0435  1.3287 -0.7423
   82SAPS  H16Y 7739   1.132   0.474   8.389  0.7414 -2.0185 -1.2837
   82SAPS  C317 7740   0.929   0.387   8.375 -0.4076  0.3357  0.0199
   82SAPS  H17X 7741   0.877   0.485   8.388  1.1302  1.1547  0.3581
   82SAPS  H17Y 7742   0.867   0.308   8.423 -0.9748  0.2316 -0.8764
   82SAPS  C318 7743   0.944   0.354   8.232 -0.1021 -0.2667 -1.0096
   82SAPS  H18X 7744   1.017   0.423   8.185  1.3887  0.5494  2.1995
   82SAPS  H18Y 7745   0.851   0.351   8.171 -1.2649  0.0348  0.6592
   82SAPS  H18Z 7746   0.995   0.256   8.226  1.6135  0.4338  1.1318
   83SAPS     N 7747   3.216   1.645  10.738  0.0579  0.5716 -0.3374
   83SAPS   HN1 7748   3.183   1.548  10.755  1.0951  0.0105 -1.3591
   83SAPS   HN2 7749   3.159   1.701  10.671 -0.9824 -0.6122 -0.4866
   83SAPS   HN3 7750   3.307   1.619  10.693 -0.2219  0.1489 -0.6743
   83SAPS   C12 7751   3.243   1.716  10.863  0.4530  0.0178 -0.7000
   83SAPS  H12A 7752   3.256   1.641  10.940 -0.8209 -1.4124 -1.8098
   83SAPS   C13 7753   3.369   1.809  10.852  1.0007  0.8204 -0.4426
   83SAPS  O13A 7754   3.427   1.818  10.742  0.2271  0.1511  0.1083
   83SAPS  O13B 7755   3.415   1.864  10.955  0.4486 -0.0787 -0.7708
   83SAPS   C11 7756   3.120   1.797  10.907 -0.3683 -0.7853 -0.1126
   83SAPS  H11A 7757   3.108   1.874  10.827  2.5318 -0.6988 -0.6091
   83SAPS  H11B 7758   3.155   1.846  11.001  1.1807 -0.2890 -0.9043
   83SAPS     P 7759   2.862   1.771  10.972  0.5191 -0.1800 -0.1770
   83SAPS   O13 7760   2.777   1.672  11.043  0.0423 -0.2979 -0.4966
   83SAPS   O14 7761   2.884   1.902  11.039 -0.1158  0.6936 -0.0359
   83SAPS   O12 7762   3.007   1.712  10.942  0.2168  0.3455 -0.3179
   83SAPS   O11 7763   2.800   1.795  10.836 -0.0774  0.2190  0.1414
   83SAPS    C1 7764   2.755   1.686  10.751 -0.6978 -0.1848  0.0425
   83SAPS    HA 7765   2.738   1.592  10.808  0.1091  0.7417  1.8897
   83SAPS    HB 7766   2.658   1.723  10.711  1.1398  4.4345 -0.8174
   83SAPS    C2 7767   2.849   1.660  10.634 -0.3773 -0.1342  0.4783
   83SAPS    HS 7768   2.946   1.621  10.669 -0.1917  1.3653  1.7881
   83SAPS   O21 7769   2.874   1.790  10.564 -0.1094  0.3134  0.0975
   83SAPS   C21 7770   2.986   1.798  10.501  0.1538  0.4387  0.1940
   83SAPS   O22 7771   3.083   1.726  10.510  0.1120  0.4250 -0.3832
   83SAPS   C22 7772   2.984   1.929  10.425  0.6246 -0.7117 -0.2220
   83SAPS   H2R 7773   2.880   1.962  10.406 -0.2346 -2.1705  1.5952
   83SAPS   H2S 7774   3.026   2.001  10.498 -1.9030 -1.6017  2.2876
   83SAPS    C3 7775   2.776   1.553  10.543  0.0793 -0.1983  0.1735
   83SAPS    HX 7776   2.670   1.585  10.536 -0.3053 -1.5617 -0.4227
   83SAPS    HY 7777   2.777   1.453  10.592  0.3598  0.7686  2.2482
   83SAPS   O31 7778   2.841   1.544  10.416 -0.7107  0.2434 -0.3752
   83SAPS   C31 7779   2.785   1.455  10.336 -0.6801 -0.7394 -0.1923
   83SAPS   O32 7780   2.693   1.376  10.370 -1.2772 -0.3315  0.1408
   83SAPS   C32 7781   2.829   1.481  10.195 -0.5151  0.1731  0.6438
   83SAPS   H2X 7782   2.919   1.546  10.193  0.0535 -0.6140 -0.0558
   83SAPS   H2Y 7783   2.756   1.539  10.134  1.5673 -0.0703 -2.2938
   83SAPS   C23 7784   3.060   1.931  10.300  0.5212  0.2668  0.7133
   83SAPS   H3R 7785   3.124   1.840  10.294 -0.9539 -0.8830  1.7334
   83SAPS   H3S 7786   3.135   2.013  10.298  1.9796 -1.0274 -0.3180
   83SAPS   C24 7787   2.979   1.941  10.166 -0.5007  0.6755 -0.7811
   83SAPS   H4R 7788   3.045   1.943  10.077 -0.4846 -0.8388 -0.8345
   83SAPS   H4S 7789   2.951   2.048  10.162  3.1298  1.8575  0.9558
   83SAPS   C25 7790   2.865   1.843  10.141 -0.5452  0.1556  0.1476
   83SAPS   H5R 7791   2.795   1.841  10.226 -0.9517 -0.7873 -0.1912
   83SAPS   C26 7792   2.833   1.786  10.025 -0.0198  0.4979  0.2469
   83SAPS   H6R 7793   2.747   1.718  10.025 -0.5167  1.0807  1.8303
   83SAPS   C27 7794   2.913   1.786   9.890 -0.0418 -0.0046 -0.3479
   83SAPS   H7R 7795   2.984   1.701   9.888 -0.2435 -0.1839 -0.0553
   83SAPS   H7S 7796   2.975   1.878   9.896  2.0164 -1.4392  2.0457
   83SAPS   C28 7797   2.844   1.792   9.758  0.0913  0.7470 -0.1343
   83SAPS   H8R 7798   2.742   1.751   9.767  0.5216  0.0367  1.8351
   83SAPS   C29 7799   2.898   1.808   9.636 -0.1583 -0.7883  0.6946
   83SAPS   H9R 7800   2.838   1.785   9.546  0.2091 -0.1947  0.2859
   83SAPS  C210 7801   3.046   1.841   9.606 -0.0957  0.0042 -0.1283
   83SAPS  H10R 7802   3.095   1.771   9.534  1.4865  0.0452  0.8677
   83SAPS  H10S 7803   3.110   1.835   9.696  2.3528 -0.2162 -1.7570
   83SAPS  C211 7804   3.063   1.986   9.570  0.2923  0.2327 -0.5888
   83SAPS  H11R 7805   3.040   2.049   9.657  1.5966 -0.8279  0.5886
   83SAPS  C212 7806   3.115   2.043   9.460  0.2528  0.5244  0.0616
   83SAPS  H12R 7807   3.114   2.152   9.444 -0.1946  0.4889 -0.1706
   83SAPS  C213 7808   3.164   1.964   9.341 -0.4629 -0.5690  0.6584
   83SAPS  H13R 7809   3.077   1.924   9.285 -0.3576  0.7153 -0.4762
   83SAPS  H13S 7810   3.218   1.874   9.377 -0.2903 -0.8828 -0.3420
   83SAPS  C214 7811   3.276   2.039   9.268  0.2264 -0.1028 -0.6672
   83SAPS  H14R 7812   3.352   2.082   9.336 -0.1203 -0.1420 -0.2530
   83SAPS  C215 7813   3.303   2.046   9.136 -0.8524  0.8296 -1.2077
   83SAPS  H15R 7814   3.383   2.112   9.102 -0.4380  0.4090 -1.0684
   83SAPS  C216 7815   3.223   1.980   9.037 -0.3048 -0.9389  0.3773
   83SAPS  H16R 7816   3.137   1.919   9.073 -0.4629 -0.0765  1.5325
   83SAPS  H16S 7817   3.276   1.910   8.969 -0.1123 -1.1330  0.7301
   83SAPS  C217 7818   3.162   2.097   8.940 -0.1452 -0.4200  0.6113
   83SAPS  H17R 7819   3.251   2.159   8.914 -0.7123  0.0042 -0.3589
   83SAPS  H17S 7820   3.094   2.163   8.997  1.4402  0.3251  1.7349
   83SAPS  C218 7821   3.106   2.057   8.797  0.5261  0.0523 -0.1417
   83SAPS  H18R 7822   3.048   2.141   8.754 -0.9204  0.0539  1.6948
   83SAPS  H18S 7823   3.038   1.969   8.802  1.7221 -0.9454 -0.7316
   83SAPS  C219 7824   3.221   2.013   8.698 -0.7755  0.3152 -0.5261
   83SAPS  H19R 7825   3.262   1.926   8.754 -2.0836  1.4535  2.4159
   83SAPS  H19S 7826   3.295   2.096   8.698 -0.4533  0.0281 -1.2541
   83SAPS  C220 7827   3.183   1.967   8.558 -0.1201  0.4744  0.8912
   83SAPS  H20R 7828   3.139   2.041   8.488 -2.2449 -2.0635 -0.6210
   83SAPS  H20S 7829   3.108   1.885   8.565  0.8191 -0.5393 -0.4997
   83SAPS  H20T 7830   3.274   1.922   8.513 -1.5403 -2.2684  0.5317
   83SAPS   C33 7831   2.854   1.350  10.112 -0.0376  0.6145  0.1670
   83SAPS   H3X 7832   2.750   1.324  10.082  1.0782 -1.7263 -1.9978
   83SAPS   H3Y 7833   2.898   1.273  10.179 -0.9837  0.7524  0.9685
   83SAPS   C34 7834   2.937   1.365   9.980  0.2664  0.2310  0.3088
   83SAPS   H4X 7835   3.047   1.360   9.992  0.1549  0.2081  1.4225
   83SAPS   H4Y 7836   2.903   1.465   9.943  1.3551  0.2889 -0.6039
   83SAPS   C35 7837   2.900   1.258   9.874 -0.2424 -0.5654 -0.3220
   83SAPS   H5X 7838   2.796   1.274   9.838 -0.6893 -0.7306  0.8546
   83SAPS   H5Y 7839   2.909   1.156   9.918 -1.0285 -0.3963  0.2611
   83SAPS   C36 7840   3.002   1.273   9.758  0.0485 -0.8319 -0.0585
   83SAPS   H6X 7841   2.992   1.176   9.704 -2.1041 -0.8971  0.3614
   83SAPS   H6Y 7842   3.106   1.287   9.795  1.0878 -0.4923 -2.8538
   83SAPS   C37 7843   2.971   1.386   9.652  0.7984 -0.0145  0.0149
   83SAPS   H7X 7844   2.956   1.485   9.698 -0.2237 -0.2676  0.2607
   83SAPS   H7Y 7845   2.867   1.364   9.619  0.5587 -1.3738  1.5194
   83SAPS   C38 7846   3.076   1.399   9.543  0.3121  0.1847 -0.0681
   83SAPS   H8X 7847   3.082   1.295   9.503  0.2866 -0.6633  1.9895
   83SAPS   H8Y 7848   3.177   1.425   9.580  0.4640  1.6345 -1.4223
   83SAPS   C39 7849   3.034   1.488   9.428 -0.0241  0.1105  0.6277
   83SAPS   H9X 7850   3.036   1.592   9.465  0.3075 -0.1033  1.2257
   83SAPS   H9Y 7851   2.936   1.443   9.402  1.2451 -1.9657 -0.8952
   83SAPS  C310 7852   3.133   1.490   9.312  0.1908 -0.5793 -0.1061
   83SAPS  H10X 7853   3.091   1.547   9.226 -1.2553 -0.8094  0.4176
   83SAPS  H10Y 7854   3.158   1.388   9.276 -0.5060 -0.8111  0.0353
   83SAPS  C311 7855   3.264   1.557   9.356  0.5716 -0.2795 -0.1296
   83SAPS  H11X 7856   3.298   1.518   9.454  0.9156  1.5510  0.5222
   83SAPS  H11Y 7857   3.248   1.665   9.380  0.8307 -0.1742 -0.4294
   83SAPS  C312 7858   3.377   1.538   9.254 -0.0738  0.9874  0.9018
   83SAPS  H12X 7859   3.359   1.438   9.211  1.3226  1.6642 -1.4481
   83SAPS  H12Y 7860   3.478   1.541   9.300  0.2529  0.3792  0.2394
   83SAPS  C313 7861   3.374   1.625   9.126  0.1552  0.4093 -0.4603
   83SAPS  H13X 7862   3.348   1.730   9.153 -1.0428  0.0474 -0.1754
   83SAPS  H13Y 7863   3.277   1.599   9.079  1.6973 -2.0501 -2.5532
   83SAPS  C314 7864   3.490   1.623   9.028  0.2990 -0.2030 -0.1197
   83SAPS  H14X 7865   3.551   1.530   9.031  0.7245  0.0415 -0.7821
   83SAPS  H14Y 7866   3.553   1.712   9.045 -0.3489  1.3290 -4.3908
   83SAPS  C315 7867   3.447   1.652   8.878  0.3584  0.0655  0.3893
   83SAPS  H15X 7868   3.528   1.712   8.831 -0.8278  1.1577 -0.3685
   83SAPS  H15Y 7869   3.360   1.722   8.868  0.3298 -0.2394 -2.3196
   83SAPS  C316 7870   3.420   1.523   8.800 -0.1444 -0.4427 -0.2597
   83SAPS  H16X 7871   3.360   1.463   8.872 -1.0000 -1.2961 -1.6304
   83SAPS  H16Y 7872   3.514   1.466   8.785  1.0198  0.6304  2.3343
   83SAPS  C317 7873   3.351   1.541   8.661  0.3387 -0.2199  0.3608
   83SAPS  H17X 7874   3.414   1.603   8.593 -0.3407  0.5396  0.4132
   83SAPS  H17Y 7875   3.254   1.594   8.672  0.5093  0.2936 -0.5303
   83SAPS  C318 7876   3.323   1.402   8.603 -0.4375 -0.1055  0.2715
   83SAPS  H18X 7877   3.280   1.333   8.680  0.2364 -0.0883  0.6675
   83SAPS  H18Y 7878   3.416   1.351   8.571  0.6238  1.8941  0.0415
   83SAPS  H18Z 7879   3.259   1.409   8.513 -0.2125  0.8830  0.1813
   84SAPS     N 7880   3.912   1.509  10.605 -0.3876 -0.0898  0.2268
   84SAPS   HN1 7881   3.981   1.469  10.537 -1.2616 -1.1983 -0.0393
   84SAPS   HN2 7882   3.826   1.450  10.606  0.3789 -1.2434  0.1596
   84SAPS   HN3 7883   3.895   1.599  10.556 -0.0513 -1.3879 -2.5042
   84SAPS   C12 7884   3.963   1.534  10.742  0.2132  0.1120 -0.6033
   84SAPS  H12A 7885   4.030   1.617  10.726 -0.6973  1.1158  0.5994
   84SAPS   C13 7886   3.860   1.584  10.850  0.0916 -0.2795  0.2431
   84SAPS  O13A 7887   3.742   1.593  10.809  1.3466 -0.3125 -0.6497
   84SAPS  O13B 7888   3.896   1.614  10.968 -0.1596 -0.4109 -0.4368
   84SAPS   C11 7889   4.050   1.414  10.800  0.4655  0.2042  0.5817
   84SAPS  H11A 7890   3.988   1.323  10.788 -3.4826  2.9239 -2.4736
   84SAPS  H11B 7891   4.079   1.423  10.907  0.9871 -2.8480  0.7934
   84SAPS     P 7892   4.295   1.494  10.753 -0.4057  0.0847 -0.2893
   84SAPS   O13 7893   4.253   1.601  10.848  0.1891  0.2820 -0.7472
   84SAPS   O14 7894   4.412   1.413  10.788  0.2601  0.3766  0.5209
   84SAPS   O12 7895   4.174   1.394  10.725 -0.2304 -0.1087  0.2826
   84SAPS   O11 7896   4.329   1.558  10.615  0.3026  0.4862  0.1129
   84SAPS    C1 7897   4.298   1.470  10.502  0.0261 -0.4971  0.1181
   84SAPS    HA 7898   4.309   1.365  10.536 -1.3661 -0.7511 -0.1555
   84SAPS    HB 7899   4.192   1.491  10.478  0.3873  1.7702  0.2717
   84SAPS    C2 7900   4.383   1.483  10.374  0.3173  0.2685 -0.3829
   84SAPS    HS 7901   4.478   1.444  10.414 -0.8080 -1.1308  1.0571
   84SAPS   O21 7902   4.384   1.620  10.334  0.1709 -0.3349  0.1118
   84SAPS   C21 7903   4.500   1.668  10.287 -0.3456  0.0010  0.4660
   84SAPS   O22 7904   4.609   1.614  10.276  0.1178 -0.0909  0.1165
   84SAPS   C22 7905   4.470   1.824  10.252 -0.3366  0.3162 -0.0297
   84SAPS   H2R 7906   4.362   1.849  10.242  0.4584  3.2182 -3.3740
   84SAPS   H2S 7907   4.505   1.868  10.348  0.3832 -1.3857  0.5343
   84SAPS    C3 7908   4.328   1.396  10.263 -0.1669 -0.3269 -0.1989
   84SAPS    HX 7909   4.227   1.438  10.241 -0.0396 -0.4311 -1.0308
   84SAPS    HY 7910   4.302   1.298  10.307 -1.6490  0.4125  0.6499
   84SAPS   O31 7911   4.418   1.400  10.145 -0.0377 -0.3215 -0.4480
   84SAPS   C31 7912   4.503   1.298  10.132 -0.0637 -0.0452  0.5094
   84SAPS   O32 7913   4.533   1.213  10.218  0.0757 -0.0221  0.2350
   84SAPS   C32 7914   4.575   1.308   9.994 -1.1613 -0.1053 -0.4058
   84SAPS   H2X 7915   4.652   1.387   9.996 -1.1337 -0.1013 -1.3739
   84SAPS   H2Y 7916   4.499   1.343   9.920 -0.7773  1.4052 -0.1160
   84SAPS   C23 7917   4.553   1.879  10.134 -0.1470 -0.6217  0.0342
   84SAPS   H3R 7918   4.656   1.848  10.161 -0.5221 -0.8620  1.2726
   84SAPS   H3S 7919   4.551   1.990  10.130  3.6941 -0.4514 -2.9301
   84SAPS   C24 7920   4.507   1.819   9.999  0.3256 -0.0112 -1.2278
   84SAPS   H4R 7921   4.481   1.712  10.016  0.2903  0.5167  3.0221
   84SAPS   H4S 7922   4.591   1.813   9.926  1.8733 -1.9375  0.5617
   84SAPS   C25 7923   4.385   1.895   9.950 -0.3467 -0.7166  0.5484
   84SAPS   H5R 7924   4.308   1.913  10.027 -0.0149 -0.1001  0.7382
   84SAPS   C26 7925   4.375   1.937   9.824  0.3702  0.8334 -0.2252
   84SAPS   H6R 7926   4.286   1.988   9.785 -0.2182  0.3287  0.4417
   84SAPS   C27 7927   4.470   1.910   9.712  0.2855  0.0632 -0.2367
   84SAPS   H7R 7928   4.414   1.893   9.618  1.3485 -0.4043 -0.8102
   84SAPS   H7S 7929   4.514   1.809   9.724 -0.1826  0.0385  1.5357
   84SAPS   C28 7930   4.577   2.006   9.697  0.3130  0.2581 -0.1815
   84SAPS   H8R 7931   4.629   2.039   9.788  0.5327  2.4221 -1.0438
   84SAPS   C29 7932   4.628   2.064   9.583 -0.5787 -0.4855 -0.4644
   84SAPS   H9R 7933   4.708   2.135   9.606 -0.6799 -0.9985  1.6651
   84SAPS  C210 7934   4.589   2.050   9.437  0.7980  0.6204 -0.2885
   84SAPS  H10R 7935   4.561   1.945   9.416 -0.6947  1.2172 -1.5393
   84SAPS  H10S 7936   4.683   2.075   9.384  1.4522 -1.7014 -0.3382
   84SAPS  C211 7937   4.466   2.137   9.398  0.2581  0.5993 -0.2723
   84SAPS  H11R 7938   4.375   2.118   9.458  0.9214  1.3630  1.0244
   84SAPS  C212 7939   4.463   2.217   9.291  0.9866 -0.4751  0.3380
   84SAPS  H12R 7940   4.375   2.282   9.277  1.1926 -0.3404 -0.4250
   84SAPS  C213 7941   4.575   2.238   9.189  0.4552 -0.4358 -0.3794
   84SAPS  H13R 7942   4.652   2.158   9.199 -0.5297 -1.4523 -0.7372
   84SAPS  H13S 7943   4.626   2.333   9.218 -0.0675  0.0833 -1.1104
   84SAPS  C214 7944   4.528   2.231   9.051  0.4588 -0.7829 -0.0618
   84SAPS  H14R 7945   4.434   2.176   9.033  0.4225 -0.6788 -0.1939
   84SAPS  C215 7946   4.585   2.306   8.945 -0.3488 -0.5753 -0.1810
   84SAPS  H15R 7947   4.546   2.296   8.842  0.0016 -0.3274 -0.3397
   84SAPS  C216 7948   4.699   2.404   8.966 -0.0557  0.1079 -0.2535
   84SAPS  H16R 7949   4.745   2.403   9.067  0.2095 -0.2113 -0.3774
   84SAPS  H16S 7950   4.661   2.508   8.957 -2.0192 -0.3151  2.0152
   84SAPS  C217 7951   4.828   2.387   8.878 -0.6527  0.4276 -0.3834
   84SAPS  H17R 7952   4.850   2.279   8.876  0.1900  0.5909 -2.7844
   84SAPS  H17S 7953   4.910   2.448   8.922  0.3427 -0.3740 -1.0933
   84SAPS  C218 7954   4.803   2.447   8.744 -0.0807  0.1294  0.1080
   84SAPS  H18R 7955   4.776   2.554   8.753 -1.2690 -0.2812  2.0844
   84SAPS  H18S 7956   4.732   2.385   8.686 -1.1126  0.6129  0.8237
   84SAPS  C219 7957   4.932   2.457   8.659 -0.6527  0.5984  0.0671
   84SAPS  H19R 7958   4.979   2.357   8.644  1.7627  1.6420  0.1311
   84SAPS  H19S 7959   5.010   2.517   8.710 -0.9752  0.7572  0.3785
   84SAPS  C220 7960   4.907   2.504   8.519 -0.2981 -0.2482 -0.4000
   84SAPS  H20R 7961   4.869   2.608   8.520 -2.7687 -1.0584 -1.3580
   84SAPS  H20S 7962   4.822   2.441   8.485  0.3882 -1.8991  0.8158
   84SAPS  H20T 7963   4.987   2.489   8.443  0.3743  0.6181  0.1172
   84SAPS   C33 7964   4.646   1.180   9.958 -0.1548 -0.2673  0.3103
   84SAPS   H3X 7965   4.579   1.093   9.977  1.1415 -1.5792 -0.9215
   84SAPS   H3Y 7966   4.732   1.169  10.027  0.1193 -1.3979 -0.1896
   84SAPS   C34 7967   4.682   1.164   9.811  0.2756 -0.4798  0.0976
   84SAPS   H4X 7968   4.735   1.257   9.782 -1.7290  0.1805 -1.7369
   84SAPS   H4Y 7969   4.598   1.167   9.738 -1.3251  0.6980  1.8852
   84SAPS   C35 7970   4.785   1.044   9.781  0.6977  0.2742 -0.9097
   84SAPS   H5X 7971   4.848   1.030   9.872 -1.8795 -1.1779  0.7781
   84SAPS   H5Y 7972   4.855   1.074   9.700  1.9515 -0.6230 -0.1914
   84SAPS   C36 7973   4.716   0.905   9.749 -0.3387 -0.5086  0.0751
   84SAPS   H6X 7974   4.621   0.889   9.806 -1.8389  0.5584 -2.0013
   84SAPS   H6Y 7975   4.787   0.829   9.788  1.7405  1.3633  0.1105
   84SAPS   C37 7976   4.692   0.880   9.600 -0.4844 -0.7127  0.2818
   84SAPS   H7X 7977   4.623   0.955   9.557  1.3627 -0.5310 -2.6255
   84SAPS   H7Y 7978   4.646   0.781   9.583  2.0222 -1.6429 -1.9250
   84SAPS   C38 7979   4.825   0.882   9.523  0.7965 -0.8171 -0.2255
   84SAPS   H8X 7980   4.893   0.815   9.579  0.7100  1.3766  2.7260
   84SAPS   H8Y 7981   4.869   0.984   9.524  0.4390 -0.6625  0.0112
   84SAPS   C39 7982   4.802   0.839   9.376 -0.4376 -0.0226 -0.6090
   84SAPS   H9X 7983   4.768   0.733   9.375  0.5026 -0.4140  1.5397
   84SAPS   H9Y 7984   4.899   0.841   9.321  0.6675 -0.1997  1.2268
   84SAPS  C310 7985   4.707   0.930   9.292 -0.1826  0.2417  0.2484
   84SAPS  H10X 7986   4.742   1.034   9.305 -0.9364  0.6047 -0.4964
   84SAPS  H10Y 7987   4.605   0.915   9.333 -0.5836 -0.4550 -0.9546
   84SAPS  C311 7988   4.720   0.879   9.144 -0.3639  0.4061  0.4852
   84SAPS  H11X 7989   4.692   0.773   9.129  0.1116  0.2561  0.6395
   84SAPS  H11Y 7990   4.824   0.893   9.108 -0.0896 -1.0170  0.6500
   84SAPS  C312 7991   4.617   0.953   9.056 -0.0917 -0.4539 -0.2543
   84SAPS  H12X 7992   4.628   1.063   9.066  1.4315 -0.2994 -2.7944
   84SAPS  H12Y 7993   4.519   0.920   9.098  0.8628 -3.2822 -0.0151
   84SAPS  C313 7994   4.617   0.918   8.908 -0.2071 -0.1134 -0.2887
   84SAPS  H13X 7995   4.609   0.807   8.912  1.7466 -0.3323 -1.4236
   84SAPS  H13Y 7996   4.706   0.952   8.851  1.1513  0.9925  2.3286
   84SAPS  C314 7997   4.495   0.983   8.829  0.1194 -0.1639  0.0944
   84SAPS  H14X 7998   4.513   1.092   8.833  2.3482 -0.4849  0.2845
   84SAPS  H14Y 7999   4.396   0.953   8.870 -0.0379  0.5473  0.2507
   84SAPS  C315 8000   4.489   0.934   8.680 -0.1431 -0.2532 -0.1236
   84SAPS  H15X 8001   4.501   0.824   8.681 -1.5335 -0.4320  1.1467
   84SAPS  H15Y 8002   4.576   0.975   8.625  0.2758 -1.8705 -0.7134
   84SAPS  C316 8003   4.365   0.987   8.609  0.1475 -0.0318  0.2679
   84SAPS  H16X 8004   4.344   1.094   8.632  0.7165  0.0793  0.2703
   84SAPS  H16Y 8005   4.274   0.928   8.637  0.8063 -1.5141 -0.6075
   84SAPS  C317 8006   4.373   0.987   8.458  0.0345  0.5387  0.9836
   84SAPS  H17X 8007   4.468   1.032   8.422  0.2084  0.6492  1.5746
   84SAPS  H17Y 8008   4.297   1.057   8.416 -1.4767 -0.7029  1.5468
   84SAPS  C318 8009   4.359   0.854   8.385 -0.6415 -0.1045 -0.0535
   84SAPS  H18X 8010   4.271   0.798   8.425  0.5183 -0.8904  1.5160
   84SAPS  H18Y 8011   4.445   0.790   8.414 -0.1151  1.2259  1.4963
   84SAPS  H18Z 8012   4.360   0.867   8.275  2.0803  2.7988  0.1941
   85SAPS     N 8013   3.498   5.080  11.187  0.4358  0.7704 -0.6661
   85SAPS   HN1 8014   3.428   5.008  11.162  0.6285  0.0215  0.8115
   85SAPS   HN2 8015   3.584   5.073  11.130  0.4807 -1.2132 -0.4067
   85SAPS   HN3 8016   3.539   5.061  11.281 -0.2500  1.4494 -0.2128
   85SAPS   C12 8017   3.443   5.216  11.202 -0.5169  0.0579 -0.1671
   85SAPS  H12A 8018   3.359   5.214  11.269  2.3249  0.2716  3.7420
   85SAPS   C13 8019   3.546   5.321  11.241  0.3162 -0.2964 -0.6968
   85SAPS  O13A 8020   3.664   5.285  11.262 -0.3796  0.6444  0.3234
   85SAPS  O13B 8021   3.504   5.438  11.272 -0.4574 -0.4239 -0.5578
   85SAPS   C11 8022   3.385   5.245  11.062 -0.0789  0.2026  0.4082
   85SAPS  H11A 8023   3.337   5.345  11.069 -0.4567  0.0400  0.1264
   85SAPS  H11B 8024   3.306   5.169  11.047 -0.0539  0.0811  0.8757
   85SAPS     P 8025   3.522   5.320  10.847  0.2157 -0.3936 -0.2022
   85SAPS   O13 8026   3.511   5.464  10.887  0.2368 -0.1200 -0.2733
   85SAPS   O14 8027   3.647   5.275  10.780  0.4680 -0.4777  0.0030
   85SAPS   O12 8028   3.501   5.237  10.974  0.1720 -0.0354 -0.1600
   85SAPS   O11 8029   3.395   5.275  10.760  0.2126  0.5846 -0.7679
   85SAPS    C1 8030   3.375   5.139  10.732  0.0468  0.3659  0.2874
   85SAPS    HA 8031   3.411   5.073  10.814  0.7652 -0.8869 -1.0037
   85SAPS    HB 8032   3.264   5.127  10.735  0.0428  0.1849 -0.3770
   85SAPS    C2 8033   3.433   5.098  10.593 -0.5051 -0.3340  0.0609
   85SAPS    HS 8034   3.544   5.104  10.602 -0.3799 -1.2234 -0.6483
   85SAPS   O21 8035   3.392   5.196  10.492  0.3146 -0.2362 -0.0340
   85SAPS   C21 8036   3.277   5.181  10.438 -0.1868 -0.0808  0.1069
   85SAPS   O22 8037   3.192   5.099  10.469  0.1981  0.3130  0.5143
   85SAPS   C22 8038   3.260   5.276  10.322 -0.7595  0.4057  0.2534
   85SAPS   H2R 8039   3.274   5.381  10.356  1.5047 -0.6665  2.9660
   85SAPS   H2S 8040   3.337   5.250  10.247 -0.8203 -0.7906  0.5915
   85SAPS    C3 8041   3.411   4.950  10.557 -0.0362  0.1543  0.1993
   85SAPS    HX 8042   3.309   4.912  10.579 -0.8960  2.2149 -0.0137
   85SAPS    HY 8043   3.477   4.885  10.618  1.2144 -0.9936 -2.1915
   85SAPS   O31 8044   3.454   4.927  10.418 -0.5105 -0.4435  0.1219
   85SAPS   C31 8045   3.483   4.790  10.392 -0.8701  0.2383  0.5878
   85SAPS   O32 8046   3.481   4.701  10.475 -0.4507  0.2718  0.0412
   85SAPS   C32 8047   3.524   4.776  10.251  0.1464  0.3028 -0.2144
   85SAPS   H2X 8048   3.539   4.669  10.224  2.1428  0.4043  0.3001
   85SAPS   H2Y 8049   3.628   4.815  10.240  1.0890 -1.3964  1.8453
   85SAPS   C23 8050   3.117   5.259  10.250 -0.5259 -0.3436  0.2836
   85SAPS   H3R 8051   3.037   5.275  10.325 -0.9007 -0.6142 -0.0566
   85SAPS   H3S 8052   3.109   5.151  10.224 -2.0846 -0.0396 -0.5841
   85SAPS   C24 8053   3.105   5.345  10.126  0.1399 -0.8526  0.5363
   85SAPS   H4R 8054   3.109   5.449  10.163 -0.3931 -0.8639  0.6443
   85SAPS   H4S 8055   2.998   5.336  10.096  0.9690 -1.1244 -2.6689
   85SAPS   C25 8056   3.191   5.310  10.008 -0.0765  0.6519 -0.0335
   85SAPS   H5R 8057   3.297   5.321  10.037 -0.5694  0.8887  1.7875
   85SAPS   C26 8058   3.161   5.259   9.886  1.0703 -0.0939  0.8126
   85SAPS   H6R 8059   3.242   5.253   9.812  0.8234 -1.2657  0.6099
   85SAPS   C27 8060   3.016   5.238   9.828  0.2783 -0.2239 -0.4028
   85SAPS   H7R 8061   2.949   5.251   9.915 -1.0233  1.3997 -1.5799
   85SAPS   H7S 8062   3.007   5.130   9.801  1.6021 -0.3518 -0.4143
   85SAPS   C28 8063   2.980   5.328   9.711 -0.4113 -0.2842  0.2901
   85SAPS   H8R 8064   2.985   5.435   9.738 -0.8596 -0.2378  0.2055
   85SAPS   C29 8065   2.935   5.298   9.581  0.0048 -0.2665 -0.0632
   85SAPS   H9R 8066   2.908   5.369   9.502 -0.7438 -1.2672 -0.7457
   85SAPS  C210 8067   2.929   5.160   9.526  0.0355  0.2669  0.3504
   85SAPS  H10R 8068   2.979   5.086   9.592 -0.9282 -1.9875 -1.3190
   85SAPS  H10S 8069   2.974   5.150   9.425  1.1510 -1.1533  0.9629
   85SAPS  C211 8070   2.798   5.093   9.502  0.8867 -0.4779 -0.5069
   85SAPS  H11R 8071   2.765   5.021   9.578  2.8663  0.1537  1.0183
   85SAPS  C212 8072   2.713   5.125   9.403  0.6088 -0.2230  0.2242
   85SAPS  H12R 8073   2.614   5.078   9.394  0.1587  1.0706 -4.9120
   85SAPS  C213 8074   2.723   5.228   9.295  0.1245 -0.3790  0.8995
   85SAPS  H13R 8075   2.760   5.321   9.342 -1.7450 -0.1854  2.0716
   85SAPS  H13S 8076   2.626   5.258   9.251 -0.0178 -1.3200  0.5452
   85SAPS  C214 8077   2.815   5.193   9.182  0.0467  0.0864  0.2369
   85SAPS  H14R 8078   2.844   5.086   9.185 -0.3913 -0.0244  0.8004
   85SAPS  C215 8079   2.871   5.276   9.095  0.0712  0.1877 -0.0121
   85SAPS  H15R 8080   2.918   5.236   9.005 -0.8565  0.7163 -0.7525
   85SAPS  C216 8081   2.846   5.422   9.082 -0.9530 -0.3050 -0.2745
   85SAPS  H16R 8082   2.790   5.471   9.165 -0.7505  0.1088 -0.3794
   85SAPS  H16S 8083   2.777   5.442   8.998  1.0166  2.8246 -1.2863
   85SAPS  C217 8084   2.972   5.508   9.046 -0.5771  0.6021 -0.1471
   85SAPS  H17R 8085   3.040   5.434   8.998  0.1170 -0.4939  2.3441
   85SAPS  H17S 8086   3.023   5.535   9.142 -1.0753 -0.8107  0.5400
   85SAPS  C218 8087   2.935   5.619   8.953 -0.3927  0.3605  0.0459
   85SAPS  H18R 8088   2.865   5.689   9.003  0.4525  3.0882 -2.2708
   85SAPS  H18S 8089   2.888   5.575   8.863 -0.6342 -1.2454  0.9323
   85SAPS  C219 8090   3.055   5.700   8.913 -0.1615 -0.1782  0.2516
   85SAPS  H19R 8091   3.117   5.720   9.004 -0.2477 -1.3829  0.5961
   85SAPS  H19S 8092   3.028   5.800   8.873  2.4566  0.9354  1.0369
   85SAPS  C220 8093   3.132   5.628   8.809  0.2008  0.4468  0.2335
   85SAPS  H20R 8094   3.235   5.669   8.811  0.2439  0.3297  2.1116
   85SAPS  H20S 8095   3.074   5.634   8.715  0.2088  1.7396  0.2920
   85SAPS  H20T 8096   3.144   5.517   8.811 -1.3461  0.1975 -1.4782
   85SAPS   C33 8097   3.429   4.846  10.147 -0.5244 -0.2040  0.2147
   85SAPS   H3X 8098   3.469   4.828  10.045  0.0822 -0.8553  0.5545
   85SAPS   H3Y 8099   3.419   4.952  10.179 -0.3715  0.0176 -0.4583
   85SAPS   C34 8100   3.288   4.798  10.146  0.7736  0.1154  0.2110
   85SAPS   H4X 8101   3.235   4.835  10.236 -1.1453  1.3487 -1.3598
   85SAPS   H4Y 8102   3.272   4.688  10.155 -0.7757  0.4653  2.5008
   85SAPS   C35 8103   3.205   4.847  10.029  1.0386 -0.4614  0.1911
   85SAPS   H5X 8104   3.198   4.956  10.013  0.5465 -0.6103 -0.6896
   85SAPS   H5Y 8105   3.103   4.813  10.058  0.0192 -0.0112 -2.5066
   85SAPS   C36 8106   3.240   4.804   9.888  0.2524 -0.1656  0.1441
   85SAPS   H6X 8107   3.278   4.699   9.894 -0.5932 -0.4115  1.5332
   85SAPS   H6Y 8108   3.320   4.870   9.848  2.3253 -1.5712  1.7560
   85SAPS   C37 8109   3.125   4.810   9.779 -0.4321 -0.3872 -0.3768
   85SAPS   H7X 8110   3.106   4.919   9.782  2.2602  0.1637 -0.9473
   85SAPS   H7Y 8111   3.033   4.749   9.788 -1.2337  0.4154 -2.4420
   85SAPS   C38 8112   3.184   4.762   9.644  0.4638 -0.5598 -0.0194
   85SAPS   H8X 8113   3.204   4.655   9.665  2.3246  0.0935  1.9845
   85SAPS   H8Y 8114   3.282   4.807   9.616  0.7515 -1.2016 -0.0601
   85SAPS   C39 8115   3.073   4.773   9.539  0.1417  0.4920  0.0408
   85SAPS   H9X 8116   3.062   4.880   9.512  0.7897  0.5799  0.1008
   85SAPS   H9Y 8117   2.976   4.739   9.581 -0.0782  0.9566 -0.0877
   85SAPS  C310 8118   3.098   4.701   9.400 -0.7872 -0.4061 -0.7577
   85SAPS  H10X 8119   3.083   4.592   9.421  0.4574 -0.5716 -0.6824
   85SAPS  H10Y 8120   3.205   4.703   9.373 -0.3991  0.2935  0.7302
   85SAPS  C311 8121   3.003   4.744   9.289  0.0157 -0.4786  0.2318
   85SAPS  H11X 8122   3.006   4.855   9.288  2.9095 -0.4755  0.6434
   85SAPS  H11Y 8123   2.900   4.704   9.303 -0.1896 -1.1279 -2.5082
   85SAPS  C312 8124   3.040   4.693   9.155  0.0907  0.0584 -0.5602
   85SAPS  H12X 8125   3.063   4.584   9.159  0.2947 -0.1208 -3.6950
   85SAPS  H12Y 8126   3.138   4.732   9.122  0.4879  0.9251  1.5106
   85SAPS  C313 8127   2.931   4.705   9.049  0.0584  0.3078 -0.0147
   85SAPS  H13X 8128   2.944   4.802   8.996  2.2362  0.0930  0.0177
   85SAPS  H13Y 8129   2.825   4.706   9.081  0.2008  0.8854  0.4625
   85SAPS  C314 8130   2.962   4.599   8.935 -0.0794  0.3467 -1.0247
   85SAPS  H14X 8131   2.922   4.501   8.969 -0.8016  0.5704 -1.1957
   85SAPS  H14Y 8132   3.071   4.585   8.921  0.4082  1.1947  1.4643
   85SAPS  C315 8133   2.886   4.641   8.813 -0.3422  1.1844 -0.1933
   85SAPS  H15X 8134   2.928   4.739   8.780  1.4309  0.9333  1.1613
   85SAPS  H15Y 8135   2.778   4.656   8.833 -0.9170 -3.3055  0.9880
   85SAPS  C316 8136   2.899   4.538   8.706 -0.3399 -0.1092  1.0581
   85SAPS  H16X 8137   2.851   4.444   8.740 -3.0419  1.1068  0.8497
   85SAPS  H16Y 8138   3.008   4.523   8.693 -0.1654  3.1887 -3.9804
   85SAPS  C317 8139   2.830   4.583   8.579 -0.3401  0.3287  0.2124
   85SAPS  H17X 8140   2.902   4.542   8.505  1.9640 -1.3247  3.1270
   85SAPS  H17Y 8141   2.823   4.694   8.582  0.3675  0.3704  3.3787
   85SAPS  C318 8142   2.687   4.534   8.578  0.7482  0.0673  0.0509
   85SAPS  H18X 8143   2.619   4.576   8.656 -0.6479  0.4023 -1.2982
   85SAPS  H18Y 8144   2.685   4.424   8.571  1.8435  0.0339  0.0740
   85SAPS  H18Z 8145   2.630   4.581   8.495 -1.4560  0.8640  1.8915
   86SAPS     N 8146   3.115   4.181  11.188  0.1020  0.3822  0.2229
   86SAPS   HN1 8147   3.152   4.181  11.285  1.0414 -0.2314 -0.1202
   86SAPS   HN2 8148   3.195   4.169  11.123 -0.3505 -1.8751  0.0115
   86SAPS   HN3 8149   3.057   4.264  11.163 -3.6318 -2.5736 -2.1741
   86SAPS   C12 8150   3.017   4.062  11.169  0.0440  0.2182  0.4772
   86SAPS  H12A 8151   3.071   3.970  11.185  1.7233  1.3793  1.8174
   86SAPS   C13 8152   2.895   4.059  11.257 -0.0355  0.5174  0.7821
   86SAPS  O13A 8153   2.892   4.135  11.359  0.4225 -0.1270  0.5806
   86SAPS  O13B 8154   2.809   3.962  11.242  0.5157 -0.5190 -0.2790
   86SAPS   C11 8155   2.977   4.062  11.014  0.3494  0.3041 -0.6877
   86SAPS  H11A 8156   2.892   3.991  11.006  1.4056 -0.8691 -1.9831
   86SAPS  H11B 8157   3.064   4.020  10.960  0.2262  0.6694 -1.1707
   86SAPS     P 8158   2.821   4.218  10.866  0.1238  0.1287 -0.1718
   86SAPS   O13 8159   2.702   4.205  10.959 -0.2959  0.3309 -0.1508
   86SAPS   O14 8160   2.840   4.349  10.798  0.0651  0.2392 -0.0506
   86SAPS   O12 8161   2.948   4.192  10.954  1.0434 -0.6552 -0.4706
   86SAPS   O11 8162   2.823   4.108  10.758 -0.3706  0.5948  0.0460
   86SAPS    C1 8163   2.929   4.083  10.662 -0.5667  0.3764 -0.6672
   86SAPS    HA 8164   2.989   4.173  10.636  0.0540  0.4008  0.7490
   86SAPS    HB 8165   2.994   3.999  10.697  2.3402  2.3642 -0.8809
   86SAPS    C2 8166   2.889   4.029  10.524 -0.2621  0.3044 -0.1071
   86SAPS    HS 8167   2.983   3.998  10.474  1.8300  2.8494  1.9330
   86SAPS   O21 8168   2.829   4.136  10.449  0.2335  0.0713  0.2574
   86SAPS   C21 8169   2.916   4.198  10.376  0.4111 -0.2041  0.0491
   86SAPS   O22 8170   3.038   4.191  10.379 -0.2258 -0.5789  0.5050
   86SAPS   C22 8171   2.856   4.304  10.286  0.6381  0.3565 -0.2855
   86SAPS   H2R 8172   2.771   4.261  10.229 -0.8348  2.6920  0.0155
   86SAPS   H2S 8173   2.804   4.378  10.350  1.0322  0.4080 -0.0194
   86SAPS    C3 8174   2.798   3.910  10.532  0.2052  0.2993 -0.2743
   86SAPS    HX 8175   2.692   3.927  10.561  0.3636 -0.6406  0.9659
   86SAPS    HY 8176   2.846   3.838  10.602 -0.5932 -0.2990 -0.3176
   86SAPS   O31 8177   2.799   3.853  10.399 -0.3399 -0.3622 -0.2475
   86SAPS   C31 8178   2.769   3.723  10.399 -0.3656  0.0526 -0.9963
   86SAPS   O32 8179   2.747   3.654  10.499  0.0089 -0.3466  0.2697
   86SAPS   C32 8180   2.783   3.672  10.256 -0.1580  0.1583 -0.2594
   86SAPS   H2X 8181   2.889   3.650  10.231  0.4321  1.8060  0.6198
   86SAPS   H2Y 8182   2.755   3.753  10.185 -3.3530 -1.1063 -0.6287
   86SAPS   C23 8183   2.961   4.368  10.188 -0.2435 -0.1670 -0.5089
   86SAPS   H3R 8184   2.987   4.307  10.099  1.3511  0.9191 -0.8402
   86SAPS   H3S 8185   3.060   4.380  10.237 -0.4186  0.0383 -0.1974
   86SAPS   C24 8186   2.935   4.512  10.134  0.3845  0.2961 -0.6491
   86SAPS   H4R 8187   3.015   4.532  10.059  1.8019  2.5379  1.3140
   86SAPS   H4S 8188   2.960   4.568  10.226 -0.4268 -1.5547  0.7675
   86SAPS   C25 8189   2.800   4.545  10.084 -0.2500  0.3505  0.7265
   86SAPS   H5R 8190   2.726   4.586  10.154 -1.1449 -1.5765  0.9569
   86SAPS   C26 8191   2.758   4.539   9.954  0.5413  0.2759 -0.2581
   86SAPS   H6R 8192   2.660   4.581   9.927  0.1065 -1.7736 -2.0711
   86SAPS   C27 8193   2.840   4.494   9.841  0.1157  0.9988 -0.0680
   86SAPS   H7R 8194   2.946   4.472   9.866  1.0302  3.4193 -1.5007
   86SAPS   H7S 8195   2.851   4.586   9.780 -0.3636 -0.4737 -2.5658
   86SAPS   C28 8196   2.773   4.389   9.754 -0.0927  0.0645 -0.4842
   86SAPS   H8R 8197   2.754   4.288   9.795  1.0463 -0.8923 -2.2149
   86SAPS   C29 8198   2.741   4.403   9.627  0.3850 -0.2073  0.8425
   86SAPS   H9R 8199   2.695   4.315   9.579 -0.6053  2.6309 -4.1643
   86SAPS  C210 8200   2.763   4.529   9.539  0.1314  0.3267  0.2421
   86SAPS  H10R 8201   2.862   4.532   9.489 -0.3211  1.7999 -0.6446
   86SAPS  H10S 8202   2.761   4.625   9.595 -1.9445  0.8236 -0.5954
   86SAPS  C211 8203   2.667   4.529   9.425 -0.7548  0.0206  0.3302
   86SAPS  H11R 8204   2.680   4.440   9.362  4.4530  0.4840  0.3488
   86SAPS  C212 8205   2.585   4.623   9.379 -0.5129  0.8395  0.2754
   86SAPS  H12R 8206   2.513   4.600   9.300  0.6255 -2.4493  0.0607
   86SAPS  C213 8207   2.577   4.767   9.433  0.1470  0.1423 -0.3041
   86SAPS  H13R 8208   2.659   4.821   9.380  0.1472  0.2935 -0.1511
   86SAPS  H13S 8209   2.595   4.761   9.543 -1.3446 -1.7293 -0.1077
   86SAPS  C214 8210   2.435   4.819   9.411  0.3043 -0.0792  0.2659
   86SAPS  H14R 8211   2.369   4.801   9.497  0.7573  2.2059  1.1888
   86SAPS  C215 8212   2.385   4.886   9.302 -0.1894 -0.2169 -0.3253
   86SAPS  H15R 8213   2.281   4.919   9.301 -0.0787  0.1822  0.4415
   86SAPS  C216 8214   2.478   4.927   9.190  0.2712  0.2017 -0.0569
   86SAPS  H16R 8215   2.584   4.918   9.220 -0.5441 -1.0348  2.8384
   86SAPS  H16S 8216   2.456   5.031   9.158  0.7924 -0.0875 -1.4130
   86SAPS  C217 8217   2.455   4.849   9.062 -0.2076  0.0395  0.3200
   86SAPS  H17R 8218   2.351   4.832   9.028  0.2345 -2.5784  0.0847
   86SAPS  H17S 8219   2.489   4.743   9.069  1.0594  0.2239 -2.0031
   86SAPS  C218 8220   2.548   4.894   8.954  0.1809  0.1839 -0.1814
   86SAPS  H18R 8221   2.650   4.893   8.998 -0.2634 -0.6497  0.8570
   86SAPS  H18S 8222   2.543   4.999   8.918 -1.7588 -0.1212 -0.9220
   86SAPS  C219 8223   2.540   4.807   8.828  0.6839 -0.3284  0.3928
   86SAPS  H19R 8224   2.431   4.815   8.808  1.2171  2.6345 -2.1291
   86SAPS  H19S 8225   2.570   4.706   8.862 -0.3946 -0.5347  0.7773
   86SAPS  C220 8226   2.609   4.867   8.713  0.5936 -0.1807  0.0346
   86SAPS  H20R 8227   2.713   4.890   8.744  0.1430  0.5126  1.0660
   86SAPS  H20S 8228   2.566   4.968   8.695  0.0654 -0.1987  1.1670
   86SAPS  H20T 8229   2.603   4.803   8.622  0.3091  0.2065 -0.2251
   86SAPS   C33 8230   2.694   3.547  10.233  0.2612  0.0070  0.0436
   86SAPS   H3X 8231   2.599   3.594  10.198  1.2264  1.6958 -0.4327
   86SAPS   H3Y 8232   2.671   3.501  10.331 -0.3826 -0.3441 -0.2657
   86SAPS   C34 8233   2.738   3.447  10.129  0.2513 -0.0161  0.9509
   86SAPS   H4X 8234   2.665   3.363  10.125  1.6522 -1.2057 -1.0315
   86SAPS   H4Y 8235   2.832   3.396  10.158  2.4934  3.7197  0.8335
   86SAPS   C35 8236   2.751   3.507   9.985 -0.6731  0.4560  0.3236
   86SAPS   H5X 8237   2.822   3.592   9.989  0.4500 -0.3097 -1.8773
   86SAPS   H5Y 8238   2.650   3.536   9.948 -1.0672 -2.3833 -1.0829
   86SAPS   C36 8239   2.806   3.413   9.874  0.1622 -0.4713 -0.3657
   86SAPS   H6X 8240   2.739   3.324   9.868  0.1252 -0.4639 -0.0583
   86SAPS   H6Y 8241   2.912   3.386   9.892  1.2244  3.1348 -0.4420
   86SAPS   C37 8242   2.782   3.486   9.737 -0.4290 -0.0642 -0.0723
   86SAPS   H7X 8243   2.806   3.594   9.747 -0.7391 -0.0281  0.3174
   86SAPS   H7Y 8244   2.678   3.470   9.701  0.2551  1.2305 -2.9256
   86SAPS   C38 8245   2.880   3.436   9.626  0.0202  0.1093  0.0701
   86SAPS   H8X 8246   2.859   3.327   9.618  1.0114 -0.0326 -0.7476
   86SAPS   H8Y 8247   2.985   3.453   9.659 -0.2594  1.8968  0.1310
   86SAPS   C39 8248   2.849   3.508   9.495  0.2867  0.3811  0.5720
   86SAPS   H9X 8249   2.883   3.613   9.513  1.0603  0.4548 -1.1235
   86SAPS   H9Y 8250   2.739   3.502   9.480  0.3528  0.8507 -0.2112
   86SAPS  C310 8251   2.904   3.466   9.367  0.2966  0.2777  0.2320
   86SAPS  H10X 8252   2.852   3.375   9.331  0.0968  0.7161 -0.6258
   86SAPS  H10Y 8253   3.015   3.461   9.370  0.4369  1.5721 -1.1563
   86SAPS  C311 8254   2.876   3.575   9.262  0.6559 -0.3439 -0.2498
   86SAPS  H11X 8255   2.919   3.671   9.300 -0.6671  0.2224 -0.1043
   86SAPS  H11Y 8256   2.771   3.607   9.240  0.8050  0.9160  0.6919
   86SAPS  C312 8257   2.949   3.540   9.128 -0.1482  0.6893  0.1985
   86SAPS  H12X 8258   2.901   3.447   9.090 -0.6939  1.0828 -0.0910
   86SAPS  H12Y 8259   3.055   3.509   9.142 -0.6973 -2.6589 -1.8068
   86SAPS  C313 8260   2.932   3.647   9.021 -0.2366  0.2422 -0.2290
   86SAPS  H13X 8261   2.972   3.742   9.061 -1.3721  1.0911 -1.0320
   86SAPS  H13Y 8262   2.825   3.655   8.992 -0.4060 -0.6929  0.0938
   86SAPS  C314 8263   3.011   3.613   8.896  0.3491 -0.9980 -0.4439
   86SAPS  H14X 8264   2.969   3.532   8.834 -0.1639  0.0929 -1.5652
   86SAPS  H14Y 8265   3.118   3.590   8.918 -0.0047 -0.4772  2.1659
   86SAPS  C315 8266   3.002   3.735   8.799  0.4124 -0.5387 -0.4205
   86SAPS  H15X 8267   3.016   3.829   8.856  5.0858 -1.3304  0.1229
   86SAPS  H15Y 8268   2.901   3.732   8.753  0.5722  1.4474 -0.9604
   86SAPS  C316 8269   3.103   3.719   8.685 -0.6202 -0.3258  0.2951
   86SAPS  H16X 8270   3.078   3.620   8.641 -3.2931  0.0874  0.7147
   86SAPS  H16Y 8271   3.205   3.738   8.725 -0.9661  1.0664  0.5757
   86SAPS  C317 8272   3.087   3.823   8.574  0.6199  0.4128  0.8385
   86SAPS  H17X 8273   3.063   3.927   8.603  1.3747  1.5711 -2.2566
   86SAPS  H17Y 8274   2.990   3.791   8.529  1.3557 -1.1706  0.3113
   86SAPS  C318 8275   3.196   3.820   8.464  0.9869 -0.4165 -0.4652
   86SAPS  H18X 8276   3.295   3.838   8.510 -0.4027 -1.1677  3.1654
   86SAPS  H18Y 8277   3.171   3.901   8.393 -0.0669 -0.9835 -0.7659
   86SAPS  H18Z 8278   3.217   3.736   8.395 -0.0161  1.7621 -3.6519
   87SAPS     N 8279   5.094   3.895  10.739  0.2556 -0.0961  0.3590
   87SAPS   HN1 8280   4.995   3.885  10.708  0.0072 -1.3892  1.4930
   87SAPS   HN2 8281   5.153   3.969  10.696 -0.3472 -1.2790 -2.8380
   87SAPS   HN3 8282   5.149   3.807  10.747 -1.1384 -1.0608 -0.2108
   87SAPS   C12 8283   5.087   3.936  10.889  0.5201 -0.6597 -1.0105
   87SAPS  H12A 8284   5.040   3.855  10.943  1.0521  0.2005  0.8177
   87SAPS   C13 8285   5.221   3.958  10.959  0.0539 -0.4258 -0.4940
   87SAPS  O13A 8286   5.334   3.933  10.907  0.2353  0.5259 -0.7092
   87SAPS  O13B 8287   5.217   3.991  11.084  0.3354  0.2764 -0.3095
   87SAPS   C11 8288   4.998   4.074  10.890 -0.1335 -0.0874  0.5941
   87SAPS  H11A 8289   5.052   4.148  10.828 -1.8868  1.4918  0.8562
   87SAPS  H11B 8290   5.004   4.125  10.989 -0.7149 -0.3801  0.7932
   87SAPS     P 8291   4.755   4.152  10.837  0.2218 -0.0936  0.0409
   87SAPS   O13 8292   4.625   4.091  10.812  0.7601 -0.3242 -0.3059
   87SAPS   O14 8293   4.761   4.247  10.950 -0.6262 -0.2616 -0.1504
   87SAPS   O12 8294   4.863   4.041  10.863 -0.1569  0.4137 -0.3677
   87SAPS   O11 8295   4.798   4.234  10.705 -0.6266  0.0148 -0.3688
   87SAPS    C1 8296   4.752   4.193  10.572 -0.8961 -0.1869 -0.4112
   87SAPS    HA 8297   4.696   4.097  10.573 -0.1620 -0.6788  2.5402
   87SAPS    HB 8298   4.688   4.271  10.525  0.2452  0.2193 -1.3417
   87SAPS    C2 8299   4.870   4.186  10.478  0.2828  0.9286  0.7886
   87SAPS    HS 8300   4.940   4.106  10.510 -0.1705  0.1521 -0.1087
   87SAPS   O21 8301   4.915   4.318  10.449 -0.3932 -0.1938 -0.0926
   87SAPS   C21 8302   5.036   4.335  10.402 -0.8284  0.0850  0.6203
   87SAPS   O22 8303   5.128   4.249  10.404  0.3390  0.3075  0.0957
   87SAPS   C22 8304   5.043   4.470  10.325  0.3069  0.1125 -0.4092
   87SAPS   H2R 8305   4.957   4.464  10.254  1.2782 -0.3712 -1.5859
   87SAPS   H2S 8306   5.033   4.551  10.399 -1.4495 -0.5011  0.0893
   87SAPS    C3 8307   4.816   4.142  10.335  0.3409  0.1859 -0.1377
   87SAPS    HX 8308   4.752   4.224  10.297  1.7693  1.6291  0.4711
   87SAPS    HY 8309   4.749   4.059  10.368 -0.3072  1.2268  1.3047
   87SAPS   O31 8310   4.907   4.102  10.241  0.3564 -0.0875  0.2645
   87SAPS   C31 8311   4.965   3.988  10.260  0.6021  0.2262  0.8413
   87SAPS   O32 8312   4.933   3.903  10.340 -0.2279  0.3240  0.5452
   87SAPS   C32 8313   5.096   3.976  10.179  0.4223  0.6027  0.4189
   87SAPS   H2X 8314   5.112   3.872  10.143  2.0420  1.4907 -1.6774
   87SAPS   H2Y 8315   5.179   3.995  10.250  0.3527 -0.0136  0.6696
   87SAPS   C23 8316   5.165   4.479  10.230  0.4912 -0.0795  0.2839
   87SAPS   H3R 8317   5.147   4.406  10.148 -3.0107  0.7180  0.1915
   87SAPS   H3S 8318   5.259   4.452  10.283 -0.9120 -1.4844  2.1731
   87SAPS   C24 8319   5.163   4.612  10.151 -0.0392  0.7241  0.1452
   87SAPS   H4R 8320   5.199   4.698  10.211 -0.4985  2.6617 -2.1799
   87SAPS   H4S 8321   5.060   4.635  10.116 -1.0087  0.3706  2.6013
   87SAPS   C25 8322   5.265   4.591  10.036 -0.3173 -0.4093 -0.2406
   87SAPS   H5R 8323   5.363   4.549  10.063  0.0729 -0.1269 -1.1791
   87SAPS   C26 8324   5.239   4.610   9.903  0.3119  0.2100 -0.8369
   87SAPS   H6R 8325   5.328   4.595   9.841 -0.6189  2.7261 -2.9586
   87SAPS   C27 8326   5.114   4.667   9.841  0.4881  1.6965  0.8277
   87SAPS   H7R 8327   5.130   4.774   9.819 -0.1775  1.6098 -0.1676
   87SAPS   H7S 8328   5.022   4.665   9.904 -1.4298  0.7017 -1.7970
   87SAPS   C28 8329   5.082   4.586   9.714 -0.6440 -0.4865 -0.1910
   87SAPS   H8R 8330   5.036   4.488   9.729 -0.1534 -0.7813 -0.5881
   87SAPS   C29 8331   5.095   4.628   9.589 -0.5106 -0.6572  0.4218
   87SAPS   H9R 8332   5.084   4.554   9.508  0.6717  0.8675 -1.1924
   87SAPS  C210 8333   5.149   4.769   9.549  0.0006  0.4973 -0.3324
   87SAPS  H10R 8334   5.145   4.833   9.641 -0.3842 -0.5654  0.4092
   87SAPS  H10S 8335   5.075   4.815   9.480 -1.7277 -1.2021  0.2841
   87SAPS  C211 8336   5.288   4.778   9.500  0.4216  0.2591  0.6129
   87SAPS  H11R 8337   5.361   4.767   9.581  1.5202  0.2324 -0.3651
   87SAPS  C212 8338   5.329   4.780   9.376 -0.1790 -0.0722  0.0517
   87SAPS  H12R 8339   5.434   4.795   9.349 -0.4966  0.4522 -0.9605
   87SAPS  C213 8340   5.236   4.776   9.255 -0.0402 -0.0954  0.0591
   87SAPS  H13R 8341   5.140   4.724   9.277 -1.5021  0.5940 -3.8689
   87SAPS  H13S 8342   5.281   4.714   9.174 -2.6842 -2.0176 -0.0770
   87SAPS  C214 8343   5.204   4.910   9.209  0.0622  0.3244 -0.0902
   87SAPS  H14R 8344   5.111   4.951   9.251  0.5873  1.4958 -0.0480
   87SAPS  C215 8345   5.275   4.975   9.127  0.0908  0.6951  1.0684
   87SAPS  H15R 8346   5.248   5.073   9.084 -0.3193 -0.6593 -2.0620
   87SAPS  C216 8347   5.391   4.910   9.055 -0.4693 -0.8735  0.0853
   87SAPS  H16R 8348   5.366   4.811   9.013  1.9004 -1.2578 -0.5819
   87SAPS  H16S 8349   5.478   4.903   9.123  0.1811  0.5677 -0.5574
   87SAPS  C217 8350   5.445   4.995   8.932 -0.5431 -0.3121 -0.4201
   87SAPS  H17R 8351   5.531   4.943   8.885  0.0883  1.6093 -1.4910
   87SAPS  H17S 8352   5.486   5.093   8.968 -1.1260 -0.2710  0.1403
   87SAPS  C218 8353   5.338   5.009   8.817 -0.5200  0.5411  0.1629
   87SAPS  H18R 8354   5.261   5.088   8.831 -1.7717 -0.7442  0.7419
   87SAPS  H18S 8355   5.281   4.914   8.816 -2.5298  1.6819  0.5648
   87SAPS  C219 8356   5.414   5.017   8.683 -0.0160  0.6087  0.6781
   87SAPS  H19R 8357   5.491   4.937   8.676 -0.3474  0.4627 -2.5709
   87SAPS  H19S 8358   5.468   5.113   8.670 -2.2007  1.5268 -3.1341
   87SAPS  C220 8359   5.310   4.993   8.571  0.7077 -0.2746  0.0462
   87SAPS  H20R 8360   5.277   4.888   8.582 -1.2259  0.2532 -0.2934
   87SAPS  H20S 8361   5.353   5.013   8.471  0.7400 -1.0049 -0.0867
   87SAPS  H20T 8362   5.223   5.060   8.587  2.0947  1.7249 -0.3963
   87SAPS   C33 8363   5.121   4.089  10.069  0.0513  0.9992 -0.2624
   87SAPS   H3X 8364   5.092   4.191  10.101  0.7687  1.9584 -2.4764
   87SAPS   H3Y 8365   5.058   4.063   9.981 -3.0646 -0.6312  2.2138
   87SAPS   C34 8366   5.279   4.082  10.046 -0.0358 -0.4473  0.1402
   87SAPS   H4X 8367   5.311   3.978  10.023 -1.3196 -0.6086 -1.0932
   87SAPS   H4Y 8368   5.329   4.105  10.142 -0.5951  0.9451  0.1099
   87SAPS   C35 8369   5.326   4.184   9.940 -0.2465  0.2359  0.3711
   87SAPS   H5X 8370   5.433   4.160   9.923  0.2553  1.4355  1.6460
   87SAPS   H5Y 8371   5.324   4.286   9.984  0.7851  1.1666 -1.6344
   87SAPS   C36 8372   5.236   4.198   9.811 -0.7740  0.4600  0.0599
   87SAPS   H6X 8373   5.164   4.276   9.842 -0.1509  1.5863 -1.2295
   87SAPS   H6Y 8374   5.186   4.100   9.796 -1.7712  0.8823  0.5930
   87SAPS   C37 8375   5.322   4.224   9.691  0.2392 -0.7081 -0.0449
   87SAPS   H7X 8376   5.387   4.134   9.682  0.1829 -0.6937 -0.6713
   87SAPS   H7Y 8377   5.378   4.319   9.706  0.7459 -0.8886 -0.7119
   87SAPS   C38 8378   5.243   4.242   9.564 -0.5051 -0.2554  0.6113
   87SAPS   H8X 8379   5.159   4.314   9.575 -0.0447  0.1877  1.3146
   87SAPS   H8Y 8380   5.194   4.143   9.551 -1.2927  0.2044 -0.0296
   87SAPS   C39 8381   5.324   4.282   9.434 -0.1004  0.2878  0.2574
   87SAPS   H9X 8382   5.408   4.209   9.440 -2.0733 -2.0351  1.2032
   87SAPS   H9Y 8383   5.360   4.386   9.447 -0.5896  0.3759  0.9932
   87SAPS  C310 8384   5.248   4.244   9.304 -0.2049 -0.0441  0.0649
   87SAPS  H10X 8385   5.149   4.293   9.306  0.9857  2.5627 -0.1180
   87SAPS  H10Y 8386   5.238   4.135   9.291 -0.1380  0.0475 -0.8326
   87SAPS  C311 8387   5.306   4.289   9.176 -0.4883  0.1977  0.2351
   87SAPS  H11X 8388   5.416   4.269   9.173 -0.0959  1.8987  1.7283
   87SAPS  H11Y 8389   5.286   4.397   9.164  1.7908  0.6085 -0.4050
   87SAPS  C312 8390   5.265   4.205   9.051 -0.4304  0.2857 -0.3867
   87SAPS  H12X 8391   5.268   4.099   9.082  1.5586  0.9137  1.8892
   87SAPS  H12Y 8392   5.336   4.223   8.968  0.5388 -0.5866  0.2392
   87SAPS  C313 8393   5.126   4.244   9.006  0.4650  0.3372 -0.0474
   87SAPS  H13X 8394   5.126   4.354   8.989 -0.4093  0.3269 -0.1303
   87SAPS  H13Y 8395   5.058   4.223   9.091 -0.8864 -0.7676 -1.3431
   87SAPS  C314 8396   5.097   4.166   8.871 -0.5035 -0.1954 -0.5558
   87SAPS  H14X 8397   5.093   4.056   8.884  2.6765 -0.5166 -1.3599
   87SAPS  H14Y 8398   5.175   4.195   8.798 -0.4454  0.4181 -0.2637
   87SAPS  C315 8399   4.964   4.209   8.807 -0.4497  0.2102 -0.1655
   87SAPS  H15X 8400   4.950   4.319   8.812  0.5560  0.3523 -0.3911
   87SAPS  H15Y 8401   4.890   4.154   8.869 -0.3152 -0.4412 -0.5760
   87SAPS  C316 8402   4.947   4.176   8.653  0.3042 -0.5197 -0.1511
   87SAPS  H16X 8403   4.963   4.066   8.643  1.9816 -0.4041  0.8515
   87SAPS  H16Y 8404   5.036   4.221   8.603 -0.2029 -0.5479 -1.1165
   87SAPS  C317 8405   4.816   4.226   8.593  1.3018 -0.6650 -0.1268
   87SAPS  H17X 8406   4.800   4.336   8.592 -3.6870 -1.1213 -2.5739
   87SAPS  H17Y 8407   4.733   4.198   8.661  2.1353 -2.7808  0.0839
   87SAPS  C318 8408   4.786   4.175   8.454 -0.1345  0.2697 -1.0364
   87SAPS  H18X 8409   4.869   4.204   8.387 -0.3626  0.5859 -1.1842
   87SAPS  H18Y 8410   4.693   4.213   8.408  0.1026  1.2432 -0.7279
   87SAPS  H18Z 8411   4.775   4.065   8.469 -0.9235  0.6348  1.5718
   88SAPS     N 8412   5.739   3.181  10.634  0.0215 -0.6201 -0.2336
   88SAPS   HN1 8413   5.713   3.281  10.648  2.0423  0.0120 -0.6228
   88SAPS   HN2 8414   5.679   3.130  10.566 -1.4162  0.0290  0.5104
   88SAPS   HN3 8415   5.737   3.127  10.724  1.2695 -3.3918 -1.7426
   88SAPS   C12 8416   5.880   3.170  10.610 -0.4622 -0.2708 -0.4797
   88SAPS  H12A 8417   5.906   3.238  10.530  1.2937 -2.2245 -1.6753
   88SAPS   C13 8418   5.970   3.231  10.732  0.7358  0.7445 -0.2964
   88SAPS  O13A 8419   5.916   3.260  10.839 -0.1151  0.0036 -0.0755
   88SAPS  O13B 8420   6.086   3.266  10.706 -0.4687 -0.4835  0.0107
   88SAPS   C11 8421   5.922   3.032  10.571  0.0180  0.4937  0.4583
   88SAPS  H11A 8422   6.030   3.047  10.552  0.3198 -0.4605  1.3006
   88SAPS  H11B 8423   5.882   2.996  10.474  0.3149  1.0839  0.1154
   88SAPS     P 8424   5.975   2.788  10.645  0.1215 -0.2452  0.2174
   88SAPS   O13 8425   6.090   2.791  10.738  0.3578 -0.4723 -0.7722
   88SAPS   O14 8426   5.884   2.674  10.673  0.2121 -0.5211  0.0404
   88SAPS   O12 8427   5.895   2.922  10.661  0.1807  1.0531 -0.2703
   88SAPS   O11 8428   6.012   2.792  10.488 -0.3573  0.4137  0.5186
   88SAPS    C1 8429   6.131   2.731  10.442  0.2370 -0.2511 -0.7440
   88SAPS    HA 8430   6.157   2.643  10.506 -1.2044  0.4102  0.8530
   88SAPS    HB 8431   6.113   2.682  10.344 -2.0450 -1.3749  0.1370
   88SAPS    C2 8432   6.241   2.835  10.432 -0.0733 -1.5647 -0.1772
   88SAPS    HS 8433   6.266   2.870  10.535 -2.3184  0.5926 -0.2566
   88SAPS   O21 8434   6.197   2.949  10.348  0.2778 -0.2506  0.2912
   88SAPS   C21 8435   6.249   3.059  10.381 -0.3493 -0.9094 -0.6629
   88SAPS   O22 8436   6.332   3.081  10.467  0.4324  0.0038  0.0764
   88SAPS   C22 8437   6.203   3.178  10.281  0.0753  0.8521  0.0217
   88SAPS   H2R 8438   6.137   3.124  10.210 -0.7672  2.1787 -0.2365
   88SAPS   H2S 8439   6.144   3.240  10.351 -0.2339 -1.0318  1.5106
   88SAPS    C3 8440   6.376   2.782  10.377 -0.0727 -0.2173  0.2239
   88SAPS    HX 8441   6.402   2.712  10.460 -4.1440 -0.7809  1.2874
   88SAPS    HY 8442   6.460   2.854  10.376 -0.5543  0.3480 -0.0129
   88SAPS   O31 8443   6.358   2.719  10.255 -0.1636 -0.2523 -0.2555
   88SAPS   C31 8444   6.449   2.629  10.221  0.5338  0.5612  0.7423
   88SAPS   O32 8445   6.538   2.588  10.297 -0.3288 -0.3441 -0.4481
   88SAPS   C32 8446   6.427   2.578  10.080  0.4110 -0.3084  0.2158
   88SAPS   H2X 8447   6.318   2.558  10.071 -0.4175  2.3345  2.6588
   88SAPS   H2Y 8448   6.493   2.499  10.040  1.2089  1.6110 -2.6156
   88SAPS   C23 8449   6.327   3.247  10.228 -0.9563 -0.5061 -0.2853
   88SAPS   H3R 8450   6.379   3.297  10.312 -1.7251  0.9907 -0.6653
   88SAPS   H3S 8451   6.292   3.342  10.181 -0.1926  0.3939  0.9031
   88SAPS   C24 8452   6.411   3.181  10.115  0.0728  0.9429 -0.0498
   88SAPS   H4R 8453   6.456   3.104  10.181 -0.9691  0.0146 -0.3777
   88SAPS   H4S 8454   6.479   3.262  10.081  0.9574  0.1304 -0.2432
   88SAPS   C25 8455   6.329   3.115  10.008  1.2129  0.2371 -0.4935
   88SAPS   H5R 8456   6.246   3.052  10.043  0.7306  0.8249 -0.5766
   88SAPS   C26 8457   6.356   3.121   9.874  0.0804  0.3698 -0.5139
   88SAPS   H6R 8458   6.280   3.078   9.806 -1.7575 -0.8203  2.1287
   88SAPS   C27 8459   6.476   3.181   9.808 -0.1914 -0.1651 -0.3775
   88SAPS   H7R 8460   6.545   3.104   9.768  0.9233  1.3696 -1.5503
   88SAPS   H7S 8461   6.538   3.230   9.886 -0.6811  0.8930 -0.6278
   88SAPS   C28 8462   6.435   3.293   9.714 -0.6809 -0.1759 -0.1791
   88SAPS   H8R 8463   6.414   3.387   9.768 -1.7142 -0.2603 -0.4224
   88SAPS   C29 8464   6.424   3.295   9.578 -0.4571  0.3013 -0.2846
   88SAPS   H9R 8465   6.383   3.384   9.528 -2.8925  0.3173  1.5521
   88SAPS  C210 8466   6.448   3.182   9.490  0.4714  1.3488 -0.7540
   88SAPS  H10R 8467   6.361   3.177   9.420  0.0154 -0.9616 -0.1161
   88SAPS  H10S 8468   6.444   3.092   9.554  0.9372  0.1920 -2.2951
   88SAPS  C211 8469   6.573   3.183   9.418  0.1621 -0.3838  0.2721
   88SAPS  H11R 8470   6.663   3.197   9.480 -0.4199  0.7432  0.8826
   88SAPS  C212 8471   6.584   3.180   9.284 -0.4711  0.2098  0.2839
   88SAPS  H12R 8472   6.686   3.186   9.242 -0.2138  0.4727  0.9373
   88SAPS  C213 8473   6.472   3.167   9.181  0.5509 -0.6168 -0.2542
   88SAPS  H13R 8474   6.420   3.264   9.167  1.4280 -0.4194 -2.7434
   88SAPS  H13S 8475   6.398   3.089   9.210 -0.6652  0.4046 -0.5225
   88SAPS  C214 8476   6.521   3.140   9.041  0.0373 -0.3498 -0.1685
   88SAPS  H14R 8477   6.612   3.079   9.041  1.1333  1.1889 -1.8551
   88SAPS  C215 8478   6.468   3.171   8.921  0.0739 -0.1642  0.6979
   88SAPS  H15R 8479   6.513   3.147   8.824  0.3764 -0.5925  0.9409
   88SAPS  C216 8480   6.344   3.250   8.903 -0.1868 -0.7215 -0.2149
   88SAPS  H16R 8481   6.371   3.357   8.889  0.0432 -0.4636  1.8061
   88SAPS  H16S 8482   6.283   3.253   8.996 -1.9933 -0.5129 -1.3642
   88SAPS  C217 8483   6.247   3.216   8.783 -0.2430  0.4563  0.1818
   88SAPS  H17R 8484   6.309   3.175   8.700 -0.6562 -1.9144  0.9713
   88SAPS  H17S 8485   6.176   3.291   8.742 -1.7495 -0.4672  1.0113
   88SAPS  C218 8486   6.160   3.093   8.827  0.5262  0.7534  0.2315
   88SAPS  H18R 8487   6.063   3.137   8.860  0.2819  2.0060 -2.0094
   88SAPS  H18S 8488   6.202   3.041   8.916 -0.8381 -1.7982 -0.4900
   88SAPS  C219 8489   6.161   2.977   8.728 -0.1737  0.7733 -0.5399
   88SAPS  H19R 8490   6.262   2.968   8.683  0.7295  1.0938  1.3460
   88SAPS  H19S 8491   6.102   3.002   8.637  0.5011 -1.1173 -1.5497
   88SAPS  C220 8492   6.120   2.839   8.777  0.1448  0.8152  0.6279
   88SAPS  H20R 8493   6.152   2.772   8.694  0.3185  2.3427 -0.5708
   88SAPS  H20S 8494   6.011   2.830   8.799 -0.5367 -0.2371 -2.5292
   88SAPS  H20T 8495   6.179   2.803   8.863 -0.1883 -0.3262  0.4051
   88SAPS   C33 8496   6.449   2.697   9.979 -0.5366  0.0883 -0.6948
   88SAPS   H3X 8497   6.396   2.790  10.008 -2.0812 -0.9939  0.1186
   88SAPS   H3Y 8498   6.411   2.666   9.880 -0.5233 -0.5393 -0.5116
   88SAPS   C34 8499   6.598   2.734   9.955 -0.2862 -0.3409 -0.3423
   88SAPS   H4X 8500   6.646   2.639   9.922  1.3036 -1.1434  3.6851
   88SAPS   H4Y 8501   6.647   2.753  10.053 -2.5489 -1.5544  1.0990
   88SAPS   C35 8502   6.621   2.845   9.850  0.5222  0.1535 -0.8046
   88SAPS   H5X 8503   6.724   2.887   9.848 -0.3168  3.0741  3.6164
   88SAPS   H5Y 8504   6.558   2.926   9.893  0.1104 -0.7036  0.2559
   88SAPS   C36 8505   6.564   2.811   9.713 -0.4943  0.2660  0.2131
   88SAPS   H6X 8506   6.579   2.900   9.649  2.4289 -1.3643 -1.5787
   88SAPS   H6Y 8507   6.459   2.775   9.715 -0.7128  0.6861 -1.9198
   88SAPS   C37 8508   6.655   2.711   9.635  0.1663 -0.3094 -0.5502
   88SAPS   H7X 8509   6.638   2.616   9.690 -1.3717  0.2214 -0.0410
   88SAPS   H7Y 8510   6.758   2.751   9.637 -0.9501  2.8917 -0.5432
   88SAPS   C38 8511   6.605   2.691   9.501  0.4894  0.1371  0.1459
   88SAPS   H8X 8512   6.494   2.701   9.491  0.6562 -0.0822 -2.6118
   88SAPS   H8Y 8513   6.649   2.594   9.469 -1.3566  0.2325 -3.1114
   88SAPS   C39 8514   6.672   2.780   9.395  0.2405 -0.1257 -0.3879
   88SAPS   H9X 8515   6.782   2.775   9.409  0.3091  1.1800 -0.3368
   88SAPS   H9Y 8516   6.647   2.887   9.408 -1.7642 -0.3814 -1.8462
   88SAPS  C310 8517   6.657   2.717   9.259  0.2305  0.0053  0.1863
   88SAPS  H10X 8518   6.551   2.684   9.253 -0.7813  3.0948 -0.5441
   88SAPS  H10Y 8519   6.721   2.627   9.248  0.2535  0.2381 -2.2643
   88SAPS  C311 8520   6.679   2.819   9.143 -0.6809  0.2226  0.6558
   88SAPS  H11X 8521   6.778   2.867   9.159 -0.9610  1.0982 -0.1299
   88SAPS  H11Y 8522   6.604   2.900   9.148 -1.6173 -0.5449 -0.3295
   88SAPS  C312 8523   6.699   2.757   9.007 -0.5455 -0.3488  0.0555
   88SAPS  H12X 8524   6.734   2.651   9.013 -1.3621 -0.8325 -2.5258
   88SAPS  H12Y 8525   6.766   2.822   8.946 -0.6245  1.1753  1.5262
   88SAPS  C313 8526   6.568   2.750   8.922 -0.4676 -0.7356 -0.4316
   88SAPS  H13X 8527   6.530   2.854   8.921  1.1497 -0.0911  0.3804
   88SAPS  H13Y 8528   6.502   2.672   8.966 -0.6986 -0.7520 -0.8111
   88SAPS  C314 8529   6.613   2.701   8.784 -0.1044  0.2734  0.6898
   88SAPS  H14X 8530   6.653   2.598   8.782 -0.5707  0.0490 -2.4843
   88SAPS  H14Y 8531   6.686   2.776   8.746  1.7795 -0.8296  1.9910
   88SAPS  C315 8532   6.481   2.695   8.697 -0.1784 -0.1505  0.1012
   88SAPS  H15X 8533   6.451   2.799   8.669 -1.9911 -0.8678 -0.8279
   88SAPS  H15Y 8534   6.391   2.655   8.749 -0.3503  3.3358  2.8940
   88SAPS  C316 8535   6.489   2.626   8.555  1.1652  0.0274 -0.2222
   88SAPS  H16X 8536   6.392   2.638   8.503  1.0474  2.7512  0.4530
   88SAPS  H16Y 8537   6.503   2.517   8.569 -0.2621 -0.5349 -2.6463
   88SAPS  C317 8538   6.598   2.689   8.466  0.3191  0.4844 -0.2298
   88SAPS  H17X 8539   6.692   2.689   8.524 -0.3706 -3.6114  1.2005
   88SAPS  H17Y 8540   6.558   2.790   8.438  0.0148  0.3350 -0.3440
   88SAPS  C318 8541   6.625   2.604   8.342  0.6042 -0.2397 -0.1927
   88SAPS  H18X 8542   6.537   2.621   8.277 -0.2835  0.7052  1.1925
   88SAPS  H18Y 8543   6.636   2.496   8.362  0.6835 -0.8925 -3.2941
   88SAPS  H18Z 8544   6.725   2.633   8.303  2.3809 -0.3967  3.7048
   89SAPS     N 8545   5.890   6.460  10.848  0.1515 -0.0858  0.7558
   89SAPS   HN1 8546   5.920   6.459  10.748  1.4405 -1.4234  1.1164
   89SAPS   HN2 8547   5.822   6.385  10.869  0.3002 -0.0813  1.2665
   89SAPS   HN3 8548   5.848   6.554  10.860 -1.4729 -0.6234 -0.4097
   89SAPS   C12 8549   6.010   6.451  10.943  0.7477  0.4734  0.9198
   89SAPS  H12A 8550   6.081   6.532  10.934  1.8267 -0.4971  0.4594
   89SAPS   C13 8551   5.966   6.461  11.088 -0.5003 -0.3513 -0.6179
   89SAPS  O13A 8552   5.841   6.466  11.116 -1.0921  0.2495  0.4269
   89SAPS  O13B 8553   6.054   6.494  11.172  0.6356  0.1897 -0.0574
   89SAPS   C11 8554   6.090   6.322  10.930 -0.5794 -0.1676  0.8334
   89SAPS  H11A 8555   6.039   6.237  10.980  2.3775 -0.0668  4.4903
   89SAPS  H11B 8556   6.189   6.336  10.978  0.2006  1.5604 -1.1259
   89SAPS     P 8557   6.115   6.158  10.727  0.5993 -0.2146 -0.6819
   89SAPS   O13 8558   6.159   6.048  10.816  0.2364 -0.5562 -0.3093
   89SAPS   O14 8559   5.980   6.159  10.681  0.1834  0.0592 -0.0574
   89SAPS   O12 8560   6.140   6.293  10.797  0.3034  0.3463 -0.1796
   89SAPS   O11 8561   6.213   6.157  10.610 -0.7383 -0.5165  0.0093
   89SAPS    C1 8562   6.277   6.270  10.548  0.0197  0.1777  0.4031
   89SAPS    HA 8563   6.206   6.349  10.516  0.0822  0.5218  1.1010
   89SAPS    HB 8564   6.342   6.316  10.626  1.4435 -0.3643 -0.4307
   89SAPS    C2 8565   6.379   6.226  10.436  0.4001 -0.5356 -0.7802
   89SAPS    HS 8566   6.435   6.315  10.403 -4.2423  2.9645 -0.2478
   89SAPS   O21 8567   6.309   6.163  10.321  0.2618  0.0530  0.0801
   89SAPS   C21 8568   6.249   6.261  10.241 -0.5222 -0.0676  0.2786
   89SAPS   O22 8569   6.264   6.378  10.261 -0.0049 -0.0042  0.3328
   89SAPS   C22 8570   6.182   6.214  10.117 -0.1600  0.5094 -0.1566
   89SAPS   H2R 8571   6.252   6.152  10.057 -2.3329 -0.1226 -2.1404
   89SAPS   H2S 8572   6.091   6.161  10.152 -1.2855  2.5955  0.2678
   89SAPS    C3 8573   6.470   6.113  10.484 -0.5457  0.8816 -0.8096
   89SAPS    HX 8574   6.395   6.041  10.524  0.4466 -2.1087 -3.8366
   89SAPS    HY 8575   6.535   6.152  10.565 -1.2045 -0.9294  0.6640
   89SAPS   O31 8576   6.543   6.064  10.368  0.1570  0.0778  0.3296
   89SAPS   C31 8577   6.547   5.932  10.338  0.2532  0.8063 -0.5906
   89SAPS   O32 8578   6.516   5.837  10.408 -0.9329  0.2599 -0.2741
   89SAPS   C32 8579   6.606   5.910  10.199 -0.0961 -0.1508  0.6956
   89SAPS   H2X 8580   6.631   5.803  10.184 -2.1026 -0.4285 -1.4461
   89SAPS   H2Y 8581   6.697   5.972  10.203  0.0057 -0.3557  1.6781
   89SAPS   C23 8582   6.129   6.318  10.023  0.1215 -0.5237 -0.4908
   89SAPS   H3R 8583   6.209   6.379   9.978  0.1976  0.7130  1.2195
   89SAPS   H3S 8584   6.048   6.377  10.072 -0.2555 -1.6762  0.3278
   89SAPS   C24 8585   6.049   6.263   9.899 -0.2833  0.5227  0.0778
   89SAPS   H4R 8586   6.026   6.353   9.839  0.2984  0.6122 -0.0172
   89SAPS   H4S 8587   5.952   6.231   9.942 -0.9698 -0.2038 -1.8969
   89SAPS   C25 8588   6.119   6.153   9.819 -0.0256 -0.0886  0.2645
   89SAPS   H5R 8589   6.178   6.084   9.881  0.0082 -0.2977  0.0013
   89SAPS   C26 8590   6.113   6.142   9.689 -0.0139 -0.3826 -0.1847
   89SAPS   H6R 8591   6.166   6.060   9.639  0.0907 -0.1528 -0.4526
   89SAPS   C27 8592   6.043   6.237   9.593  0.2432 -0.0137  0.2413
   89SAPS   H7R 8593   6.106   6.327   9.576 -0.7977  0.6688 -0.1550
   89SAPS   H7S 8594   5.955   6.279   9.647 -1.2768  0.8498 -2.6749
   89SAPS   C28 8595   5.986   6.164   9.474 -0.0048 -0.0823  0.3493
   89SAPS   H8R 8596   5.919   6.081   9.501 -2.2190  1.3006 -0.5867
   89SAPS   C29 8597   5.975   6.211   9.344  0.2174  1.0178  0.5923
   89SAPS   H9R 8598   5.931   6.145   9.268 -1.6435  1.1360  1.5151
   89SAPS  C210 8599   6.031   6.336   9.290  0.2223  0.0854 -0.1777
   89SAPS  H10R 8600   6.072   6.401   9.370  1.5754 -1.2750  0.2841
   89SAPS  H10S 8601   5.949   6.396   9.245  0.4505 -0.5029 -1.4253
   89SAPS  C211 8602   6.135   6.312   9.181 -0.5234  0.1379 -0.1288
   89SAPS  H11R 8603   6.191   6.218   9.191 -0.2740  0.4196  1.4018
   89SAPS  C212 8604   6.164   6.385   9.072 -0.3892  0.6146  0.2564
   89SAPS  H12R 8605   6.253   6.353   9.016 -1.5153  0.4468 -1.5313
   89SAPS  C213 8606   6.084   6.503   9.024  0.3674  0.2407  0.2721
   89SAPS  H13R 8607   6.144   6.596   9.023  0.7361  0.0648  2.4356
   89SAPS  H13S 8608   6.005   6.526   9.098 -0.5869  2.8618 -1.4245
   89SAPS  C214 8609   6.021   6.475   8.894 -0.2539  0.6780 -0.4734
   89SAPS  H14R 8610   5.922   6.428   8.901  0.5925 -1.1311  0.0985
   89SAPS  C215 8611   6.069   6.494   8.775  0.6912  0.5917 -0.4007
   89SAPS  H15R 8612   6.015   6.450   8.690  3.7976 -1.8444 -1.3151
   89SAPS  C216 8613   6.202   6.556   8.729 -0.2102 -0.2264  0.0318
   89SAPS  H16R 8614   6.273   6.471   8.724 -0.8752 -0.8141  0.3693
   89SAPS  H16S 8615   6.247   6.618   8.809  1.3907  0.8716 -1.6294
   89SAPS  C217 8616   6.212   6.628   8.600  0.0376  0.2122  0.6229
   89SAPS  H17R 8617   6.209   6.555   8.516 -0.8842  1.7079 -0.7119
   89SAPS  H17S 8618   6.308   6.684   8.592 -0.0866  0.1739 -2.0762
   89SAPS  C218 8619   6.113   6.741   8.569 -0.1131 -0.0173 -0.8242
   89SAPS  H18R 8620   6.090   6.806   8.656  0.4793 -1.2608  0.2813
   89SAPS  H18S 8621   6.011   6.700   8.553  0.2640 -0.1106 -3.4285
   89SAPS  C219 8622   6.154   6.833   8.448  0.2354  0.1093 -0.7653
   89SAPS  H19R 8623   6.066   6.871   8.392  0.7553 -1.6672 -2.9601
   89SAPS  H19S 8624   6.206   6.775   8.368  1.6626  0.5929 -0.2187
   89SAPS  C220 8625   6.244   6.950   8.487 -0.1203  0.3209 -0.4543
   89SAPS  H20R 8626   6.200   6.999   8.576 -0.4300  1.5726 -1.2749
   89SAPS  H20S 8627   6.249   7.022   8.402  0.1718  0.9683  0.1105
   89SAPS  H20T 8628   6.347   6.910   8.499  0.7263  0.9271 -4.2497
   89SAPS   C33 8629   6.518   5.959  10.082  0.6186 -0.2149 -0.0824
   89SAPS   H3X 8630   6.495   6.065  10.105  0.2113 -0.0744 -1.1022
   89SAPS   H3Y 8631   6.417   5.913  10.069  1.0560 -0.9848 -0.8240
   89SAPS   C34 8632   6.580   5.932   9.938 -0.4208 -0.2364 -0.3121
   89SAPS   H4X 8633   6.560   5.833   9.893  2.3574  0.8016 -4.3348
   89SAPS   H4Y 8634   6.689   5.951   9.946 -0.5296  0.1235  0.4866
   89SAPS   C35 8635   6.513   6.026   9.828 -0.3658 -0.2571  0.1001
   89SAPS   H5X 8636   6.532   6.132   9.857 -0.4412 -0.6322  1.6079
   89SAPS   H5Y 8637   6.404   6.012   9.844 -0.4111 -1.7536 -1.2567
   89SAPS   C36 8638   6.557   5.988   9.683  0.9177 -0.2487 -1.1297
   89SAPS   H6X 8639   6.508   5.893   9.653 -0.6543 -0.0377  0.6364
   89SAPS   H6Y 8640   6.667   5.973   9.688  0.9595  0.2961 -0.2296
   89SAPS   C37 8641   6.534   6.095   9.581  0.0953  0.5017  0.0583
   89SAPS   H7X 8642   6.600   6.181   9.607 -0.2231  0.5246  0.8249
   89SAPS   H7Y 8643   6.427   6.125   9.587 -0.3077 -0.0087 -2.8675
   89SAPS   C38 8644   6.576   6.060   9.440 -0.8235 -0.0829  0.5526
   89SAPS   H8X 8645   6.519   5.973   9.401 -0.4589 -0.7920  1.5501
   89SAPS   H8Y 8646   6.681   6.024   9.443 -0.7500 -0.3389 -2.2922
   89SAPS   C39 8647   6.549   6.167   9.333  0.1755 -0.6833 -0.0446
   89SAPS   H9X 8648   6.623   6.250   9.334  1.2515 -1.6106 -0.4643
   89SAPS   H9Y 8649   6.449   6.216   9.338  0.5858  0.1995 -0.2133
   89SAPS  C310 8650   6.556   6.110   9.189  0.1566  0.2232 -0.5059
   89SAPS  H10X 8651   6.490   6.021   9.182  0.9483 -0.2655 -2.1933
   89SAPS  H10Y 8652   6.660   6.072   9.182  0.1542 -0.0385  0.6450
   89SAPS  C311 8653   6.521   6.209   9.070 -0.1972 -0.1125  0.2612
   89SAPS  H11X 8654   6.581   6.301   9.084 -1.4626  1.2663 -2.5494
   89SAPS  H11Y 8655   6.417   6.242   9.089 -0.1984 -0.7744  1.4807
   89SAPS  C312 8656   6.541   6.147   8.936 -0.7697  0.7186  0.5256
   89SAPS  H12X 8657   6.490   6.049   8.945 -0.7530  0.8476  2.3942
   89SAPS  H12Y 8658   6.647   6.121   8.915 -1.1376 -1.4501  1.1294
   89SAPS  C313 8659   6.474   6.226   8.826 -0.0832  0.6423  0.1956
   89SAPS  H13X 8660   6.548   6.299   8.788  0.5291 -1.1214 -2.2508
   89SAPS  H13Y 8661   6.383   6.283   8.856 -0.3792  1.9382 -2.8327
   89SAPS  C314 8662   6.435   6.136   8.709  1.1959  0.0061 -0.0653
   89SAPS  H14X 8663   6.350   6.074   8.744 -0.4386  1.6884 -0.9299
   89SAPS  H14Y 8664   6.525   6.074   8.688  1.3428  0.1040  0.2603
   89SAPS  C315 8665   6.396   6.220   8.581 -0.1683  0.1336 -0.8331
   89SAPS  H15X 8666   6.454   6.314   8.575  0.5959 -0.1103  1.4916
   89SAPS  H15Y 8667   6.297   6.266   8.604 -0.6124 -1.7327  1.5378
   89SAPS  C316 8668   6.391   6.136   8.458  0.1829 -0.7102 -0.5661
   89SAPS  H16X 8669   6.318   6.054   8.475  0.1836 -0.7739 -0.8698
   89SAPS  H16Y 8670   6.487   6.091   8.423  0.8042  0.6100 -0.6051
   89SAPS  C317 8671   6.329   6.224   8.344  0.0180  0.1601  0.8721
   89SAPS  H17X 8672   6.225   6.250   8.374  0.6502  0.4862  2.9306
   89SAPS  H17Y 8673   6.320   6.149   8.262 -0.5236  0.9859  0.1515
   89SAPS  C318 8674   6.410   6.340   8.294 -0.2532  0.1485  0.1975
   89SAPS  H18X 8675   6.372   6.354   8.190  0.1728 -0.2784 -0.0195
   89SAPS  H18Y 8676   6.519   6.319   8.291 -0.5349 -1.2958 -2.0681
   89SAPS  H18Z 8677   6.391   6.427   8.360  0.1881  0.1695  0.3016
   90SAPS     N 8678   1.334   4.749  10.571  0.8377  0.4223 -0.4930
   90SAPS   HN1 8679   1.299   4.680  10.502 -2.0476  0.1254  1.1029
   90SAPS   HN2 8680   1.406   4.807  10.523  0.1959  1.7714  0.1210
   90SAPS   HN3 8681   1.377   4.698  10.651  0.2761  0.7016  0.0013
   90SAPS   C12 8682   1.230   4.841  10.630  0.2568  0.2379  0.5591
   90SAPS  H12A 8683   1.175   4.893  10.552 -0.9170  1.8036  2.3512
   90SAPS   C13 8684   1.122   4.775  10.715  0.1355  0.1913 -0.6763
   90SAPS  O13A 8685   1.105   4.650  10.714  0.5409 -0.3091  0.1874
   90SAPS  O13B 8686   1.042   4.854  10.773  0.1852  0.8429  0.8191
   90SAPS   C11 8687   1.304   4.936  10.723 -0.1321 -0.6272 -0.8102
   90SAPS  H11A 8688   1.346   4.864  10.797  2.8177  1.8292  0.0990
   90SAPS  H11B 8689   1.229   5.006  10.764 -0.2495 -0.6336 -1.0085
   90SAPS     P 8690   1.488   5.119  10.750 -0.1287 -0.2912 -0.0080
   90SAPS   O13 8691   1.392   5.212  10.822  0.1872  0.4320 -0.1787
   90SAPS   O14 8692   1.566   5.036  10.845  0.1422  0.4136  0.9342
   90SAPS   O12 8693   1.406   5.019  10.664  0.1904  0.1163  0.1655
   90SAPS   O11 8694   1.568   5.197  10.639 -0.0541  0.1178 -0.0354
   90SAPS    C1 8695   1.518   5.257  10.521 -1.0284  0.0159 -0.8241
   90SAPS    HA 8696   1.451   5.188  10.466 -1.1801 -0.7030  0.2238
   90SAPS    HB 8697   1.452   5.339  10.556 -0.4265  0.4777 -0.7389
   90SAPS    C2 8698   1.636   5.319  10.435 -0.0339 -0.6092 -0.2898
   90SAPS    HS 8699   1.583   5.370  10.352  2.2840  1.3475 -0.7110
   90SAPS   O21 8700   1.717   5.214  10.387  0.0852 -0.1301 -0.0058
   90SAPS   C21 8701   1.658   5.140  10.296 -0.6196  0.0585  0.0838
   90SAPS   O22 8702   1.544   5.155  10.256  0.4146 -1.1448  0.2971
   90SAPS   C22 8703   1.748   5.025  10.242 -0.0068  0.0301 -0.4604
   90SAPS   H2R 8704   1.719   4.934  10.298  1.5032  0.2866  0.8228
   90SAPS   H2S 8705   1.710   5.011  10.139 -1.0097 -0.7934  0.0024
   90SAPS    C3 8706   1.713   5.428  10.516  0.3838 -0.8847  0.2216
   90SAPS    HX 8707   1.785   5.375  10.582  0.0178 -1.6390  0.0307
   90SAPS    HY 8708   1.642   5.496  10.567  1.2241  1.2073 -1.2600
   90SAPS   O31 8709   1.778   5.517  10.416  0.0062 -0.1252 -0.7274
   90SAPS   C31 8710   1.903   5.493  10.382 -0.3649  0.2226 -0.1833
   90SAPS   O32 8711   1.984   5.416  10.435  0.5292  0.3534 -0.1097
   90SAPS   C32 8712   1.941   5.576  10.252 -0.2855 -0.8242 -0.3572
   90SAPS   H2X 8713   1.939   5.686  10.267  0.1987 -0.6964 -1.1477
   90SAPS   H2Y 8714   1.852   5.566  10.186 -0.5249 -0.7277 -0.0529
   90SAPS   C23 8715   1.898   5.068  10.232 -0.5124  0.5994  0.3310
   90SAPS   H3R 8716   1.960   4.977  10.247  0.7528  1.3368 -0.2112
   90SAPS   H3S 8717   1.941   5.135  10.309  2.9312 -0.4768 -0.4351
   90SAPS   C24 8718   1.940   5.108  10.091 -0.4340  0.0264  0.5580
   90SAPS   H4R 8719   1.942   5.023  10.019  1.1908 -0.1234  0.7513
   90SAPS   H4S 8720   2.046   5.139  10.083 -0.1438 -1.0427 -0.0061
   90SAPS   C25 8721   1.853   5.221  10.048 -0.0916 -0.0881  0.1143
   90SAPS   H5R 8722   1.864   5.303  10.121  1.9285  0.1798 -0.4288
   90SAPS   C26 8723   1.762   5.232   9.947 -0.0022  0.3300 -0.3347
   90SAPS   H6R 8724   1.697   5.320   9.957  2.9448  3.1157 -3.2714
   90SAPS   C27 8725   1.724   5.125   9.854 -0.4389 -0.4737  0.0171
   90SAPS   H7R 8726   1.615   5.108   9.867 -0.5568 -0.0397 -0.3454
   90SAPS   H7S 8727   1.784   5.033   9.872 -1.5451 -1.0508  0.7980
   90SAPS   C28 8728   1.759   5.168   9.706 -0.4836 -0.4527 -0.4422
   90SAPS   H8R 8729   1.761   5.277   9.691 -0.1346 -0.0423  2.1554
   90SAPS   C29 8730   1.766   5.092   9.590 -0.6926  0.4316 -0.6821
   90SAPS   H9R 8731   1.804   5.132   9.495  0.6161  0.6241 -0.0860
   90SAPS  C210 8732   1.745   4.945   9.585  0.1029  0.2609  0.5824
   90SAPS  H10R 8733   1.678   4.912   9.669  0.1927  3.5638  2.0887
   90SAPS  H10S 8734   1.841   4.896   9.611  0.0957 -0.2847 -0.3930
   90SAPS  C211 8735   1.686   4.901   9.450  0.8304 -0.1355 -0.0224
   90SAPS  H11R 8736   1.605   4.971   9.424  0.7186 -0.0087  0.6383
   90SAPS  C212 8737   1.746   4.829   9.353  0.5886 -0.4845 -0.7474
   90SAPS  H12R 8738   1.701   4.815   9.253 -1.6903  1.6573 -0.1055
   90SAPS  C213 8739   1.888   4.773   9.358  0.1453  0.1719  0.2564
   90SAPS  H13R 8740   1.889   4.685   9.425 -0.3018 -2.2959 -2.7537
   90SAPS  H13S 8741   1.956   4.852   9.396 -0.3922  1.0964 -0.6432
   90SAPS  C214 8742   1.944   4.716   9.227  0.5037  0.5799 -0.2268
   90SAPS  H14R 8743   1.935   4.607   9.223  0.0475  0.5169  1.7431
   90SAPS  C215 8744   2.012   4.778   9.131 -0.0833 -0.0876 -0.0716
   90SAPS  H15R 8745   2.018   4.725   9.035  0.3808 -0.2084  0.0165
   90SAPS  C216 8746   2.028   4.927   9.113 -0.3492  0.5049 -0.9584
   90SAPS  H16R 8747   2.135   4.959   9.120 -0.9189  2.8269 -2.0104
   90SAPS  H16S 8748   1.975   4.981   9.195 -0.6840 -0.4285 -0.5506
   90SAPS  C217 8749   1.977   4.994   8.987 -0.2417 -1.1949  0.5440
   90SAPS  H17R 8750   1.984   5.104   8.998  0.9293 -1.2796  0.7327
   90SAPS  H17S 8751   1.869   4.970   8.982 -0.2139 -1.1272 -1.2021
   90SAPS  C218 8752   2.044   4.959   8.851 -0.0053 -0.6007  0.0576
   90SAPS  H18R 8753   2.032   4.849   8.844  0.7599 -0.7026  0.3346
   90SAPS  H18S 8754   2.152   4.982   8.844 -0.1167 -0.1506 -0.2573
   90SAPS  C219 8755   1.996   5.040   8.733  1.0829  0.5943 -0.0972
   90SAPS  H19R 8756   1.978   5.143   8.772 -1.1988 -0.0093  0.6110
   90SAPS  H19S 8757   1.897   5.002   8.700  2.1590 -0.2537 -2.5416
   90SAPS  C220 8758   2.084   5.048   8.610 -0.3884 -0.1101  0.4330
   90SAPS  H20R 8759   2.094   4.941   8.579 -0.5136 -0.6001  2.0107
   90SAPS  H20S 8760   2.184   5.086   8.641  1.0530 -2.9207 -0.4229
   90SAPS  H20T 8761   2.038   5.103   8.525  1.1920 -0.4812 -0.7081
   90SAPS   C33 8762   2.069   5.520  10.178 -0.8376  0.8704 -0.4685
   90SAPS   H3X 8763   2.043   5.422  10.131  0.2635 -0.2899  1.2261
   90SAPS   H3Y 8764   2.141   5.493  10.258 -0.4073 -0.1737 -1.1786
   90SAPS   C34 8765   2.116   5.619  10.074 -0.7404 -0.4247 -0.2491
   90SAPS   H4X 8766   2.185   5.685  10.131 -1.7512 -0.4467  1.0308
   90SAPS   H4Y 8767   2.034   5.683  10.034 -1.1455 -0.1003  1.0429
   90SAPS   C35 8768   2.194   5.549   9.953  2.0140 -0.4995 -0.0599
   90SAPS   H5X 8769   2.127   5.478   9.901  0.7426  1.2174 -0.8631
   90SAPS   H5Y 8770   2.280   5.491   9.993  1.4456 -1.1743  0.1802
   90SAPS   C36 8771   2.247   5.654   9.864  0.7322 -0.1284  0.0541
   90SAPS   H6X 8772   2.328   5.700   9.925  0.3804 -2.1516  2.1952
   90SAPS   H6Y 8773   2.176   5.736   9.841  1.4805  0.1813 -1.2351
   90SAPS   C37 8774   2.307   5.593   9.733 -0.5706 -0.1484 -0.5174
   90SAPS   H7X 8775   2.221   5.538   9.688 -0.0501 -1.4014 -0.0252
   90SAPS   H7Y 8776   2.371   5.507   9.763  0.4269  0.2123 -1.5467
   90SAPS   C38 8777   2.372   5.689   9.629  0.1174 -0.1670  0.4665
   90SAPS   H8X 8778   2.471   5.721   9.666  0.5979  0.2461 -1.0898
   90SAPS   H8Y 8779   2.301   5.775   9.633  0.0626 -0.2295  0.8847
   90SAPS   C39 8780   2.402   5.623   9.485  0.0253 -0.2556 -0.2986
   90SAPS   H9X 8781   2.297   5.601   9.456 -1.2082  1.8042  2.2645
   90SAPS   H9Y 8782   2.462   5.532   9.505  1.1476  0.8969  1.9149
   90SAPS  C310 8783   2.477   5.716   9.390 -0.4943 -0.1119 -0.8582
   90SAPS  H10X 8784   2.570   5.754   9.436 -1.4466  0.7734  0.3964
   90SAPS  H10Y 8785   2.414   5.802   9.356  0.8325  1.2998  0.1268
   90SAPS  C311 8786   2.523   5.629   9.269 -0.0556 -0.3668 -0.2378
   90SAPS  H11X 8787   2.434   5.592   9.213 -0.3531  0.1314 -0.1074
   90SAPS  H11Y 8788   2.587   5.546   9.305  0.6939 -0.0401 -0.7994
   90SAPS  C312 8789   2.604   5.702   9.154  0.6923  0.6182 -0.5404
   90SAPS  H12X 8790   2.634   5.627   9.077  0.4035 -0.2651  0.1952
   90SAPS  H12Y 8791   2.696   5.738   9.204 -0.2793  1.6674  0.5609
   90SAPS  C313 8792   2.522   5.818   9.081 -0.2713 -0.0053 -0.6521
   90SAPS  H13X 8793   2.518   5.890   9.165  0.0814  1.2384 -1.6731
   90SAPS  H13Y 8794   2.422   5.785   9.046 -1.1283  1.2248  0.5800
   90SAPS  C314 8795   2.592   5.890   8.963 -0.7509  0.1678  0.1541
   90SAPS  H14X 8796   2.597   5.822   8.875 -1.0480 -1.6221  1.4723
   90SAPS  H14Y 8797   2.696   5.916   8.995 -0.7961  1.2032 -0.4927
   90SAPS  C315 8798   2.536   6.022   8.939 -0.1618  0.1768 -0.4723
   90SAPS  H15X 8799   2.563   6.077   9.032  0.0515  0.7780 -0.8803
   90SAPS  H15Y 8800   2.427   6.004   8.929  0.0452 -1.6023  0.0576
   90SAPS  C316 8801   2.594   6.090   8.812 -0.0810  0.1935  0.1884
   90SAPS  H16X 8802   2.620   6.005   8.746  0.6394  0.4228  0.1649
   90SAPS  H16Y 8803   2.687   6.147   8.836  1.1405 -2.0479  1.0974
   90SAPS  C317 8804   2.492   6.167   8.731  0.0272 -0.3112 -0.2856
   90SAPS  H17X 8805   2.397   6.110   8.723  0.0960 -0.5131  0.2578
   90SAPS  H17Y 8806   2.537   6.183   8.631 -0.0086 -1.2074 -0.4520
   90SAPS  C318 8807   2.452   6.298   8.794 -0.4352  0.1272 -0.3551
   90SAPS  H18X 8808   2.369   6.282   8.867 -0.1340 -2.0746 -0.4216
   90SAPS  H18Y 8809   2.404   6.360   8.716 -2.0066 -0.4425  0.1141
   90SAPS  H18Z 8810   2.523   6.363   8.849  0.1556  0.4095 -1.4346
   91SAPS     N 8811   3.900   3.822   5.580 -0.5207  0.1879 -0.1594
   91SAPS   HN1 8812   3.976   3.887   5.608 -1.4007  2.1080 -2.0034
   91SAPS   HN2 8813   3.939   3.727   5.596  1.6083  0.7810 -1.4149
   91SAPS   HN3 8814   3.885   3.830   5.478  1.2291 -1.7945 -0.6325
   91SAPS   C12 8815   3.776   3.844   5.664 -0.1057 -0.5533 -1.3720
   91SAPS  H12A 8816   3.750   3.947   5.645 -1.6207 -0.8071 -0.7831
   91SAPS   C13 8817   3.656   3.754   5.630 -0.7410  0.5318  0.4771
   91SAPS  O13A 8818   3.659   3.669   5.541  0.3284  0.1262 -0.7574
   91SAPS  O13B 8819   3.560   3.764   5.710  0.1521  0.7604 -0.4844
   91SAPS   C11 8820   3.811   3.823   5.816  0.1197 -0.5069  0.0003
   91SAPS  H11A 8821   3.847   3.720   5.837  1.3518 -0.1711 -0.3309
   91SAPS  H11B 8822   3.717   3.842   5.872  1.0047 -0.1476  1.4066
   91SAPS     P 8823   4.046   3.899   5.914 -0.1402  0.0359 -0.3063
   91SAPS   O13 8824   4.106   3.811   5.809  0.6850  0.0619 -0.3166
   91SAPS   O14 8825   4.098   4.032   5.950 -0.0928 -0.2393  0.1265
   91SAPS   O12 8826   3.896   3.931   5.871 -0.4059 -0.3856 -0.1227
   91SAPS   O11 8827   4.027   3.809   6.038  0.1186  1.0564  0.2664
   91SAPS    C1 8828   3.926   3.833   6.136  0.3695  0.0520 -0.0741
   91SAPS    HA 8829   3.902   3.941   6.124  0.4909  0.0166 -0.7082
   91SAPS    HB 8830   3.833   3.777   6.115 -1.0272  1.6581  1.4461
   91SAPS    C2 8831   3.979   3.811   6.280  0.0719  0.2727 -0.0011
   91SAPS    HS 8832   3.900   3.840   6.353 -0.2376 -1.5761  0.4540
   91SAPS   O21 8833   4.097   3.871   6.317 -0.9079  0.8236  0.4330
   91SAPS   C21 8834   4.097   3.996   6.334  1.2349  0.2845  1.0074
   91SAPS   O22 8835   3.998   4.071   6.346  0.0576  0.2709  0.8111
   91SAPS   C22 8836   4.238   4.044   6.361  0.1145 -0.4883  0.2703
   91SAPS   H2R 8837   4.278   3.955   6.414  0.1036 -1.5587 -1.4253
   91SAPS   H2S 8838   4.301   4.053   6.269  0.1355 -0.1663  0.3144
   91SAPS    C3 8839   3.985   3.655   6.313  0.0524 -0.0091  0.2638
   91SAPS    HX 8840   4.053   3.605   6.241  0.8908  0.9419  0.3847
   91SAPS    HY 8841   3.879   3.624   6.297 -0.4195  1.7739 -0.3341
   91SAPS   O31 8842   4.016   3.633   6.452 -0.0104  0.5964 -0.2007
   91SAPS   C31 8843   4.107   3.535   6.470  0.1698 -0.9151  0.6677
   91SAPS   O32 8844   4.151   3.465   6.383  0.0701 -0.2891  0.2823
   91SAPS   C32 8845   4.136   3.528   6.616 -0.3331  0.8127 -0.2501
   91SAPS   H2X 8846   4.045   3.549   6.677 -0.0498  1.7859 -0.1606
   91SAPS   H2Y 8847   4.218   3.600   6.633  0.9890  0.2681 -3.5832
   91SAPS   C23 8848   4.247   4.171   6.440  0.0417 -0.8785 -0.0528
   91SAPS   H3R 8849   4.155   4.173   6.501  0.4438 -0.4742  0.5508
   91SAPS   H3S 8850   4.248   4.253   6.365 -0.1570 -0.2565  0.6211
   91SAPS   C24 8851   4.367   4.188   6.532 -0.2806  0.8742  0.8180
   91SAPS   H4R 8852   4.465   4.180   6.481 -0.8313  1.9105 -0.4555
   91SAPS   H4S 8853   4.373   4.100   6.599 -3.1964 -0.6527 -0.7553
   91SAPS   C25 8854   4.350   4.315   6.609  0.1297 -0.1213  0.7173
   91SAPS   H5R 8855   4.351   4.402   6.542  1.4053  0.4083  1.4118
   91SAPS   C26 8856   4.309   4.335   6.737  1.6271 -0.7324 -0.2127
   91SAPS   H6R 8857   4.293   4.435   6.780 -2.0821 -0.8436 -0.9491
   91SAPS   C27 8858   4.274   4.223   6.825  0.5311  1.0066  0.1675
   91SAPS   H7R 8859   4.361   4.159   6.852  0.1343  0.7515  0.8641
   91SAPS   H7S 8860   4.208   4.147   6.778 -0.6087  1.2040  1.3943
   91SAPS   C28 8861   4.192   4.266   6.939  0.0223  0.2784  0.6880
   91SAPS   H8R 8862   4.249   4.297   7.028 -1.3571  1.1882  1.3012
   91SAPS   C29 8863   4.056   4.263   6.953 -0.3669 -0.6052 -0.3238
   91SAPS   H9R 8864   4.014   4.298   7.048 -0.4524 -1.1825 -0.1398
   91SAPS  C210 8865   3.960   4.220   6.845  0.4592 -0.4892 -0.7415
   91SAPS  H10R 8866   3.931   4.118   6.879 -0.9044  0.5493  1.4484
   91SAPS  H10S 8867   4.003   4.207   6.744  0.2765 -1.8888 -0.6619
   91SAPS  C211 8868   3.834   4.309   6.823 -0.1339  0.3036 -0.0541
   91SAPS  H11R 8869   3.841   4.361   6.726  0.1007 -2.1378 -1.4416
   91SAPS  C212 8870   3.734   4.321   6.914  0.1261 -0.3230  0.3531
   91SAPS  H12R 8871   3.638   4.363   6.882 -0.3392 -1.9578 -0.5076
   91SAPS  C213 8872   3.721   4.258   7.054  0.2220 -0.1301 -0.0462
   91SAPS  H13R 8873   3.794   4.175   7.060 -3.0494 -3.2842 -0.2200
   91SAPS  H13S 8874   3.617   4.219   7.059 -0.0049  0.0174 -2.4623
   91SAPS  C214 8875   3.755   4.343   7.175 -0.2058  0.2787  0.1848
   91SAPS  H14R 8876   3.784   4.447   7.153  1.0536 -0.3976 -1.5701
   91SAPS  C215 8877   3.749   4.308   7.300 -0.2619  0.9573 -0.2088
   91SAPS  H15R 8878   3.769   4.387   7.375  0.1418  2.0345 -1.4112
   91SAPS  C216 8879   3.702   4.173   7.349 -0.0269  0.6492  0.0860
   91SAPS  H16R 8880   3.659   4.113   7.266  1.8192  2.5414 -2.4106
   91SAPS  H16S 8881   3.622   4.195   7.422  0.7597  1.4832  0.7331
   91SAPS  C217 8882   3.806   4.074   7.400 -0.7586  0.2669  0.2939
   91SAPS  H17R 8883   3.886   4.057   7.325  0.8815  2.5265  1.4157
   91SAPS  H17S 8884   3.751   3.982   7.429 -1.6201  0.0217 -1.9070
   91SAPS  C218 8885   3.872   4.124   7.523  0.5102  0.1665 -0.1844
   91SAPS  H18R 8886   3.931   4.218   7.512 -1.0538  1.0365 -1.6396
   91SAPS  H18S 8887   3.938   4.037   7.545  1.2936  1.3644  2.6897
   91SAPS  C219 8888   3.776   4.142   7.636 -0.1137  0.2983  0.6488
   91SAPS  H19R 8889   3.695   4.067   7.643 -0.3141  0.1983 -1.7373
   91SAPS  H19S 8890   3.724   4.241   7.628 -0.1902  0.2723  0.8278
   91SAPS  C220 8891   3.852   4.150   7.769 -0.0716 -0.2038  0.1233
   91SAPS  H20R 8892   3.866   4.048   7.810 -1.1289  0.4248  2.2191
   91SAPS  H20S 8893   3.788   4.198   7.847 -2.5931 -0.5850 -1.6165
   91SAPS  H20T 8894   3.950   4.202   7.764 -0.3173  0.4960  1.8128
   91SAPS   C33 8895   4.197   3.391   6.647  0.0805  0.1164  0.5948
   91SAPS   H3X 8896   4.288   3.366   6.588  0.3355  0.2452  0.9331
   91SAPS   H3Y 8897   4.118   3.318   6.616 -0.9676 -0.3995  4.0334
   91SAPS   C34 8898   4.217   3.362   6.796 -0.4520 -0.6949  0.2758
   91SAPS   H4X 8899   4.291   3.433   6.839 -1.7372  0.3095  0.9261
   91SAPS   H4Y 8900   4.259   3.259   6.798 -0.3406 -0.6422  0.9215
   91SAPS   C35 8901   4.084   3.365   6.872  0.6008  0.3764  0.4065
   91SAPS   H5X 8902   4.009   3.314   6.808  1.0492 -1.1122  1.0161
   91SAPS   H5Y 8903   4.040   3.465   6.891 -1.1107 -0.3045  0.2416
   91SAPS   C36 8904   4.078   3.305   7.014  0.5313 -0.6645 -0.4265
   91SAPS   H6X 8905   4.159   3.336   7.082  0.9018 -1.6296 -0.4027
   91SAPS   H6Y 8906   4.083   3.196   6.993 -0.2445 -0.3500 -2.5444
   91SAPS   C37 8907   3.948   3.340   7.090 -0.5481  0.7119 -0.0069
   91SAPS   H7X 8908   3.858   3.306   7.034 -0.9026 -0.7993  1.3691
   91SAPS   H7Y 8909   3.945   3.450   7.106  1.9159  0.9999 -1.0902
   91SAPS   C38 8910   3.946   3.276   7.234  0.0791  0.7152  0.3357
   91SAPS   H8X 8911   3.950   3.165   7.229 -1.9750  0.5992  0.5918
   91SAPS   H8Y 8912   3.846   3.304   7.274  0.4958  1.8522  0.6392
   91SAPS   C39 8913   4.053   3.319   7.335 -0.1170  0.2396 -0.6316
   91SAPS   H9X 8914   4.038   3.428   7.354  2.6886  0.5313  0.3098
   91SAPS   H9Y 8915   4.149   3.291   7.286 -0.9966 -1.8196 -1.3121
   91SAPS  C310 8916   4.033   3.248   7.472  0.3215 -0.4886  0.3211
   91SAPS  H10X 8917   4.061   3.145   7.444  2.7422  0.4173 -0.9792
   91SAPS  H10Y 8918   3.927   3.255   7.502  0.2841 -1.6832  0.4972
   91SAPS  C311 8919   4.133   3.297   7.575  0.0052  0.6908 -1.0469
   91SAPS  H11X 8920   4.198   3.381   7.542  2.6058  0.6839  3.3126
   91SAPS  H11Y 8921   4.207   3.217   7.596  0.5874  1.9829  2.5440
   91SAPS  C312 8922   4.062   3.346   7.706  0.1265 -0.6477  0.2344
   91SAPS  H12X 8923   3.985   3.275   7.744  1.2566  0.5731  5.6323
   91SAPS  H12Y 8924   4.013   3.441   7.677  0.7822 -0.3876 -0.0479
   91SAPS  C313 8925   4.170   3.390   7.805 -0.8016  0.7286  0.0330
   91SAPS  H13X 8926   4.240   3.457   7.752  0.1962  1.0239  1.6764
   91SAPS  H13Y 8927   4.215   3.291   7.826 -1.1315  0.3949 -0.7481
   91SAPS  C314 8928   4.109   3.456   7.932 -0.0637  0.4415  0.4230
   91SAPS  H14X 8929   4.000   3.472   7.916 -0.0222  1.0544  0.7202
   91SAPS  H14Y 8930   4.161   3.553   7.952 -0.4211  0.7115  0.0636
   91SAPS  C315 8931   4.127   3.370   8.052  0.2394 -0.0801  0.3315
   91SAPS  H15X 8932   4.234   3.340   8.058 -0.0868 -1.1099  1.3575
   91SAPS  H15Y 8933   4.075   3.272   8.043  0.3654  0.0197 -2.4485
   91SAPS  C316 8934   4.090   3.443   8.182 -0.1138  0.1867 -0.7309
   91SAPS  H16X 8935   4.090   3.374   8.268 -1.1331  0.7248 -0.2808
   91SAPS  H16Y 8936   3.982   3.465   8.167  0.3246  1.8524 -1.7779
   91SAPS  C317 8937   4.159   3.584   8.203  0.8249 -0.1510 -0.0104
   91SAPS  H17X 8938   4.132   3.653   8.120  0.9391  1.3277  1.1457
   91SAPS  H17Y 8939   4.269   3.576   8.213  0.8230 -0.1566  0.0033
   91SAPS  C318 8940   4.112   3.635   8.336 -0.6326 -0.2123 -0.1603
   91SAPS  H18X 8941   4.176   3.607   8.422  0.8239  2.6757 -0.1936
   91SAPS  H18Y 8942   4.006   3.608   8.355 -0.0933 -1.5013  1.1177
   91SAPS  H18Z 8943   4.119   3.745   8.321  0.9848 -0.2612  0.0996
   92SAPS     N 8944   2.685   1.721   6.076 -0.0982  0.4816 -0.4931
   92SAPS   HN1 8945   2.664   1.629   6.119  0.8815  0.2005 -0.5802
   92SAPS   HN2 8946   2.659   1.719   5.975 -0.8308  1.4356 -0.3398
   92SAPS   HN3 8947   2.789   1.731   6.076  0.2033 -1.9995  0.8485
   92SAPS   C12 8948   2.616   1.839   6.138 -0.1594 -0.6879 -0.3668
   92SAPS  H12A 8949   2.672   1.928   6.114  0.6743 -0.8759  0.7689
   92SAPS   C13 8950   2.471   1.847   6.081  0.7285 -0.5542  0.4830
   92SAPS  O13A 8951   2.416   1.762   6.003  0.3896  0.2335  0.8243
   92SAPS  O13B 8952   2.414   1.957   6.098 -0.7358 -0.4871  0.1491
   92SAPS   C11 8953   2.626   1.825   6.295 -0.3353  0.5459  0.5399
   92SAPS  H11A 8954   2.581   1.727   6.323 -0.9702  1.1377  1.6691
   92SAPS  H11B 8955   2.554   1.892   6.348 -1.7515  0.0590 -0.6983
   92SAPS     P 8956   2.805   1.964   6.418 -0.1487 -0.1574 -0.1287
   92SAPS   O13 8957   2.943   1.951   6.460  0.0401  0.2305 -0.6329
   92SAPS   O14 8958   2.781   2.085   6.342  1.2697 -0.1167 -0.9312
   92SAPS   O12 8959   2.761   1.837   6.338  0.0966 -0.5203 -0.2119
   92SAPS   O11 8960   2.712   1.969   6.552  0.1496  0.3259 -0.0502
   92SAPS    C1 8961   2.724   1.856   6.643  0.3219  0.4524 -0.5329
   92SAPS    HA 8962   2.767   1.763   6.601 -1.2240 -1.9025  2.7511
   92SAPS    HB 8963   2.793   1.885   6.724  1.6991  1.3572 -1.9564
   92SAPS    C2 8964   2.583   1.830   6.702  0.1508  0.1920 -0.4084
   92SAPS    HS 8965   2.518   1.806   6.615  1.2164 -2.6469 -0.5063
   92SAPS   O21 8966   2.530   1.954   6.762 -0.8860  0.4225  0.2831
   92SAPS   C21 8967   2.401   1.961   6.779  0.0373  0.2134 -0.2927
   92SAPS   O22 8968   2.323   1.891   6.724 -0.0017 -0.8582 -0.5246
   92SAPS   C22 8969   2.376   2.091   6.856  0.9186 -0.2690 -0.1284
   92SAPS   H2R 8970   2.462   2.126   6.918  0.7202 -0.9071  0.5180
   92SAPS   H2S 8971   2.346   2.170   6.784 -1.2587  0.8490  1.8563
   92SAPS    C3 8972   2.569   1.712   6.806 -0.3892 -0.2485  0.4611
   92SAPS    HX 8973   2.580   1.614   6.755 -1.0680  0.7051 -1.6062
   92SAPS    HY 8974   2.461   1.713   6.830 -0.4122  0.8600  0.3329
   92SAPS   O31 8975   2.656   1.733   6.923  0.9317 -0.4737  0.3347
   92SAPS   C31 8976   2.748   1.645   6.941 -0.5972 -0.6346  0.4159
   92SAPS   O32 8977   2.761   1.540   6.879 -0.3919 -0.1915  0.3528
   92SAPS   C32 8978   2.831   1.685   7.058  0.1110  0.0594 -0.5029
   92SAPS   H2X 8979   2.781   1.754   7.130 -0.7227  0.9471 -1.8825
   92SAPS   H2Y 8980   2.919   1.741   7.021  1.1682 -1.8556 -1.0001
   92SAPS   C23 8981   2.266   2.090   6.964 -0.4594 -0.2441  0.4863
   92SAPS   H3R 8982   2.166   2.111   6.922  0.3190  4.1155  0.3280
   92SAPS   H3S 8983   2.275   2.171   7.040  0.8703  0.0948 -0.0105
   92SAPS   C24 8984   2.266   1.951   7.042 -0.1443 -0.0426 -0.5580
   92SAPS   H4R 8985   2.249   1.870   6.968 -1.3493 -0.1825 -0.1536
   92SAPS   H4S 8986   2.179   1.948   7.112  0.1804 -1.1077 -0.1708
   92SAPS   C25 8987   2.393   1.922   7.123 -0.1734  0.6496 -0.4687
   92SAPS   H5R 8988   2.466   2.005   7.135  1.9109 -1.3261  1.5982
   92SAPS   C26 8989   2.423   1.816   7.193 -0.2149 -0.3790 -0.4686
   92SAPS   H6R 8990   2.519   1.820   7.246 -1.1063  2.4051  1.1544
   92SAPS   C27 8991   2.338   1.692   7.216 -0.6081 -0.0446 -0.0671
   92SAPS   H7R 8992   2.239   1.705   7.167 -1.7218  0.2206  2.1255
   92SAPS   H7S 8993   2.310   1.690   7.323  2.0566  0.4287  0.7057
   92SAPS   C28 8994   2.399   1.559   7.174  0.5892  0.3347  0.4936
   92SAPS   H8R 8995   2.370   1.522   7.075  0.5937  1.2649  0.1311
   92SAPS   C29 8996   2.481   1.482   7.249  0.1504  0.7734 -0.2794
   92SAPS   H9R 8997   2.518   1.388   7.205 -1.4013 -0.1099  0.2241
   92SAPS  C210 8998   2.514   1.515   7.389 -0.1852  0.1950 -0.5482
   92SAPS  H10R 8999   2.436   1.490   7.464 -0.0161 -0.8223 -0.6908
   92SAPS  H10S 9000   2.528   1.625   7.394  0.6682  0.0700  0.2129
   92SAPS  C211 9001   2.640   1.452   7.443 -0.2391 -0.4137  0.4311
   92SAPS  H11R 9002   2.699   1.394   7.370  2.5609  1.2741  1.1912
   92SAPS  C212 9003   2.690   1.468   7.567 -0.1035  0.1760  0.2147
   92SAPS  H12R 9004   2.778   1.411   7.602  1.1440  1.9267  0.0796
   92SAPS  C213 9005   2.617   1.547   7.673  0.4322  0.1050  0.3939
   92SAPS  H13R 9006   2.573   1.470   7.740  0.3236 -0.1992 -0.0275
   92SAPS  H13S 9007   2.527   1.605   7.642 -0.6583 -1.4178  0.6406
   92SAPS  C214 9008   2.713   1.640   7.733  0.1375 -0.1898 -0.5867
   92SAPS  H14R 9009   2.760   1.702   7.656 -1.6776  0.3221 -1.3144
   92SAPS  C215 9010   2.767   1.636   7.856 -0.5132 -0.4743 -0.2065
   92SAPS  H15R 9011   2.836   1.719   7.879 -1.7345 -0.0901  2.3289
   92SAPS  C216 9012   2.741   1.539   7.966 -0.3176  0.2778 -0.3860
   92SAPS  H16R 9013   2.831   1.473   7.967  0.5109  1.2937  2.5143
   92SAPS  H16S 9014   2.648   1.477   7.964  0.5267 -1.0948  0.7961
   92SAPS  C217 9015   2.744   1.619   8.098  0.5428 -0.0063 -0.2635
   92SAPS  H17R 9016   2.830   1.688   8.108 -0.5521  1.7723 -2.2821
   92SAPS  H17S 9017   2.766   1.548   8.181  2.6597 -0.1195 -0.8696
   92SAPS  C218 9018   2.621   1.694   8.122  0.4110  0.0214  0.2075
   92SAPS  H18R 9019   2.534   1.626   8.135 -0.2498  0.1296 -2.9295
   92SAPS  H18S 9020   2.592   1.757   8.036  3.3122  2.2877  0.7231
   92SAPS  C219 9021   2.633   1.786   8.249 -0.3661 -1.2189  0.0540
   92SAPS  H19R 9022   2.552   1.862   8.240  1.8096  1.2079 -0.4424
   92SAPS  H19S 9023   2.732   1.838   8.249  0.0087 -1.8217  2.3161
   92SAPS  C220 9024   2.612   1.726   8.384  0.2059 -0.1420  0.6329
   92SAPS  H20R 9025   2.693   1.650   8.389  1.1551  0.7747 -0.2888
   92SAPS  H20S 9026   2.509   1.687   8.398 -1.1849  2.5057 -1.3369
   92SAPS  H20T 9027   2.624   1.806   8.460 -1.0709 -1.0394  1.8466
   92SAPS   C33 9028   2.883   1.560   7.136 -0.2932  0.3456 -0.4871
   92SAPS   H3X 9029   2.935   1.490   7.067  0.3778  0.3876 -0.0230
   92SAPS   H3Y 9030   2.809   1.501   7.195  0.5539 -1.0001 -0.7249
   92SAPS   C34 9031   2.993   1.593   7.239 -0.1769 -0.7960  0.3173
   92SAPS   H4X 9032   2.966   1.673   7.311  1.1432  1.3994 -1.4645
   92SAPS   H4Y 9033   3.086   1.626   7.188 -0.5043  0.5634  0.5543
   92SAPS   C35 9034   3.038   1.478   7.323 -0.0602  0.2974 -0.5518
   92SAPS   H5X 9035   3.050   1.387   7.261 -1.1078 -0.8681  0.8886
   92SAPS   H5Y 9036   2.964   1.464   7.404  1.5896  0.9912  1.1333
   92SAPS   C36 9037   3.174   1.508   7.379 -0.0051  0.2190  0.1623
   92SAPS   H6X 9038   3.202   1.439   7.461 -2.3534 -0.2353  0.6484
   92SAPS   H6Y 9039   3.178   1.608   7.427 -2.8269  1.0708 -1.1986
   92SAPS   C37 9040   3.286   1.497   7.267  0.0704  0.2406  0.3339
   92SAPS   H7X 9041   3.268   1.558   7.176  0.0137 -1.3033 -0.7218
   92SAPS   H7Y 9042   3.280   1.391   7.237 -0.3658  0.6456 -1.1234
   92SAPS   C38 9043   3.434   1.525   7.312  0.0146  0.4621 -0.2214
   92SAPS   H8X 9044   3.452   1.630   7.343  0.5240 -0.0829  1.3965
   92SAPS   H8Y 9045   3.502   1.505   7.226  0.7928  2.1450 -0.0332
   92SAPS   C39 9046   3.482   1.440   7.429 -0.1332 -0.0645 -0.0639
   92SAPS   H9X 9047   3.466   1.333   7.404  3.8937 -1.0407  0.8971
   92SAPS   H9Y 9048   3.420   1.466   7.518 -2.0312 -0.9436 -1.0640
   92SAPS  C310 9049   3.630   1.470   7.474 -0.0385 -0.0288  0.2664
   92SAPS  H10X 9050   3.635   1.568   7.525  1.3752  0.9653 -1.7019
   92SAPS  H10Y 9051   3.692   1.480   7.383 -2.7369  2.6758 -1.4336
   92SAPS  C311 9052   3.681   1.367   7.572 -0.0916  0.4677 -0.0267
   92SAPS  H11X 9053   3.770   1.410   7.624 -0.1059  1.2507 -0.6284
   92SAPS  H11Y 9054   3.715   1.280   7.511  0.7778  1.1742 -0.5885
   92SAPS  C312 9055   3.591   1.317   7.683  0.3800  0.1068  0.3829
   92SAPS  H12X 9056   3.517   1.245   7.642  0.0453  0.3206  0.6026
   92SAPS  H12Y 9057   3.529   1.399   7.726  0.1770  0.0079  0.2830
   92SAPS  C313 9058   3.677   1.243   7.791 -0.2536  0.2383  0.6247
   92SAPS  H13X 9059   3.750   1.314   7.835  1.7698 -0.4537 -1.4146
   92SAPS  H13Y 9060   3.735   1.159   7.748  2.8180  2.6629 -0.3107
   92SAPS  C314 9061   3.591   1.207   7.910 -0.0494 -0.2527  0.2459
   92SAPS  H14X 9062   3.487   1.185   7.879 -0.9410  0.9825  2.1856
   92SAPS  H14Y 9063   3.581   1.303   7.964  1.2345  0.1540 -0.2039
   92SAPS  C315 9064   3.652   1.102   8.003 -0.6348 -0.4466  1.0202
   92SAPS  H15X 9065   3.755   1.128   8.036 -0.8651  0.3885  1.1169
   92SAPS  H15Y 9066   3.656   0.999   7.964  0.8076 -0.0286 -0.0285
   92SAPS  C316 9067   3.581   1.099   8.141  0.0270 -0.0541  0.4219
   92SAPS  H16X 9068   3.473   1.086   8.119 -0.2390  0.6244  1.2500
   92SAPS  H16Y 9069   3.602   1.191   8.201 -0.5971 -0.1302  0.7621
   92SAPS  C317 9070   3.615   0.978   8.238 -0.0453 -0.7464 -0.2761
   92SAPS  H17X 9071   3.726   0.968   8.230  0.2706  0.2242  2.0024
   92SAPS  H17Y 9072   3.566   0.886   8.202  1.2150 -1.5685  0.0509
   92SAPS  C318 9073   3.569   0.996   8.384 -0.7646 -0.3795  0.0320
   92SAPS  H18X 9074   3.603   1.092   8.429 -0.4184 -1.2731  1.7859
   92SAPS  H18Y 9075   3.581   0.902   8.442  0.3023 -0.3025 -0.0530
   92SAPS  H18Z 9076   3.462   1.024   8.385 -0.3843  1.1704 -0.3782
   93SAPS     N 9077   4.479   2.188   6.214 -0.3756 -0.9778 -0.3999
   93SAPS   HN1 9078   4.542   2.269   6.193  0.7736 -1.5209  0.7805
   93SAPS   HN2 9079   4.387   2.208   6.170 -1.1723  0.0690  1.6140
   93SAPS   HN3 9080   4.459   2.182   6.316 -0.8470 -2.2560 -0.5596
   93SAPS   C12 9081   4.542   2.064   6.160 -0.2978  0.5679 -0.3552
   93SAPS  H12A 9082   4.493   1.985   6.215  1.0136  1.2474  1.9414
   93SAPS   C13 9083   4.517   2.057   6.007 -0.1218  0.2405  0.4111
   93SAPS  O13A 9084   4.490   2.160   5.933  0.5237  0.4867  0.4175
   93SAPS  O13B 9085   4.567   1.953   5.958  0.3583 -0.4390 -0.2005
   93SAPS   C11 9086   4.697   2.065   6.185 -0.7590 -0.7501  0.0084
   93SAPS  H11A 9087   4.733   2.154   6.130 -1.6564 -0.8075 -0.6868
   93SAPS  H11B 9088   4.742   1.973   6.142  0.8561 -0.4933  1.0554
   93SAPS     P 9089   4.791   1.978   6.414 -0.1298 -0.1407  0.2543
   93SAPS   O13 9090   4.690   1.878   6.435 -0.1338  0.4432  0.2422
   93SAPS   O14 9091   4.916   1.927   6.347  0.2252 -0.0283  0.7330
   93SAPS   O12 9092   4.729   2.091   6.323  0.2104  0.0390  0.6014
   93SAPS   O11 9093   4.826   2.050   6.549 -0.3044  0.1834 -0.0212
   93SAPS    C1 9094   4.834   2.186   6.579 -0.2606  0.6579 -0.2964
   93SAPS    HA 9095   4.927   2.216   6.527 -0.1045  0.0242 -0.3946
   93SAPS    HB 9096   4.746   2.241   6.539 -2.0017 -1.8830 -0.2121
   93SAPS    C2 9097   4.861   2.204   6.731  0.1496  0.1242  0.2029
   93SAPS    HS 9098   4.906   2.305   6.744 -1.0596  0.7968 -0.7082
   93SAPS   O21 9099   4.951   2.101   6.779  0.3193 -0.4416  0.1606
   93SAPS   C21 9100   5.072   2.093   6.730 -0.1161 -0.2111 -0.7935
   93SAPS   O22 9101   5.124   2.177   6.656  0.1949  0.1390 -0.0662
   93SAPS   C22 9102   5.136   1.957   6.761 -0.3114 -0.1322  0.1352
   93SAPS   H2R 9103   5.083   1.917   6.850  0.0084 -0.2590  0.2693
   93SAPS   H2S 9104   5.119   1.895   6.671  0.9703 -0.2224 -0.0676
   93SAPS    C3 9105   4.733   2.194   6.817  0.4730  0.2499  0.1946
   93SAPS    HX 9106   4.697   2.092   6.792 -2.0489  0.6088  2.0179
   93SAPS    HY 9107   4.661   2.268   6.776  1.0186  0.2427 -0.8153
   93SAPS   O31 9108   4.758   2.197   6.960 -0.2975 -0.1040  0.2244
   93SAPS   C31 9109   4.642   2.184   7.025  0.5511  0.4159  0.5744
   93SAPS   O32 9110   4.532   2.186   6.975  0.2203  0.2727  0.2726
   93SAPS   C32 9111   4.673   2.146   7.167  0.2092 -0.7582 -0.2060
   93SAPS   H2X 9112   4.775   2.181   7.193 -0.0782 -0.2787  0.3357
   93SAPS   H2Y 9113   4.660   2.038   7.186 -0.2748 -0.6472  0.1412
   93SAPS   C23 9114   5.292   1.964   6.785  0.4241 -0.1160 -0.3945
   93SAPS   H3R 9115   5.330   2.032   6.706  2.3045 -2.3816 -1.5606
   93SAPS   H3S 9116   5.326   1.860   6.765  0.5479 -0.0767 -0.3897
   93SAPS   C24 9117   5.354   2.007   6.921 -0.2219  1.3145  0.1553
   93SAPS   H4R 9118   5.305   2.097   6.966  0.4758  0.2957  3.1417
   93SAPS   H4S 9119   5.460   2.035   6.903 -0.2195  1.4321  0.3501
   93SAPS   C25 9120   5.343   1.889   7.016 -0.4750  0.0385 -0.2413
   93SAPS   H5R 9121   5.239   1.862   7.039 -0.4405  0.8511  1.0211
   93SAPS   C26 9122   5.439   1.844   7.100 -1.2392  0.7088  0.2126
   93SAPS   H6R 9123   5.423   1.772   7.182  0.4710  1.7384  1.5294
   93SAPS   C27 9124   5.579   1.904   7.108 -0.2688 -0.0921  0.3209
   93SAPS   H7R 9125   5.581   1.977   7.192  0.9985  0.4393 -0.1504
   93SAPS   H7S 9126   5.620   1.953   7.018  1.6442 -0.0869  1.1430
   93SAPS   C28 9127   5.689   1.807   7.145  0.0102  0.0973 -0.3523
   93SAPS   H8R 9128   5.664   1.702   7.127 -2.2978  0.5774 -0.2508
   93SAPS   C29 9129   5.809   1.834   7.206  0.0556 -0.6753  0.7773
   93SAPS   H9R 9130   5.873   1.749   7.235  0.5021 -1.0647 -1.1966
   93SAPS  C210 9131   5.843   1.973   7.240 -0.4514  0.8661 -0.3834
   93SAPS  H10R 9132   5.809   2.004   7.341 -0.9501  0.1099 -0.3146
   93SAPS  H10S 9133   5.812   2.048   7.165  0.1632  0.7138 -0.7933
   93SAPS  C211 9134   5.988   1.983   7.231 -0.6735  0.6337 -0.0078
   93SAPS  H11R 9135   6.029   1.950   7.135 -2.4106  1.1038 -0.9456
   93SAPS  C212 9136   6.073   2.045   7.324  0.2005  0.2443 -0.1440
   93SAPS  H12R 9137   6.179   2.061   7.296  0.5401 -1.4190  0.0779
   93SAPS  C213 9138   6.018   2.111   7.440  0.3403  0.6279  0.1171
   93SAPS  H13R 9139   5.931   2.055   7.481  0.0524  1.9776  1.4603
   93SAPS  H13S 9140   5.972   2.208   7.413  1.7020  1.1426 -0.4360
   93SAPS  C214 9141   6.114   2.126   7.559  0.4432 -0.4723  0.0069
   93SAPS  H14R 9142   6.211   2.167   7.527  0.7012 -2.6906 -2.4322
   93SAPS  C215 9143   6.101   2.083   7.689 -0.2502  0.2092  0.8029
   93SAPS  H15R 9144   6.188   2.090   7.757 -0.2384  0.7797  0.7359
   93SAPS  C216 9145   5.987   2.018   7.759  0.1277 -0.2256  0.0609
   93SAPS  H16R 9146   6.031   1.934   7.818  1.0533  0.5588  0.5258
   93SAPS  H16S 9147   5.901   1.983   7.699  1.3130 -2.9587 -0.1857
   93SAPS  C217 9148   5.925   2.110   7.862 -0.3251 -0.0220  0.3812
   93SAPS  H17R 9149   6.012   2.165   7.904 -1.0517  1.5493 -0.0972
   93SAPS  H17S 9150   5.869   2.052   7.938  0.0062 -0.0289  0.6228
   93SAPS  C218 9151   5.822   2.212   7.806  0.1523 -0.7683 -0.2619
   93SAPS  H18R 9152   5.756   2.155   7.738 -1.0775  0.9746 -0.5974
   93SAPS  H18S 9153   5.874   2.289   7.745  0.5108 -1.2971 -0.6310
   93SAPS  C219 9154   5.742   2.282   7.916  0.0514 -0.1321  0.9099
   93SAPS  H19R 9155   5.703   2.374   7.868  1.7948  0.2270  0.0887
   93SAPS  H19S 9156   5.810   2.310   7.999  0.8369 -0.4051  0.3731
   93SAPS  C220 9157   5.624   2.192   7.972 -0.9483  0.0036  0.2313
   93SAPS  H20R 9158   5.673   2.100   8.009 -0.2758 -0.6108 -2.0595
   93SAPS  H20S 9159   5.563   2.161   7.885  2.7253  0.6189 -2.8523
   93SAPS  H20T 9160   5.559   2.241   8.047  0.0317  1.1327  0.3786
   93SAPS   C33 9161   4.581   2.210   7.269 -0.0514  0.2904 -0.9648
   93SAPS   H3X 9162   4.475   2.185   7.250 -0.3349  0.7451 -0.0497
   93SAPS   H3Y 9163   4.598   2.320   7.276 -1.1508  0.3950  0.4702
   93SAPS   C34 9164   4.600   2.142   7.404 -0.2785 -0.0306  0.6447
   93SAPS   H4X 9165   4.545   2.046   7.410  0.3884 -0.5321 -1.0251
   93SAPS   H4Y 9166   4.554   2.206   7.484  1.1846  1.9494 -0.0139
   93SAPS   C35 9167   4.743   2.118   7.437 -0.0101  0.2280 -0.4784
   93SAPS   H5X 9168   4.806   2.203   7.405 -0.6571  0.6562 -0.6337
   93SAPS   H5Y 9169   4.788   2.042   7.370  3.0965 -0.6175  2.3174
   93SAPS   C36 9170   4.757   2.067   7.580 -0.0776 -0.1555  0.0076
   93SAPS   H6X 9171   4.703   1.970   7.594 -0.4836  0.2950  1.8777
   93SAPS   H6Y 9172   4.720   2.139   7.656 -0.0079 -0.9806  0.8497
   93SAPS   C37 9173   4.910   2.040   7.611  0.6558 -0.0608  0.8540
   93SAPS   H7X 9174   4.969   2.133   7.600  0.3307  0.0924  0.4017
   93SAPS   H7Y 9175   4.956   1.967   7.541 -2.2058 -0.9227 -0.3089
   93SAPS   C38 9176   4.928   1.988   7.761 -0.3966  0.2206  0.2840
   93SAPS   H8X 9177   4.889   2.064   7.832  1.8554  0.1057  1.7603
   93SAPS   H8Y 9178   5.037   1.971   7.774 -0.7347 -1.3416  1.3581
   93SAPS   C39 9179   4.859   1.857   7.774 -0.2373  0.2962  0.3847
   93SAPS   H9X 9180   4.873   1.803   7.678  0.3138 -0.0262  0.6377
   93SAPS   H9Y 9181   4.750   1.870   7.790 -0.0684  1.4355  0.6811
   93SAPS  C310 9182   4.925   1.777   7.881  0.0465 -0.8399  0.1075
   93SAPS  H10X 9183   5.032   1.762   7.855  0.6151  0.2719  1.6556
   93SAPS  H10Y 9184   4.874   1.679   7.890  0.0882 -0.7611  1.3485
   93SAPS  C311 9185   4.906   1.856   8.012 -0.1918  0.2084 -0.6964
   93SAPS  H11X 9186   4.797   1.869   8.030 -0.2092 -0.7754  0.0175
   93SAPS  H11Y 9187   4.963   1.952   8.013  1.5495 -0.7675  0.7154
   93SAPS  C312 9188   4.964   1.776   8.137  0.2460  0.0892  0.9564
   93SAPS  H12X 9189   5.073   1.761   8.118  0.3770  2.1917 -0.1708
   93SAPS  H12Y 9190   4.913   1.677   8.139  0.8058 -0.3134 -1.5352
   93SAPS  C313 9191   4.939   1.842   8.272  0.3773 -0.3522 -0.0566
   93SAPS  H13X 9192   4.829   1.855   8.269  0.5009  1.0814  0.7952
   93SAPS  H13Y 9193   4.995   1.938   8.272 -1.5086  0.8232  1.0140
   93SAPS  C314 9194   4.971   1.755   8.394 -0.1240  0.1365  0.0269
   93SAPS  H14X 9195   5.082   1.751   8.399 -0.1361 -0.5548 -0.2322
   93SAPS  H14Y 9196   4.925   1.655   8.384  1.6971 -1.2019  3.3315
   93SAPS  C315 9197   4.913   1.818   8.527 -0.0420  0.2853 -0.1583
   93SAPS  H15X 9198   4.932   1.755   8.616 -0.2493  0.8485  0.2894
   93SAPS  H15Y 9199   4.803   1.807   8.520 -0.1194 -1.3441  2.3212
   93SAPS  C316 9200   4.942   1.965   8.563  0.9426  0.1469  0.7070
   93SAPS  H16X 9201   4.940   2.039   8.481  0.6764  0.6857  1.1926
   93SAPS  H16Y 9202   5.049   1.977   8.592  1.0616  0.2486  0.2316
   93SAPS  C317 9203   4.855   2.019   8.668 -0.1937  0.0104 -0.3430
   93SAPS  H17X 9204   4.758   2.034   8.615  0.6581  0.0751 -1.9307
   93SAPS  H17Y 9205   4.877   2.126   8.692  1.8293 -0.1179 -1.4101
   93SAPS  C318 9206   4.840   1.940   8.799 -0.1121 -0.0309  0.3165
   93SAPS  H18X 9207   4.758   1.977   8.865 -0.9877  2.1990 -1.8499
   93SAPS  H18Y 9208   4.939   1.935   8.850  1.7840  0.7904 -2.9979
   93SAPS  H18Z 9209   4.803   1.838   8.777 -1.5505  0.2627  1.2527
   94SAPS     N 9210   5.028   4.228   5.685  0.3584 -0.2422 -0.4998
   94SAPS   HN1 9211   5.099   4.156   5.711  0.3105 -0.3940 -0.7801
   94SAPS   HN2 9212   4.963   4.190   5.613 -0.5366  1.8582 -0.8753
   94SAPS   HN3 9213   5.070   4.317   5.650 -3.2943  1.2699 -1.4978
   94SAPS   C12 9214   4.935   4.243   5.796  0.0376  0.3405  0.3728
   94SAPS  H12A 9215   4.946   4.346   5.826 -0.0671  0.2481  0.7335
   94SAPS   C13 9216   4.791   4.212   5.757 -0.4976 -0.0388  0.3259
   94SAPS  O13A 9217   4.769   4.176   5.635 -0.0726 -0.4829 -0.2609
   94SAPS  O13B 9218   4.703   4.267   5.822 -0.1251 -0.5179  0.2065
   94SAPS   C11 9219   4.985   4.144   5.900 -0.1015 -0.4230  0.0019
   94SAPS  H11A 9220   4.910   4.158   5.981 -0.8801 -0.4170 -0.7016
   94SAPS  H11B 9221   5.076   4.188   5.946 -1.0853 -0.9111  2.5909
   94SAPS     P 9222   5.077   3.906   5.945  0.0480 -0.2848  0.0581
   94SAPS   O13 9223   5.031   3.762   5.917 -0.3547 -0.4865 -0.1018
   94SAPS   O14 9224   5.221   3.939   5.922  0.5036 -0.0699 -0.4486
   94SAPS   O12 9225   4.988   4.007   5.865  0.0862  0.4479  0.3462
   94SAPS   O11 9226   5.044   3.953   6.092 -0.1984 -0.1544  0.0815
   94SAPS    C1 9227   4.911   3.959   6.136  0.4044  0.0654  0.2072
   94SAPS    HA 9228   4.845   4.003   6.058  1.0970 -0.6865 -0.8339
   94SAPS    HB 9229   4.875   3.855   6.146  0.5449  0.0234  0.2756
   94SAPS    C2 9230   4.913   4.031   6.272 -0.1190  0.0115  0.3243
   94SAPS    HS 9231   4.960   4.130   6.257 -0.4489  0.1035 -0.1038
   94SAPS   O21 9232   4.992   3.938   6.353  0.0771 -0.5500  1.0411
   94SAPS   C21 9233   5.041   3.996   6.459 -0.6586 -0.0576  0.0541
   94SAPS   O22 9234   5.052   4.116   6.469 -0.5079 -0.1635 -0.0994
   94SAPS   C22 9235   5.091   3.883   6.555 -0.5762 -0.0287 -0.2758
   94SAPS   H2R 9236   5.148   3.812   6.492 -0.1055  0.3334 -0.2622
   94SAPS   H2S 9237   5.163   3.924   6.629  0.3960  1.2175 -1.8679
   94SAPS    C3 9238   4.763   4.045   6.321 -0.4054  0.4841 -0.2427
   94SAPS    HX 9239   4.715   3.945   6.316  0.7005 -0.0886  0.2494
   94SAPS    HY 9240   4.700   4.107   6.254 -1.2815  1.4309  1.4151
   94SAPS   O31 9241   4.749   4.098   6.454 -0.2187  0.3261  0.9172
   94SAPS   C31 9242   4.763   4.231   6.461  0.2604 -0.3405 -0.0198
   94SAPS   O32 9243   4.771   4.307   6.365 -0.5832  0.2077 -0.6025
   94SAPS   C32 9244   4.766   4.282   6.610 -0.4632 -0.1994 -0.1316
   94SAPS   H2X 9245   4.703   4.373   6.623 -2.1302 -1.5057  1.4720
   94SAPS   H2Y 9246   4.866   4.323   6.632 -1.6334  2.0557  1.3459
   94SAPS   C23 9247   4.971   3.814   6.626  0.3485  0.4958 -0.8480
   94SAPS   H3R 9248   4.895   3.762   6.563  1.2509 -1.3986 -0.4621
   94SAPS   H3S 9249   4.923   3.887   6.695  2.7775  0.6489  0.8035
   94SAPS   C24 9250   5.026   3.710   6.718  0.2803  0.6313 -0.4864
   94SAPS   H4R 9251   5.089   3.633   6.668  2.5072  2.3432 -0.4848
   94SAPS   H4S 9252   4.941   3.664   6.772  1.0768 -1.8089 -1.1579
   94SAPS   C25 9253   5.106   3.758   6.837  0.1713  0.0956  0.8369
   94SAPS   H5R 9254   5.202   3.801   6.806 -0.4543  0.4840 -0.6848
   94SAPS   C26 9255   5.082   3.749   6.971  0.2554  0.7153  0.2589
   94SAPS   H6R 9256   5.167   3.783   7.031  1.3811  0.1636 -0.9679
   94SAPS   C27 9257   4.958   3.689   7.031  0.4465  0.0956 -0.2818
   94SAPS   H7R 9258   4.903   3.611   6.973 -0.1858  0.3420 -0.0142
   94SAPS   H7S 9259   4.890   3.776   7.043  1.5159  0.5337  4.4034
   94SAPS   C28 9260   4.982   3.634   7.168 -0.4246  0.5647  0.5259
   94SAPS   H8R 9261   5.062   3.558   7.173 -1.0247 -0.1116  0.0013
   94SAPS   C29 9262   4.919   3.659   7.280 -0.3227  0.0210 -0.2380
   94SAPS   H9R 9263   4.942   3.601   7.371  0.0314  2.4811  1.3300
   94SAPS  C210 9264   4.799   3.757   7.278 -0.3198  0.4834 -0.0261
   94SAPS  H10R 9265   4.731   3.732   7.362  0.0165  1.1066  0.4363
   94SAPS  H10S 9266   4.743   3.726   7.187 -1.2453 -0.1556  0.7437
   94SAPS  C211 9267   4.840   3.902   7.286  0.6436  0.2389  0.5457
   94SAPS  H11R 9268   4.860   3.941   7.185  0.1672 -1.6802 -0.3383
   94SAPS  C212 9269   4.830   3.992   7.388  0.0101  0.6443 -0.0097
   94SAPS  H12R 9270   4.875   4.092   7.379 -0.6884  1.4090  3.3618
   94SAPS  C213 9271   4.771   3.954   7.525 -0.1846  0.0386 -0.2515
   94SAPS  H13R 9272   4.777   3.844   7.535  1.2215  0.1532  0.5459
   94SAPS  H13S 9273   4.664   3.981   7.539  0.3837  2.5860 -0.3569
   94SAPS  C214 9274   4.839   4.028   7.637  0.1817 -1.3596  0.5501
   94SAPS  H14R 9275   4.948   4.021   7.622  0.1334  0.5321 -1.1466
   94SAPS  C215 9276   4.795   4.092   7.740 -0.0363  0.3705  0.2101
   94SAPS  H15R 9277   4.869   4.141   7.806  1.6230 -1.7363  0.0479
   94SAPS  C216 9278   4.647   4.098   7.780 -0.3250 -0.2474 -0.6674
   94SAPS  H16R 9279   4.596   4.002   7.754  0.1503 -0.7441  0.1844
   94SAPS  H16S 9280   4.607   4.190   7.733  2.6211  0.6164 -1.7189
   94SAPS  C217 9281   4.624   4.120   7.934  0.2789 -0.1927  1.1343
   94SAPS  H17R 9282   4.522   4.162   7.950 -0.0023 -0.8433  1.0665
   94SAPS  H17S 9283   4.688   4.208   7.956 -0.0299  0.1816  0.5646
   94SAPS  C218 9284   4.658   4.006   8.032 -0.1188 -0.1077 -0.1650
   94SAPS  H18R 9285   4.763   3.976   8.015  0.2669  2.6261 -3.9196
   94SAPS  H18S 9286   4.584   3.926   8.015  0.4876 -0.3696 -1.6980
   94SAPS  C219 9287   4.644   4.046   8.183 -0.4135 -0.1855  0.4871
   94SAPS  H19R 9288   4.689   4.146   8.197  2.3325 -0.9406 -2.0162
   94SAPS  H19S 9289   4.697   3.972   8.247  2.0018 -1.2009 -2.4512
   94SAPS  C220 9290   4.499   4.064   8.225  0.2320 -0.4677 -0.0375
   94SAPS  H20R 9291   4.452   4.155   8.183  2.8594  0.9494 -0.1004
   94SAPS  H20S 9292   4.488   4.078   8.335 -3.1887 -0.2536 -0.2930
   94SAPS  H20T 9293   4.433   3.977   8.202  1.1716 -1.7581  1.8602
   94SAPS   C33 9294   4.733   4.177   6.711  1.4358 -0.8437 -0.0731
   94SAPS   H3X 9295   4.825   4.114   6.716  2.2955  0.2510 -1.2275
   94SAPS   H3Y 9296   4.641   4.120   6.684 -1.4276  2.3638  2.0988
   94SAPS   C34 9297   4.706   4.252   6.844 -0.9868 -0.7206  0.5077
   94SAPS   H4X 9298   4.617   4.318   6.834  0.6538  1.3487 -1.5272
   94SAPS   H4Y 9299   4.793   4.315   6.872 -2.2475  1.3761 -0.0841
   94SAPS   C35 9300   4.665   4.156   6.954  0.4042 -0.5821  0.0357
   94SAPS   H5X 9301   4.738   4.073   6.959 -1.8769 -2.7242  0.2757
   94SAPS   H5Y 9302   4.582   4.096   6.910  2.9523 -2.7578 -2.2059
   94SAPS   C36 9303   4.644   4.232   7.090 -1.3453 -0.3449  0.1428
   94SAPS   H6X 9304   4.712   4.320   7.096 -0.3224 -1.1838  1.7170
   94SAPS   H6Y 9305   4.675   4.176   7.181 -0.7890  1.4632  1.1129
   94SAPS   C37 9306   4.502   4.267   7.121  0.0204 -0.8794 -0.1845
   94SAPS   H7X 9307   4.436   4.178   7.115 -0.5422 -0.4890  0.1393
   94SAPS   H7Y 9308   4.473   4.339   7.041 -1.1276  0.2975  1.2103
   94SAPS   C38 9309   4.498   4.348   7.255  0.0061  0.2966  0.6640
   94SAPS   H8X 9310   4.559   4.437   7.233  0.6337 -0.8710 -3.0580
   94SAPS   H8Y 9311   4.547   4.316   7.349 -0.4723  0.7089  1.0637
   94SAPS   C39 9312   4.357   4.384   7.286 -0.7910  0.2901 -0.4150
   94SAPS   H9X 9313   4.307   4.436   7.202 -0.3801 -2.4087 -2.4646
   94SAPS   H9Y 9314   4.355   4.464   7.363  0.0316 -2.4210  2.6488
   94SAPS  C310 9315   4.268   4.264   7.329 -0.2499 -0.1937 -0.2952
   94SAPS  H10X 9316   4.261   4.200   7.239  0.3376 -0.8883  0.1483
   94SAPS  H10Y 9317   4.167   4.309   7.346 -0.2790  0.9921 -2.9784
   94SAPS  C311 9318   4.313   4.178   7.448 -0.2692  0.1484 -0.2982
   94SAPS  H11X 9319   4.401   4.117   7.420 -1.6042 -1.2901 -1.6344
   94SAPS  H11Y 9320   4.237   4.106   7.485 -0.1492  0.4985  0.6499
   94SAPS  C312 9321   4.361   4.274   7.565  0.1208 -0.0620 -0.3814
   94SAPS  H12X 9322   4.434   4.347   7.527 -0.5987  0.3898 -0.9104
   94SAPS  H12Y 9323   4.425   4.205   7.623 -1.0699 -0.6333  0.3088
   94SAPS  C313 9324   4.254   4.362   7.636  0.1016 -0.2712 -0.1777
   94SAPS  H13X 9325   4.189   4.292   7.693  0.5228  0.4019  1.1597
   94SAPS  H13Y 9326   4.195   4.412   7.555  1.3828 -0.1420 -1.0611
   94SAPS  C314 9327   4.317   4.452   7.739 -0.1322 -0.7601  0.3734
   94SAPS  H14X 9328   4.385   4.526   7.692 -0.0133  1.2355  3.4500
   94SAPS  H14Y 9329   4.383   4.384   7.796 -1.0690 -1.3906  0.7324
   94SAPS  C315 9330   4.208   4.520   7.818  0.0685  0.2419 -0.0178
   94SAPS  H15X 9331   4.127   4.446   7.836  1.5788 -1.2645  0.8517
   94SAPS  H15Y 9332   4.179   4.601   7.748  0.9181 -0.6795 -1.4947
   94SAPS  C316 9333   4.253   4.564   7.964 -0.1380  0.2394  1.2630
   94SAPS  H16X 9334   4.221   4.670   7.978  0.4130  0.6241 -0.2618
   94SAPS  H16Y 9335   4.363   4.576   7.965 -0.1340  0.3053  0.5681
   94SAPS  C317 9336   4.216   4.457   8.073  0.3763  0.2266  0.5812
   94SAPS  H17X 9337   4.267   4.361   8.047  0.7703  0.6896 -0.4245
   94SAPS  H17Y 9338   4.108   4.437   8.058  0.1624  1.9565 -0.4390
   94SAPS  C318 9339   4.246   4.503   8.218  0.4712 -0.1007 -0.6125
   94SAPS  H18X 9340   4.222   4.611   8.226  1.9552  0.4127 -2.3069
   94SAPS  H18Y 9341   4.351   4.487   8.250 -0.2135 -2.0491  0.9059
   94SAPS  H18Z 9342   4.194   4.428   8.281  1.9658 -1.7752 -1.2844
   95SAPS     N 9343   0.020   1.909   6.090 -0.0636  0.3827  0.1320
   95SAPS   HN1 9344  -0.035   1.828   6.125 -0.1711  0.4018  0.0063
   95SAPS   HN2 9345   0.049   1.968   6.171 -1.8064 -1.7708  2.5001
   95SAPS   HN3 9346  -0.049   1.968   6.038 -2.1558 -1.3904  0.7374
   95SAPS   C12 9347   0.129   1.861   6.001  0.0330 -0.1201 -0.3811
   95SAPS  H12A 9348   0.180   1.784   6.057 -0.6224 -0.7223 -0.6044
   95SAPS   C13 9349   0.093   1.819   5.860  0.2098 -0.4579  0.0277
   95SAPS  O13A 9350  -0.017   1.854   5.805 -0.1833  0.1633 -0.1163
   95SAPS  O13B 9351   0.188   1.767   5.799 -0.4656  0.5679  0.6444
   95SAPS   C11 9352   0.236   1.973   5.995  0.4815  0.6417 -0.1879
   95SAPS  H11A 9353   0.177   2.054   5.947 -1.3740  1.2364  2.8327
   95SAPS  H11B 9354   0.320   1.939   5.930  1.3608  3.6371 -0.7927
   95SAPS     P 9355   0.415   2.057   6.175  0.1559 -0.2695  0.2824
   95SAPS   O13 9356   0.504   1.942   6.172 -0.5480 -0.1056 -0.5410
   95SAPS   O14 9357   0.471   2.169   6.100 -0.3667  0.4347  0.3117
   95SAPS   O12 9358   0.268   2.010   6.136  0.6397 -1.1410  0.3627
   95SAPS   O11 9359   0.408   2.113   6.323  0.2504  0.3278 -1.0019
   95SAPS    C1 9360   0.297   2.087   6.410 -0.1805  0.7589 -0.1701
   95SAPS    HA 9361   0.211   2.156   6.400 -2.9842 -1.8833  3.1641
   95SAPS    HB 9362   0.258   1.983   6.397  0.0562  0.5130  1.0070
   95SAPS    C2 9363   0.334   2.094   6.563 -0.0279  0.0194  0.0602
   95SAPS    HS 9364   0.381   2.193   6.580  0.0783  0.0423 -0.3638
   95SAPS   O21 9365   0.427   1.990   6.603  0.5111 -0.5805 -0.3240
   95SAPS   C21 9366   0.521   2.030   6.697 -0.4228  0.1981 -0.7297
   95SAPS   O22 9367   0.526   2.139   6.748 -0.3940 -0.3366 -0.1511
   95SAPS   C22 9368   0.612   1.914   6.733  0.0876 -0.1322  0.5079
   95SAPS   H2R 9369   0.557   1.819   6.717 -0.0529 -0.1236  0.9236
   95SAPS   H2S 9370   0.700   1.923   6.666  0.0743 -1.1467  0.3370
   95SAPS    C3 9371   0.203   2.086   6.652 -0.1829  0.4164 -0.7714
   95SAPS    HX 9372   0.160   1.987   6.625 -1.8369  1.4762 -2.2341
   95SAPS    HY 9373   0.124   2.157   6.619 -1.7140 -1.2416 -0.8079
   95SAPS   O31 9374   0.231   2.088   6.796 -0.5788 -0.0776 -0.6054
   95SAPS   C31 9375   0.234   2.208   6.853 -0.2979  0.6408 -1.0300
   95SAPS   O32 9376   0.215   2.309   6.789  0.0677 -0.1623  0.1597
   95SAPS   C32 9377   0.260   2.193   7.004  0.4179 -0.1916 -0.2166
   95SAPS   H2X 9378   0.369   2.175   7.004  0.5081  0.3183  1.0171
   95SAPS   H2Y 9379   0.214   2.099   7.040  0.1590  0.2495  0.6327
   95SAPS   C23 9380   0.668   1.918   6.879 -0.4823  0.3171  0.0349
   95SAPS   H3R 9381   0.589   1.937   6.955  0.3539  1.6163  0.6176
   95SAPS   H3S 9382   0.736   2.005   6.882 -0.7637  0.5141  1.7854
   95SAPS   C24 9383   0.758   1.791   6.908  0.0404 -0.0859 -0.3785
   95SAPS   H4R 9384   0.837   1.775   6.831  0.0696 -1.5572 -0.0652
   95SAPS   H4S 9385   0.695   1.700   6.910 -3.1948  1.9600 -0.7013
   95SAPS   C25 9386   0.821   1.800   7.045  0.8982  0.3287  0.0800
   95SAPS   H5R 9387   0.900   1.874   7.065 -0.2310  1.1747  1.6328
   95SAPS   C26 9388   0.784   1.719   7.151 -0.0596  0.0424  0.9729
   95SAPS   H6R 9389   0.840   1.736   7.245  0.1843  2.1219  0.5002
   95SAPS   C27 9390   0.684   1.612   7.165 -0.1288  0.0510  0.5022
   95SAPS   H7R 9391   0.638   1.572   7.072 -2.3563 -0.0419  1.5647
   95SAPS   H7S 9392   0.599   1.641   7.231 -0.1442  1.9885 -0.2765
   95SAPS   C28 9393   0.748   1.492   7.223 -0.5816  0.2928 -0.4706
   95SAPS   H8R 9394   0.798   1.425   7.152 -0.7005 -1.9289  1.4079
   95SAPS   C29 9395   0.764   1.464   7.353  0.1076 -0.5000 -0.2714
   95SAPS   H9R 9396   0.814   1.371   7.384 -0.8141 -0.6095  0.9544
   95SAPS  C210 9397   0.709   1.547   7.467 -0.2849 -0.1465 -0.1636
   95SAPS  H10R 9398   0.665   1.476   7.540  0.2620  0.9264  1.2880
   95SAPS  H10S 9399   0.636   1.627   7.444 -0.2033 -0.2011 -0.6067
   95SAPS  C211 9400   0.815   1.619   7.554  0.2395  0.0873  0.1981
   95SAPS  H11R 9401   0.910   1.645   7.505 -0.5839  1.7601 -0.6198
   95SAPS  C212 9402   0.806   1.651   7.682  0.1118 -0.3905 -0.3411
   95SAPS  H12R 9403   0.889   1.706   7.730 -0.6145 -1.2185  2.0029
   95SAPS  C213 9404   0.682   1.645   7.773  0.5752  0.5430  0.5827
   95SAPS  H13R 9405   0.716   1.607   7.872  0.8478 -1.4123 -0.2072
   95SAPS  H13S 9406   0.627   1.556   7.736  2.3910 -0.5227  0.3565
   95SAPS  C214 9407   0.584   1.758   7.776  0.2061 -0.6174 -0.2706
   95SAPS  H14R 9408   0.613   1.838   7.706  1.1412  2.0515  2.9023
   95SAPS  C215 9409   0.473   1.778   7.857 -0.5409  0.1859  0.5646
   95SAPS  H15R 9410   0.402   1.857   7.829 -1.3808 -0.8184 -0.1962
   95SAPS  C216 9411   0.424   1.693   7.969  0.4477 -0.0114  0.2037
   95SAPS  H16R 9412   0.446   1.748   8.062 -1.6356 -0.3234  0.9280
   95SAPS  H16S 9413   0.477   1.596   7.975  0.4920 -0.0773 -0.9159
   95SAPS  C217 9414   0.268   1.672   7.959  0.1483 -0.1977  1.0118
   95SAPS  H17R 9415   0.244   1.639   7.855  0.8659  1.1278  0.4037
   95SAPS  H17S 9416   0.214   1.768   7.969 -2.9619 -1.8863  1.7653
   95SAPS  C218 9417   0.206   1.563   8.045  0.2075  0.2707 -0.9653
   95SAPS  H18R 9418   0.293   1.499   8.071 -1.9383 -2.0043  1.3280
   95SAPS  H18S 9419   0.138   1.488   7.997 -0.5537  0.7687 -0.6905
   95SAPS  C219 9420   0.152   1.613   8.183 -0.1704 -0.2066  0.2366
   95SAPS  H19R 9421   0.217   1.695   8.219  0.1481 -0.5474  0.4477
   95SAPS  H19S 9422   0.152   1.531   8.258 -0.3407  1.0139  1.5971
   95SAPS  C220 9423   0.005   1.653   8.164  0.1053  1.2006 -0.0409
   95SAPS  H20R 9424  -0.030   1.682   8.266  1.0214  0.6418  0.4411
   95SAPS  H20S 9425  -0.053   1.568   8.123  0.0990  1.4709 -0.6071
   95SAPS  H20T 9426  -0.004   1.739   8.094 -0.9969 -0.3625 -1.9211
   95SAPS   C33 9427   0.235   2.322   7.092  0.5977 -0.5979  0.0413
   95SAPS   H3X 9428   0.131   2.358   7.080  0.6947 -0.8502 -1.7565
   95SAPS   H3Y 9429   0.301   2.405   7.059 -1.8083  1.8341  1.0080
   95SAPS   C34 9430   0.261   2.301   7.243  0.0982 -0.4765  0.3115
   95SAPS   H4X 9431   0.370   2.292   7.261  0.1360 -2.4468 -0.6557
   95SAPS   H4Y 9432   0.213   2.208   7.281 -1.4138  0.0644 -0.1674
   95SAPS   C35 9433   0.209   2.413   7.332  0.5481  0.2364  1.0706
   95SAPS   H5X 9434   0.102   2.439   7.319  1.2522  2.7966 -0.2546
   95SAPS   H5Y 9435   0.233   2.516   7.299 -1.0240  1.4059  3.2330
   95SAPS   C36 9436   0.255   2.408   7.475 -0.0080 -0.9542  0.1671
   95SAPS   H6X 9437   0.363   2.435   7.477 -0.6725  2.3893 -1.2566
   95SAPS   H6Y 9438   0.244   2.310   7.526  0.2145 -0.4062  1.2850
   95SAPS   C37 9439   0.181   2.513   7.562 -0.4673  0.2677 -0.2085
   95SAPS   H7X 9440   0.074   2.486   7.571  0.3554 -3.0875  1.0866
   95SAPS   H7Y 9441   0.196   2.609   7.508  0.1785  0.2753 -0.0193
   95SAPS   C38 9442   0.241   2.543   7.703 -0.2859  0.8804  0.8984
   95SAPS   H8X 9443   0.342   2.579   7.676  0.6401 -1.3201  1.1764
   95SAPS   H8Y 9444   0.256   2.457   7.772  0.0824  1.0531  1.0367
   95SAPS   C39 9445   0.181   2.652   7.787 -0.0410  0.0668  0.6518
   95SAPS   H9X 9446   0.087   2.619   7.835  0.0744 -1.3822 -0.0867
   95SAPS   H9Y 9447   0.153   2.733   7.716 -0.1544  0.3963  1.0664
   95SAPS  C310 9448   0.279   2.690   7.900  0.2628  0.5524  0.5146
   95SAPS  H10X 9449   0.356   2.762   7.866  0.2023  0.5072  0.2803
   95SAPS  H10Y 9450   0.326   2.598   7.940 -0.2985  0.1904  0.3660
   95SAPS  C311 9451   0.211   2.741   8.033 -0.0687 -1.1480  0.1912
   95SAPS  H11X 9452   0.142   2.662   8.070 -1.3700  0.7868  2.0694
   95SAPS  H11Y 9453   0.150   2.832   8.014  0.9010 -0.4664  0.2950
   95SAPS  C312 9454   0.305   2.784   8.138  0.9247 -0.1242  0.3873
   95SAPS  H12X 9455   0.371   2.869   8.110 -0.7108  0.6135 -1.4557
   95SAPS  H12Y 9456   0.372   2.696   8.147 -1.3176 -2.4268 -3.1765
   95SAPS  C313 9457   0.223   2.828   8.257 -0.2211 -0.3691 -0.2245
   95SAPS  H13X 9458   0.129   2.768   8.265 -0.0602 -0.4766  1.1860
   95SAPS  H13Y 9459   0.202   2.936   8.250 -1.0664 -0.5051  0.0531
   95SAPS  C314 9460   0.296   2.792   8.389 -0.4954  0.5108 -0.2448
   95SAPS  H14X 9461   0.380   2.865   8.392 -0.4383  0.5854 -2.4743
   95SAPS  H14Y 9462   0.335   2.689   8.376 -3.1234 -0.5386 -0.3199
   95SAPS  C315 9463   0.204   2.810   8.509  0.2549 -0.8844 -0.6211
   95SAPS  H15X 9464   0.111   2.751   8.493 -0.9015  0.3893  1.0269
   95SAPS  H15Y 9465   0.172   2.916   8.507 -0.1850 -0.9209  1.4646
   95SAPS  C316 9466   0.270   2.781   8.635 -0.4928  0.3194 -0.7889
   95SAPS  H16X 9467   0.367   2.833   8.643  1.5990 -3.5209  2.2096
   95SAPS  H16Y 9468   0.296   2.673   8.629  0.6445  0.6644 -2.8976
   95SAPS  C317 9469   0.193   2.807   8.761  0.2715  0.2073  0.8824
   95SAPS  H17X 9470   0.278   2.781   8.827  0.3195  0.0232  0.7489
   95SAPS  H17Y 9471   0.111   2.733   8.774  0.0943 -0.1134 -1.5936
   95SAPS  C318 9472   0.151   2.953   8.784 -0.3981  0.2569 -0.1038
   95SAPS  H18X 9473   0.227   3.034   8.773 -3.0347  2.9069 -0.0555
   95SAPS  H18Y 9474   0.111   2.951   8.887 -0.9448  0.2163 -0.3113
   95SAPS  H18Z 9475   0.066   2.997   8.727  1.1337  2.3197 -0.9337
   96SAPS     N 9476   2.720   4.568   6.133 -0.5647  0.2579 -0.0330
   96SAPS   HN1 9477   2.808   4.517   6.112 -0.8320  1.2813 -5.1182
   96SAPS   HN2 9478   2.735   4.666   6.101 -2.2799 -0.0403 -1.9831
   96SAPS   HN3 9479   2.693   4.562   6.233  1.2007 -0.2608  0.4430
   96SAPS   C12 9480   2.626   4.506   6.034 -0.2482 -0.7586 -0.3497
   96SAPS  H12A 9481   2.542   4.574   6.041  0.9006  0.6031  1.2322
   96SAPS   C13 9482   2.671   4.499   5.886 -0.3392 -0.1782 -0.3062
   96SAPS  O13A 9483   2.785   4.521   5.848  0.0874 -0.0557  0.1035
   96SAPS  O13B 9484   2.588   4.448   5.804 -0.1040  0.3066 -1.0479
   96SAPS   C11 9485   2.604   4.367   6.086 -0.1689  0.6118 -0.0734
   96SAPS  H11A 9486   2.700   4.314   6.104  0.0562  0.4235 -1.6797
   96SAPS  H11B 9487   2.554   4.298   6.014  0.7402 -1.3577  1.0995
   96SAPS     P 9488   2.375   4.350   6.204 -0.7134 -0.1424  0.4685
   96SAPS   O13 9489   2.308   4.400   6.327 -0.3550 -0.0849  0.4006
   96SAPS   O14 9490   2.320   4.404   6.078  0.7756 -0.2449 -0.1942
   96SAPS   O12 9491   2.529   4.374   6.210  0.3312  0.4452 -0.0015
   96SAPS   O11 9492   2.364   4.196   6.188 -0.2904 -0.1944  0.0973
   96SAPS    C1 9493   2.429   4.098   6.265 -0.7992 -0.4138 -0.5798
   96SAPS    HA 9494   2.522   4.083   6.207  0.6936 -0.2448  1.6544
   96SAPS    HB 9495   2.462   4.140   6.362  0.1416  1.7822 -1.7842
   96SAPS    C2 9496   2.345   3.970   6.269 -0.3849 -0.0857  0.0811
   96SAPS    HS 9497   2.357   3.925   6.168  0.5628  0.0904  0.1045
   96SAPS   O21 9498   2.204   3.990   6.296  0.0471  0.4383  0.1115
   96SAPS   C21 9499   2.125   3.903   6.232  0.3773 -0.3303 -0.3394
   96SAPS   O22 9500   2.165   3.802   6.179 -0.5909 -0.0856  0.9005
   96SAPS   C22 9501   1.980   3.946   6.244  0.2402  0.1612 -0.4192
   96SAPS   H2R 9502   1.969   4.036   6.309 -0.0224 -0.7704  0.8740
   96SAPS   H2S 9503   1.955   3.975   6.140 -1.0869  0.5070 -0.0277
   96SAPS    C3 9504   2.412   3.870   6.369  0.5240  0.6882 -0.8130
   96SAPS    HX 9505   2.511   3.826   6.344  0.3715  0.0664 -0.3531
   96SAPS    HY 9506   2.342   3.783   6.365  0.8594  0.3849 -0.3010
   96SAPS   O31 9507   2.413   3.931   6.499 -0.0439  0.3793 -0.2159
   96SAPS   C31 9508   2.308   3.913   6.576 -0.6683  0.3871  0.5348
   96SAPS   O32 9509   2.217   3.830   6.566 -0.0842 -0.2588 -0.0936
   96SAPS   C32 9510   2.312   4.023   6.685  0.3977 -0.3967 -0.3820
   96SAPS   H2X 9511   2.230   4.088   6.650 -1.9246 -2.2844  1.1618
   96SAPS   H2Y 9512   2.408   4.078   6.680  0.3731 -0.0043  2.0367
   96SAPS   C23 9513   1.885   3.835   6.283 -0.4577  0.1162 -0.0423
   96SAPS   H3R 9514   1.880   3.758   6.203 -0.8582  0.3299 -0.2249
   96SAPS   H3S 9515   1.780   3.873   6.283 -0.6279 -0.3456 -0.4171
   96SAPS   C24 9516   1.915   3.779   6.418 -0.1583  0.4509 -0.6529
   96SAPS   H4R 9517   1.981   3.856   6.463 -0.1976 -0.1060  0.4043
   96SAPS   H4S 9518   1.977   3.689   6.402 -1.8515 -0.9370  0.1726
   96SAPS   C25 9519   1.800   3.745   6.513 -0.2230  0.0071  0.1727
   96SAPS   H5R 9520   1.761   3.643   6.497  0.7312 -0.2079 -0.9720
   96SAPS   C26 9521   1.754   3.821   6.613 -0.4066 -0.2636  0.2511
   96SAPS   H6R 9522   1.675   3.790   6.682 -1.2290  0.8213 -0.1636
   96SAPS   C27 9523   1.802   3.965   6.644  0.2644  0.3607 -0.6374
   96SAPS   H7R 9524   1.860   4.014   6.563  0.9528 -0.6499 -0.7713
   96SAPS   H7S 9525   1.880   3.936   6.718  0.9377 -0.4469 -1.6362
   96SAPS   C28 9526   1.697   4.052   6.700  0.0839  0.3566 -0.6847
   96SAPS   H8R 9527   1.611   4.070   6.634 -0.2427  1.7260  0.0598
   96SAPS   C29 9528   1.707   4.105   6.827 -0.2291  0.5788 -0.3892
   96SAPS   H9R 9529   1.621   4.167   6.858 -0.3450 -0.3648  1.2941
   96SAPS  C210 9530   1.817   4.088   6.934 -0.3043  0.1166  0.1165
   96SAPS  H10R 9531   1.913   4.127   6.895 -0.5381 -0.4928 -1.1452
   96SAPS  H10S 9532   1.827   3.978   6.951  0.1716 -0.1689 -1.7773
   96SAPS  C211 9533   1.778   4.153   7.059  0.2671 -0.1192  0.8228
   96SAPS  H11R 9534   1.748   4.083   7.138  0.9237 -2.7989 -1.1684
   96SAPS  C212 9535   1.754   4.292   7.079 -0.1124  0.0023 -0.2128
   96SAPS  H12R 9536   1.731   4.329   7.180  0.1222 -1.0033  0.2198
   96SAPS  C213 9537   1.786   4.405   6.981  0.5261 -0.1339  0.1942
   96SAPS  H13R 9538   1.727   4.379   6.890  1.7482 -2.0671 -0.1031
   96SAPS  H13S 9539   1.892   4.397   6.949  1.1307  1.1529  1.7586
   96SAPS  C214 9540   1.770   4.547   7.030  0.0141  0.5939  1.2751
   96SAPS  H14R 9541   1.702   4.604   6.965 -0.3781  0.4468  1.5472
   96SAPS  C215 9542   1.832   4.601   7.131  0.4242 -0.0250 -0.1648
   96SAPS  H15R 9543   1.810   4.707   7.146  0.7860 -0.2665  2.7769
   96SAPS  C216 9544   1.921   4.526   7.231  0.4248  0.1038  0.1167
   96SAPS  H16R 9545   2.014   4.583   7.251  0.7583 -0.9206  1.6422
   96SAPS  H16S 9546   1.965   4.433   7.187  3.1731  0.8731  1.0088
   96SAPS  C217 9547   1.841   4.499   7.361 -0.1434  0.6875 -0.2628
   96SAPS  H17R 9548   1.745   4.450   7.336 -0.3453  1.1658 -0.4303
   96SAPS  H17S 9549   1.826   4.595   7.414  0.8372  0.7943 -0.1610
   96SAPS  C218 9550   1.917   4.393   7.447 -0.0977 -0.1329 -0.4157
   96SAPS  H18R 9551   2.014   4.443   7.470 -1.0223  0.3606  3.0139
   96SAPS  H18S 9552   1.922   4.296   7.393 -0.9383 -0.0997 -0.5642
   96SAPS  C219 9553   1.847   4.367   7.576 -0.2658 -0.2578  0.1022
   96SAPS  H19R 9554   1.910   4.294   7.631 -0.0660  0.2751  0.5899
   96SAPS  H19S 9555   1.750   4.314   7.569 -1.5887  1.8541  1.3832
   96SAPS  C220 9556   1.820   4.487   7.662 -0.6584 -0.0110 -0.5661
   96SAPS  H20R 9557   1.915   4.537   7.691  0.3453 -1.8837 -0.4486
   96SAPS  H20S 9558   1.765   4.467   7.756  0.8185 -0.7901  0.1539
   96SAPS  H20T 9559   1.757   4.564   7.612 -1.4380 -1.0096 -1.1570
   96SAPS   C33 9560   2.271   3.971   6.828  0.5966 -0.6532  0.6264
   96SAPS   H3X 9561   2.338   3.894   6.871 -0.3974 -1.7668  0.2490
   96SAPS   H3Y 9562   2.176   3.919   6.805 -0.8068  2.5773 -1.8006
   96SAPS   C34 9563   2.245   4.085   6.931  0.5390  0.6892  0.0355
   96SAPS   H4X 9564   2.167   4.156   6.894  0.3923  1.1817  1.2541
   96SAPS   H4Y 9565   2.343   4.135   6.940  1.6693 -1.4998  0.5294
   96SAPS   C35 9566   2.198   4.036   7.071  0.5483  0.2406 -0.5481
   96SAPS   H5X 9567   2.278   3.970   7.110  1.7370  2.0296  0.1944
   96SAPS   H5Y 9568   2.101   3.984   7.059  1.6029 -1.7673 -0.7990
   96SAPS   C36 9569   2.189   4.148   7.169  0.1897  0.2283 -0.6477
   96SAPS   H6X 9570   2.098   4.210   7.149  0.8563  1.2910 -0.4673
   96SAPS   H6Y 9571   2.267   4.227   7.162  0.5959 -0.0715  0.3244
   96SAPS   C37 9572   2.185   4.110   7.319  0.0148  0.5356 -0.6859
   96SAPS   H7X 9573   2.173   4.206   7.374 -3.7546 -0.2056  0.0860
   96SAPS   H7Y 9574   2.265   4.046   7.361 -0.4106 -0.2028 -0.9950
   96SAPS   C38 9575   2.054   4.028   7.356 -0.4240  0.1684 -0.6419
   96SAPS   H8X 9576   2.068   3.921   7.331 -1.8311  0.4898 -3.0802
   96SAPS   H8Y 9577   1.973   4.068   7.292  0.0128  0.6126 -0.9286
   96SAPS   C39 9578   2.008   4.029   7.505  0.5230 -0.6656 -1.2735
   96SAPS   H9X 9579   1.935   3.947   7.518  1.0937 -0.8962  0.7848
   96SAPS   H9Y 9580   1.954   4.126   7.514 -0.3516 -1.1227 -1.5306
   96SAPS  C310 9581   2.119   4.033   7.607  0.0893  0.3413  0.1097
   96SAPS  H10X 9582   2.169   4.132   7.601  0.2532  0.2399 -0.2114
   96SAPS  H10Y 9583   2.201   3.961   7.585 -0.7259 -1.3743  2.2899
   96SAPS  C311 9584   2.077   4.029   7.755 -0.2213 -0.3491  0.2645
   96SAPS  H11X 9585   1.971   4.002   7.775  0.4789 -2.1694  1.8792
   96SAPS  H11Y 9586   2.095   4.125   7.808  0.8580 -0.6933  0.5406
   96SAPS  C312 9587   2.147   3.928   7.845  0.3688 -0.1834  0.2379
   96SAPS  H12X 9588   2.256   3.948   7.853 -0.1305  2.4578  1.3779
   96SAPS  H12Y 9589   2.126   3.826   7.806 -2.1515 -0.5581  2.2695
   96SAPS  C313 9590   2.086   3.941   7.988 -0.3380 -0.0869  0.1411
   96SAPS  H13X 9591   1.975   3.945   7.991 -0.3488  1.6424 -1.1778
   96SAPS  H13Y 9592   2.116   4.042   8.023 -1.1842  0.1395  0.2337
   96SAPS  C314 9593   2.151   3.841   8.084  0.5369 -0.6299  0.0548
   96SAPS  H14X 9594   2.261   3.844   8.074  0.6865 -0.7750  1.4060
   96SAPS  H14Y 9595   2.122   3.739   8.051  0.2352 -0.6653  0.4162
   96SAPS  C315 9596   2.108   3.873   8.229 -0.2712  0.5391  0.4331
   96SAPS  H15X 9597   1.998   3.855   8.221 -0.0454 -1.3593  1.0127
   96SAPS  H15Y 9598   2.121   3.981   8.247 -1.6081  0.8791 -0.4912
   96SAPS  C316 9599   2.183   3.785   8.339  0.6210 -0.1017 -0.4193
   96SAPS  H16X 9600   2.177   3.846   8.432  2.1224 -1.4344  0.5979
   96SAPS  H16Y 9601   2.293   3.778   8.329  0.5476 -0.6252 -0.9066
   96SAPS  C317 9602   2.123   3.643   8.362  0.0646  0.2378  0.0291
   96SAPS  H17X 9603   2.165   3.587   8.276  1.9466 -0.1694  1.1468
   96SAPS  H17Y 9604   2.012   3.644   8.352 -0.2894  1.2263  2.8626
   96SAPS  C318 9605   2.148   3.572   8.490 -0.0018  0.4520  0.0048
   96SAPS  H18X 9606   2.255   3.542   8.495 -0.5318 -1.6179 -0.2077
   96SAPS  H18Y 9607   2.085   3.483   8.511  1.6568 -0.3614  1.8429
   96SAPS  H18Z 9608   2.121   3.636   8.577  1.2560 -1.2842  1.7657
   97SAPS     N 9609   1.818   0.932   5.984  0.0512 -0.1229  0.2881
   97SAPS   HN1 9610   1.795   0.883   6.073  2.2894  1.4652  1.8484
   97SAPS   HN2 9611   1.811   0.883   5.893  1.0512 -1.2180  0.7791
   97SAPS   HN3 9612   1.918   0.958   5.995 -0.3623  0.9986  1.8448
   97SAPS   C12 9613   1.741   1.058   5.964 -1.1559 -0.2911 -0.4355
   97SAPS  H12A 9614   1.787   1.127   5.896  1.4358  0.3891  1.8059
   97SAPS   C13 9615   1.593   1.029   5.944  0.3561 -0.2458  0.2633
   97SAPS  O13A 9616   1.553   0.910   5.934  0.2380  0.3774  0.7310
   97SAPS  O13B 9617   1.530   1.124   5.897 -0.2259  0.2684  0.0847
   97SAPS   C11 9618   1.757   1.144   6.096 -0.7571 -0.0299  0.1513
   97SAPS  H11A 9619   1.711   1.093   6.184 -0.7841 -0.3295 -0.0349
   97SAPS  H11B 9620   1.704   1.241   6.086  2.5419  1.8403 -0.6244
   97SAPS     P 9621   1.953   1.284   6.208  0.1577  0.0013  0.0346
   97SAPS   O13 9622   2.097   1.262   6.213 -0.3044  0.0256  0.1571
   97SAPS   O14 9623   1.904   1.422   6.172  0.0022 -0.3114 -0.2408
   97SAPS   O12 9624   1.894   1.179   6.119 -0.4324  1.1280  0.6366
   97SAPS   O11 9625   1.884   1.242   6.338  0.0028  0.5023  0.1071
   97SAPS    C1 9626   1.904   1.117   6.404  0.6643 -0.1168 -0.9107
   97SAPS    HA 9627   1.824   1.054   6.360 -0.1664  0.3066 -0.0297
   97SAPS    HB 9628   2.008   1.078   6.391  0.3136 -2.3092  1.8382
   97SAPS    C2 9629   1.876   1.110   6.554 -0.1087 -0.0980 -0.2347
   97SAPS    HS 9630   1.785   1.167   6.582 -1.0952 -1.8380  0.2269
   97SAPS   O21 9631   2.000   1.159   6.622 -0.0470  0.1862  0.5204
   97SAPS   C21 9632   1.976   1.199   6.746  0.0002  0.5783 -1.0437
   97SAPS   O22 9633   1.871   1.247   6.787  0.2112  0.2171 -0.5320
   97SAPS   C22 9634   2.094   1.170   6.837  0.9470  0.3519 -0.6617
   97SAPS   H2R 9635   2.073   1.071   6.885  0.8058  1.2367  1.1892
   97SAPS   H2S 9636   2.182   1.160   6.771 -1.5047  2.5072 -4.6479
   97SAPS    C3 9637   1.854   0.961   6.595 -0.2171  0.2135  0.1779
   97SAPS    HX 9638   1.943   0.904   6.562  1.2936  3.5569 -2.0182
   97SAPS    HY 9639   1.768   0.917   6.540 -1.0498  0.0918  1.5182
   97SAPS   O31 9640   1.815   0.946   6.730  0.1248  0.1126 -0.5272
   97SAPS   C31 9641   1.828   0.823   6.782  0.1344  0.0686  0.0547
   97SAPS   O32 9642   1.902   0.737   6.733  0.2385  0.0988  0.2460
   97SAPS   C32 9643   1.746   0.808   6.909  0.1632 -0.6312  0.0397
   97SAPS   H2X 9644   1.676   0.722   6.903  1.4688 -1.8562  1.4449
   97SAPS   H2Y 9645   1.697   0.907   6.918  2.7255  0.7089  0.4113
   97SAPS   C23 9646   2.126   1.272   6.952  0.6117 -0.0200 -0.6513
   97SAPS   H3R 9647   2.118   1.375   6.912  0.6663 -0.2757 -1.3213
   97SAPS   H3S 9648   2.234   1.268   6.978  0.6588  1.1708 -0.6231
   97SAPS   C24 9649   2.032   1.260   7.082 -0.3892 -0.8951  0.0857
   97SAPS   H4R 9650   1.925   1.261   7.053  0.2974  1.7333 -3.0395
   97SAPS   H4S 9651   2.047   1.352   7.142 -0.6109 -0.2525 -0.8167
   97SAPS   C25 9652   2.071   1.139   7.167  0.2592 -0.2141  0.1538
   97SAPS   H5R 9653   2.046   1.042   7.122  1.9668  0.0967 -1.5593
   97SAPS   C26 9654   2.143   1.150   7.282  0.0832 -0.2528 -1.6310
   97SAPS   H6R 9655   2.174   1.053   7.324 -0.1807  0.7104  0.9995
   97SAPS   C27 9656   2.189   1.274   7.359 -0.0166 -0.2547 -0.7005
   97SAPS   H7R 9657   2.215   1.359   7.292  0.1624 -0.0468 -0.3742
   97SAPS   H7S 9658   2.290   1.248   7.398  0.4680 -0.5963 -2.1350
   97SAPS   C28 9659   2.091   1.307   7.468 -0.0093 -0.1162  0.7452
   97SAPS   H8R 9660   2.005   1.364   7.429  0.4833 -0.0503 -0.2849
   97SAPS   C29 9661   2.083   1.271   7.604  0.0347 -0.3251  0.2967
   97SAPS   H9R 9662   2.001   1.306   7.670 -0.2132 -3.2911  1.7302
   97SAPS  C210 9663   2.176   1.191   7.681 -0.1699 -0.5641  0.2949
   97SAPS  H10R 9664   2.229   1.125   7.609 -0.1281 -0.2083  0.0004
   97SAPS  H10S 9665   2.111   1.123   7.740 -0.0642 -0.8629  0.0660
   97SAPS  C211 9666   2.283   1.265   7.753 -0.2649 -0.5359 -0.6371
   97SAPS  H11R 9667   2.352   1.314   7.683 -1.1747 -0.8319 -1.7763
   97SAPS  C212 9668   2.321   1.260   7.883 -0.1238 -0.0510 -0.7523
   97SAPS  H12R 9669   2.414   1.310   7.916 -0.1211  0.0653 -0.9390
   97SAPS  C213 9670   2.263   1.180   8.000 -0.9321  0.5888  0.6823
   97SAPS  H13R 9671   2.335   1.176   8.084 -0.6269  2.4788  0.5398
   97SAPS  H13S 9672   2.255   1.073   7.971 -1.7137  1.2907 -1.9998
   97SAPS  C214 9673   2.133   1.237   8.047  0.7130  0.1985 -0.5588
   97SAPS  H14R 9674   2.085   1.305   7.975  1.1880 -0.4578 -1.5265
   97SAPS  C215 9675   2.070   1.206   8.163  0.0125 -0.5396 -0.1293
   97SAPS  H15R 9676   1.976   1.262   8.174  0.4477  0.1740  0.0259
   97SAPS  C216 9677   2.111   1.113   8.269 -0.2173 -0.0659  0.2074
   97SAPS  H16R 9678   2.158   1.174   8.348  0.4575  1.6553 -1.4541
   97SAPS  H16S 9679   2.180   1.035   8.230 -1.2438 -1.2114  0.6002
   97SAPS  C217 9680   1.985   1.041   8.321  0.4303 -0.8170 -0.1040
   97SAPS  H17R 9681   1.942   0.982   8.237  1.5432 -3.0434  0.8057
   97SAPS  H17S 9682   1.915   1.121   8.355  2.0476  0.3965  0.5262
   97SAPS  C218 9683   2.005   0.931   8.428  0.2739 -0.1790  0.6390
   97SAPS  H18R 9684   1.911   0.888   8.468  0.0132  0.7454  1.0701
   97SAPS  H18S 9685   2.054   0.971   8.519 -0.0544  0.6803  0.4538
   97SAPS  C219 9686   2.088   0.814   8.368 -0.3995 -0.4233  0.2420
   97SAPS  H19R 9687   2.101   0.739   8.449 -0.0410 -1.0454 -0.3751
   97SAPS  H19S 9688   2.184   0.855   8.331 -1.2956  1.9985  0.4365
   97SAPS  C220 9689   2.013   0.745   8.258  0.1012  0.5611  0.0056
   97SAPS  H20R 9690   2.026   0.796   8.160 -2.6611 -0.8192 -1.2054
   97SAPS  H20S 9691   1.906   0.738   8.285  0.0031  1.2932 -0.1823
   97SAPS  H20T 9692   2.047   0.639   8.246  1.0778  0.7529  0.9395
   97SAPS   C33 9693   1.842   0.781   7.027  1.5015  0.7974 -0.1941
   97SAPS   H3X 9694   1.906   0.866   7.057  2.0949  0.1958  0.2854
   97SAPS   H3Y 9695   1.916   0.701   7.002 -0.0581 -1.3594  1.7130
   97SAPS   C34 9696   1.767   0.722   7.153 -1.2137 -0.2273 -0.3699
   97SAPS   H4X 9697   1.717   0.625   7.132 -1.0282 -1.3807  3.5706
   97SAPS   H4Y 9698   1.695   0.788   7.206  1.8968  2.2805  1.1390
   97SAPS   C35 9699   1.882   0.695   7.261  0.7185  0.4321 -0.4287
   97SAPS   H5X 9700   1.922   0.796   7.282  2.3331 -0.4972  1.3288
   97SAPS   H5Y 9701   1.968   0.633   7.229  0.6219 -0.6318  1.1882
   97SAPS   C36 9702   1.810   0.654   7.389 -0.1385 -0.5234 -0.4570
   97SAPS   H6X 9703   1.732   0.577   7.368 -0.8231  0.1653 -0.5000
   97SAPS   H6Y 9704   1.752   0.739   7.431  1.0918 -0.5628  1.3845
   97SAPS   C37 9705   1.906   0.621   7.497  0.2024  0.1419 -0.4010
   97SAPS   H7X 9706   1.980   0.704   7.495  0.8949 -0.4752 -0.8497
   97SAPS   H7Y 9707   1.965   0.529   7.479 -0.9229 -1.0604  1.6406
   97SAPS   C38 9708   1.837   0.605   7.637 -0.6075  1.0823 -0.1941
   97SAPS   H8X 9709   1.771   0.515   7.641  2.3234 -1.2842 -1.1234
   97SAPS   H8Y 9710   1.771   0.692   7.655 -1.9336 -0.3463  2.4973
   97SAPS   C39 9711   1.938   0.584   7.751  0.5060 -0.6864  0.0921
   97SAPS   H9X 9712   1.978   0.480   7.744  2.5674  0.0590  0.1095
   97SAPS   H9Y 9713   1.888   0.592   7.850  0.5714 -1.0574  0.1578
   97SAPS  C310 9714   2.059   0.681   7.752  0.2276  0.3073  0.0883
   97SAPS  H10X 9715   2.025   0.787   7.753  0.0428  0.2538 -0.5058
   97SAPS  H10Y 9716   2.117   0.656   7.660 -2.2685 -0.3453 -1.3860
   97SAPS  C311 9717   2.149   0.660   7.870 -0.2308  0.0815 -0.1606
   97SAPS  H11X 9718   2.191   0.557   7.878  1.0807  0.6191  0.1466
   97SAPS  H11Y 9719   2.091   0.680   7.962  2.1463  0.1497  1.4126
   97SAPS  C312 9720   2.265   0.765   7.883  0.2292 -0.0038  0.4491
   97SAPS  H12X 9721   2.223   0.865   7.861 -0.4309 -0.3819 -0.0749
   97SAPS  H12Y 9722   2.344   0.748   7.806  0.3441  1.2248  0.2814
   97SAPS  C313 9723   2.328   0.772   8.023  0.2665  0.0839 -0.5398
   97SAPS  H13X 9724   2.258   0.781   8.108  1.4449  0.0859  0.4565
   97SAPS  H13Y 9725   2.392   0.863   8.025  0.9454 -0.4003  0.2520
   97SAPS  C314 9726   2.432   0.656   8.049 -0.3944 -1.1913 -0.5349
   97SAPS  H14X 9727   2.503   0.662   7.963 -0.2523 -1.2441 -0.4196
   97SAPS  H14Y 9728   2.388   0.554   8.051  0.1923 -1.4549 -0.8504
   97SAPS  C315 9729   2.512   0.682   8.175 -0.2205 -0.0441 -0.2748
   97SAPS  H15X 9730   2.443   0.672   8.262  0.1914 -2.5380 -0.1505
   97SAPS  H15Y 9731   2.564   0.780   8.177 -0.3527  0.0228  0.0556
   97SAPS  C316 9732   2.625   0.582   8.214  0.0930 -0.1356 -0.0691
   97SAPS  H16X 9733   2.595   0.476   8.232  1.2955 -0.4133  0.3595
   97SAPS  H16Y 9734   2.671   0.611   8.311  2.0668  0.2129 -1.0587
   97SAPS  C317 9735   2.752   0.586   8.128 -0.4300 -0.0346  0.4238
   97SAPS  H17X 9736   2.765   0.693   8.099 -0.2213  0.2172  1.4045
   97SAPS  H17Y 9737   2.750   0.524   8.036  3.3736 -0.7816  0.6924
   97SAPS  C318 9738   2.882   0.552   8.206 -0.3447  0.0694 -0.5956
   97SAPS  H18X 9739   2.871   0.455   8.259  1.5963 -0.4554 -1.0700
   97SAPS  H18Y 9740   2.906   0.625   8.286 -0.4363  0.0981 -0.5950
   97SAPS  H18Z 9741   2.971   0.557   8.139  0.3570  0.9825  0.3871
   98SAPS     N 9742   0.437   1.072   6.301  0.4922  0.3546 -0.7347
   98SAPS   HN1 9743   0.452   0.971   6.284  2.2498  0.0247  2.1133
   98SAPS   HN2 9744   0.398   1.086   6.396 -2.6368 -2.9882 -1.2870
   98SAPS   HN3 9745   0.360   1.120   6.249 -0.1248  1.1381  0.8391
   98SAPS   C12 9746   0.570   1.145   6.283  0.4223  0.6014 -0.0195
   98SAPS  H12A 9747   0.621   1.158   6.378 -1.1640  0.5627  0.8626
   98SAPS   C13 9748   0.666   1.080   6.183 -0.6154 -0.3067 -0.1955
   98SAPS  O13A 9749   0.628   0.976   6.128  0.5304  0.4009  0.2374
   98SAPS  O13B 9750   0.784   1.118   6.163 -0.1300 -0.0473  0.0295
   98SAPS   C11 9751   0.532   1.292   6.246  0.6605 -0.8724  0.8290
   98SAPS  H11A 9752   0.545   1.309   6.137  0.0054 -1.2449  0.6850
   98SAPS  H11B 9753   0.604   1.358   6.300 -0.9310  0.2237  1.7167
   98SAPS     P 9754   0.363   1.487   6.271  0.0499 -0.5252  0.1306
   98SAPS   O13 9755   0.378   1.534   6.134 -0.2597 -0.7883  0.1091
   98SAPS   O14 9756   0.234   1.518   6.346  0.0664  0.0909  0.3099
   98SAPS   O12 9757   0.397   1.329   6.288 -0.5304 -0.2501  0.3038
   98SAPS   O11 9758   0.484   1.557   6.351 -0.2181  0.2266 -0.3211
   98SAPS    C1 9759   0.477   1.615   6.473 -0.0234 -0.2848 -0.4009
   98SAPS    HA 9760   0.552   1.697   6.478  1.5122 -1.3098 -3.8241
   98SAPS    HB 9761   0.375   1.652   6.496  0.4547  0.0543  1.3837
   98SAPS    C2 9762   0.504   1.511   6.582 -0.5480 -0.2101  0.3907
   98SAPS    HS 9763   0.462   1.413   6.551 -1.4885  0.5859 -0.9689
   98SAPS   O21 9764   0.444   1.566   6.700 -0.2321 -0.0725 -0.1430
   98SAPS   C21 9765   0.319   1.523   6.718 -0.4341  0.4853  0.0617
   98SAPS   O22 9766   0.264   1.449   6.640  0.0465  0.1250 -0.2025
   98SAPS   C22 9767   0.253   1.590   6.841  0.0278  0.8850 -1.5733
   98SAPS   H2R 9768   0.196   1.680   6.810 -2.1939 -0.3235 -1.2629
   98SAPS   H2S 9769   0.180   1.523   6.892  1.7344  0.5146  0.5776
   98SAPS    C3 9770   0.656   1.492   6.612 -0.3205 -0.2483 -1.3005
   98SAPS    HX 9771   0.695   1.588   6.652 -2.5554  1.6403 -3.3274
   98SAPS    HY 9772   0.713   1.475   6.518  0.4218  1.9854 -1.3061
   98SAPS   O31 9773   0.658   1.375   6.706 -0.8078 -0.3359 -0.6875
   98SAPS   C31 9774   0.784   1.337   6.724  0.9112 -0.5165  0.2797
   98SAPS   O32 9775   0.877   1.389   6.663 -0.1678 -0.8037  0.1973
   98SAPS   C32 9776   0.795   1.224   6.821 -0.8908  0.9141  0.5139
   98SAPS   H2X 9777   0.774   1.133   6.761 -2.0993  1.3854  0.1834
   98SAPS   H2Y 9778   0.722   1.231   6.905 -0.1917 -3.9022  1.8158
   98SAPS   C23 9779   0.345   1.626   6.963  0.0242 -0.2617 -0.5235
   98SAPS   H3R 9780   0.449   1.649   6.932  1.3060  0.8784  3.8454
   98SAPS   H3S 9781   0.353   1.543   7.037  0.6819 -0.5928 -0.9607
   98SAPS   C24 9782   0.292   1.760   7.026  0.6037  0.1356  0.3251
   98SAPS   H4R 9783   0.203   1.734   7.087  1.5928 -1.5140  1.1510
   98SAPS   H4S 9784   0.278   1.838   6.948 -1.6020  0.3155  0.8255
   98SAPS   C25 9785   0.401   1.806   7.121  0.2469  0.0879 -0.0704
   98SAPS   H5R 9786   0.504   1.796   7.086  0.3876 -1.6461  0.7188
   98SAPS   C26 9787   0.391   1.859   7.247 -0.5856 -0.4581  0.5138
   98SAPS   H6R 9788   0.478   1.900   7.301 -1.9455  1.4977  1.3319
   98SAPS   C27 9789   0.263   1.884   7.327  0.0622 -0.7250  0.5048
   98SAPS   H7R 9790   0.177   1.859   7.261 -1.5567  3.7460  0.5792
   98SAPS   H7S 9791   0.262   1.989   7.362  0.4847 -0.5992  0.1500
   98SAPS   C28 9792   0.265   1.788   7.447 -0.3963  0.1795  0.1690
   98SAPS   H8R 9793   0.260   1.680   7.426  1.3096  0.0394  0.3367
   98SAPS   C29 9794   0.262   1.819   7.574  0.1827  0.0598  0.1867
   98SAPS   H9R 9795   0.288   1.745   7.651  0.3403 -0.0325  0.0469
   98SAPS  C210 9796   0.250   1.958   7.626  0.3680  0.7035  0.1326
   98SAPS  H10R 9797   0.249   2.033   7.544  1.9088  1.2917  0.6173
   98SAPS  H10S 9798   0.335   1.988   7.691  2.9300 -0.3745 -2.5366
   98SAPS  C211 9799   0.122   1.983   7.706  0.2657 -0.5145 -0.2913
   98SAPS  H11R 9800   0.029   1.946   7.661 -0.4638  0.0425  0.6987
   98SAPS  C212 9801   0.116   2.046   7.823 -0.1112  0.3262 -0.0977
   98SAPS  H12R 9802   0.024   2.054   7.883  0.2139 -0.6508  0.5652
   98SAPS  C213 9803   0.227   2.108   7.905 -0.3109  0.3412  0.3179
   98SAPS  H13R 9804   0.273   2.198   7.858  1.5317 -0.1884  1.0270
   98SAPS  H13S 9805   0.306   2.030   7.909 -0.8900 -0.3317 -0.9347
   98SAPS  C214 9806   0.194   2.138   8.048 -0.0989 -0.4056 -0.2503
   98SAPS  H14R 9807   0.121   2.220   8.056 -0.3994 -0.0894 -4.0874
   98SAPS  C215 9808   0.249   2.085   8.158  0.0268  0.0505 -0.0228
   98SAPS  H15R 9809   0.196   2.123   8.246  0.2150  2.2585 -0.8019
   98SAPS  C216 9810   0.362   1.984   8.166 -0.1020  1.2275 -0.3675
   98SAPS  H16R 9811   0.424   1.973   8.075 -1.5439  0.6522 -1.3219
   98SAPS  H16S 9812   0.316   1.883   8.172  1.3097  0.6235  0.9879
   98SAPS  C217 9813   0.451   1.984   8.285 -0.4778  0.2550 -0.2324
   98SAPS  H17R 9814   0.384   1.962   8.371 -0.5803  1.7456  0.0906
   98SAPS  H17S 9815   0.485   2.086   8.311 -0.3734  0.1808 -0.0761
   98SAPS  C218 9816   0.565   1.876   8.286  0.2901 -0.0730 -0.4043
   98SAPS  H18R 9817   0.518   1.781   8.255 -1.8568  1.4419 -2.1423
   98SAPS  H18S 9818   0.606   1.879   8.389  1.6156  2.5369 -0.9100
   98SAPS  C219 9819   0.679   1.903   8.182  0.1574  0.2512  0.5305
   98SAPS  H19R 9820   0.735   1.984   8.233  0.3275 -1.3600  3.0733
   98SAPS  H19S 9821   0.636   1.925   8.082  3.2518  1.5306 -0.6475
   98SAPS  C220 9822   0.767   1.782   8.150 -0.0639  0.0072 -0.4897
   98SAPS  H20R 9823   0.819   1.816   8.057  0.0250 -2.1103 -1.2764
   98SAPS  H20S 9824   0.728   1.681   8.129 -0.0670 -0.1265  0.1525
   98SAPS  H20T 9825   0.844   1.785   8.231 -2.1729  1.1261  1.5880
   98SAPS   C33 9826   0.935   1.217   6.889  0.2537  0.1490 -0.0462
   98SAPS   H3X 9827   0.955   1.321   6.922 -1.2853  0.4566 -0.0336
   98SAPS   H3Y 9828   1.011   1.205   6.809  0.7636 -0.9063  0.5732
   98SAPS   C34 9829   0.939   1.115   7.009  0.1790 -0.3464  0.0346
   98SAPS   H4X 9830   0.909   1.015   6.971 -0.6006 -0.5159  1.0413
   98SAPS   H4Y 9831   0.864   1.143   7.086  1.5074 -2.3887  2.2312
   98SAPS   C35 9832   1.081   1.098   7.074  0.2842 -0.8427  0.0629
   98SAPS   H5X 9833   1.124   1.200   7.085 -2.2988  0.4418 -0.9252
   98SAPS   H5Y 9834   1.151   1.049   7.003  0.7467 -0.5888  0.3413
   98SAPS   C36 9835   1.081   1.035   7.221 -0.9569 -0.5657  0.3826
   98SAPS   H6X 9836   1.186   1.031   7.255 -0.6569  1.5833 -0.1573
   98SAPS   H6Y 9837   1.037   0.933   7.223  0.3069 -1.1601 -0.4544
   98SAPS   C37 9838   0.998   1.124   7.319 -0.0712 -0.1478 -0.4095
   98SAPS   H7X 9839   0.890   1.110   7.297 -0.6827 -2.1344  3.1727
   98SAPS   H7Y 9840   1.011   1.234   7.315 -2.7053  0.2966  0.9583
   98SAPS   C38 9841   1.025   1.075   7.460 -0.1926 -0.0086 -0.5680
   98SAPS   H8X 9842   1.130   1.096   7.489 -0.7164  1.0153  0.6940
   98SAPS   H8Y 9843   1.003   0.966   7.466  0.3202 -0.1067 -0.4114
   98SAPS   C39 9844   0.940   1.152   7.574 -0.4088 -0.1029 -0.2913
   98SAPS   H9X 9845   0.836   1.114   7.569 -0.7638  0.8608 -0.4260
   98SAPS   H9Y 9846   0.931   1.258   7.542 -1.7517 -0.2773 -0.5298
   98SAPS  C310 9847   0.986   1.129   7.717  0.2081 -0.7478 -0.0523
   98SAPS  H10X 9848   1.097   1.138   7.716  0.2087 -0.6575  0.5521
   98SAPS  H10Y 9849   0.964   1.022   7.739 -1.1276 -0.2340  1.3076
   98SAPS  C311 9850   0.915   1.213   7.815 -0.1606  0.3328 -0.2369
   98SAPS  H11X 9851   0.808   1.209   7.787  0.2437 -2.1697 -1.6655
   98SAPS  H11Y 9852   0.935   1.322   7.808  0.2851  0.4124  1.6419
   98SAPS  C312 9853   0.919   1.162   7.961 -0.0444  0.7730  0.0513
   98SAPS  H12X 9854   1.027   1.159   7.986 -0.1089  0.5856  0.3072
   98SAPS  H12Y 9855   0.884   1.056   7.967 -0.8402  1.0284  0.0814
   98SAPS  C313 9856   0.841   1.249   8.058 -0.0271  0.0965 -0.1029
   98SAPS  H13X 9857   0.733   1.238   8.037  0.2353 -0.4229 -1.2766
   98SAPS  H13Y 9858   0.878   1.354   8.050  0.4252 -0.0400  0.1514
   98SAPS  C314 9859   0.868   1.224   8.204  0.4125 -0.1601 -0.1633
   98SAPS  H14X 9860   0.977   1.223   8.224  0.8128 -0.1910 -2.1451
   98SAPS  H14Y 9861   0.833   1.125   8.241 -0.0849  0.1692  0.2781
   98SAPS  C315 9862   0.824   1.342   8.298  0.4099 -0.2038 -0.0650
   98SAPS  H15X 9863   0.887   1.431   8.279 -0.7170  0.0940 -3.1238
   98SAPS  H15Y 9864   0.838   1.308   8.402  2.2127  3.8340  1.1965
   98SAPS  C316 9865   0.673   1.368   8.285  0.0624  0.1476  0.3588
   98SAPS  H16X 9866   0.627   1.270   8.310 -0.3152  0.3902  0.6035
   98SAPS  H16Y 9867   0.647   1.397   8.181  0.6688  0.7438  0.3623
   98SAPS  C317 9868   0.628   1.471   8.384  0.1596  0.3309  0.4317
   98SAPS  H17X 9869   0.696   1.559   8.383  3.4413 -2.0539 -0.4942
   98SAPS  H17Y 9870   0.631   1.433   8.488  2.1699 -0.4828  0.1101
   98SAPS  C318 9871   0.482   1.517   8.359  0.2146  0.3874 -0.2663
   98SAPS  H18X 9872   0.482   1.567   8.260 -0.3245  0.0066 -0.4634
   98SAPS  H18Y 9873   0.452   1.586   8.441  0.5080 -0.5059  0.6191
   98SAPS  H18Z 9874   0.410   1.433   8.352  1.2528 -0.5742  0.1634
   99SAPS     N 9875   5.277   0.141   6.251  0.2244  0.3424 -0.0428
   99SAPS   HN1 9876   5.234   0.234   6.239 -1.9593 -0.6277 -0.1237
   99SAPS   HN2 9877   5.314   0.129   6.348 -1.0687 -2.5696  0.2056
   99SAPS   HN3 9878   5.352   0.143   6.179 -0.4634  0.5275 -0.7529
   99SAPS   C12 9879   5.182   0.036   6.215 -0.6795  0.0776  0.1262
   99SAPS  H12A 9880   5.103   0.047   6.289  0.0094  0.9561  0.7488
   99SAPS   C13 9881   5.131   0.063   6.072  0.5859 -0.3589 -0.3930
   99SAPS  O13A 9882   5.154   0.166   6.009  0.3826 -0.5240  0.1297
   99SAPS  O13B 9883   5.038  -0.016   6.035  0.1532 -0.2708 -0.0323
   99SAPS   C11 9884   5.247  -0.108   6.211  0.1395  0.5348  0.0608
   99SAPS  H11A 9885   5.259  -0.135   6.104 -0.8719 -2.2168  0.5482
   99SAPS  H11B 9886   5.168  -0.175   6.253 -0.1148  0.5973 -0.3114
   99SAPS     P 9887   5.495  -0.188   6.223 -0.1532 -0.3144 -0.3878
   99SAPS   O13 9888   5.473  -0.334   6.213 -0.2608  0.1694 -0.7290
   99SAPS   O14 9889   5.515  -0.119   6.092 -0.1241 -0.4299  0.1771
   99SAPS   O12 9890   5.362  -0.128   6.295 -0.2969  0.4153  0.0314
   99SAPS   O11 9891   5.619  -0.154   6.319  0.5727 -0.1840 -0.1203
   99SAPS    C1 9892   5.626  -0.032   6.392 -0.3569 -0.5184  0.5465
   99SAPS    HA 9893   5.583   0.055   6.337  0.1473  1.9870  3.8052
   99SAPS    HB 9894   5.565  -0.042   6.484  0.3598 -2.6810  0.8456
   99SAPS    C2 9895   5.779   0.004   6.431 -0.0646 -0.1447  0.4723
   99SAPS    HS 9896   5.836   0.013   6.337  2.2881  0.1744  1.8380
   99SAPS   O21 9897   5.827  -0.105   6.522 -0.4994 -0.4273  0.3230
   99SAPS   C21 9898   5.952  -0.120   6.536 -1.1528 -0.0025  0.0961
   99SAPS   O22 9899   6.041  -0.059   6.470 -0.5292 -0.3030 -0.6085
   99SAPS   C22 9900   5.982  -0.233   6.636  0.0053 -0.1975  0.4981
   99SAPS   H2R 9901   5.889  -0.254   6.694 -0.5644  0.1552 -0.2614
   99SAPS   H2S 9902   5.987  -0.325   6.574 -0.8781 -0.7972  1.2876
   99SAPS    C3 9903   5.802   0.151   6.482  0.3671 -0.1835  0.0698
   99SAPS    HX 9904   5.762   0.220   6.405 -0.6659 -0.2704  0.5110
   99SAPS    HY 9905   5.908   0.183   6.490 -0.2911  1.9077  1.0181
   99SAPS   O31 9906   5.742   0.183   6.610 -0.0259  0.2691  0.8016
   99SAPS   C31 9907   5.808   0.174   6.717  0.8816  0.0633 -0.6595
   99SAPS   O32 9908   5.925   0.137   6.721 -0.2638  0.3173  0.3933
   99SAPS   C32 9909   5.713   0.194   6.841 -0.0299  0.3251  0.6767
   99SAPS   H2X 9910   5.632   0.119   6.851  0.5112 -0.3291  0.3142
   99SAPS   H2Y 9911   5.663   0.293   6.833 -0.3849  0.2499  1.8010
   99SAPS   C23 9912   6.097  -0.215   6.727  0.0935 -0.4351  0.3097
   99SAPS   H3R 9913   6.069  -0.129   6.792  1.2796  1.0510 -1.0461
   99SAPS   H3S 9914   6.194  -0.198   6.674  1.1161 -0.2993  2.1292
   99SAPS   C24 9915   6.116  -0.336   6.810 -0.0207  0.5584 -0.6004
   99SAPS   H4R 9916   6.125  -0.428   6.749  0.4141 -1.1696  1.9088
   99SAPS   H4S 9917   6.020  -0.356   6.862  0.6552 -0.2956  0.3510
   99SAPS   C25 9918   6.238  -0.341   6.898 -0.0855  0.1348  0.1197
   99SAPS   H5R 9919   6.335  -0.331   6.846  0.1880  0.2828  0.6494
   99SAPS   C26 9920   6.234  -0.336   7.030 -0.3258  0.4245 -0.4883
   99SAPS   H6R 9921   6.322  -0.330   7.095 -1.5619  2.5520  1.1349
   99SAPS   C27 9922   6.112  -0.347   7.120 -0.1795  0.2506  0.0672
   99SAPS   H7R 9923   6.146  -0.405   7.208  0.2721 -1.1354 -0.9811
   99SAPS   H7S 9924   6.034  -0.413   7.076 -0.7869  0.5626  0.6458
   99SAPS   C28 9925   6.039  -0.223   7.149 -0.0042 -0.2933 -0.4279
   99SAPS   H8R 9926   6.037  -0.160   7.059  0.8424 -0.2716 -0.4392
   99SAPS   C29 9927   5.979  -0.184   7.270  0.1290  0.9032  0.0203
   99SAPS   H9R 9928   5.928  -0.087   7.282  0.2340  0.8829  0.7111
   99SAPS  C210 9929   5.996  -0.279   7.386  0.4011 -0.8079 -0.1358
   99SAPS  H10R 9930   6.105  -0.295   7.384  0.5842  0.2402  0.4072
   99SAPS  H10S 9931   5.950  -0.378   7.368 -0.2240 -0.7219  0.8517
   99SAPS  C211 9932   5.945  -0.231   7.521  0.5418 -0.6056  0.6999
   99SAPS  H11R 9933   5.854  -0.170   7.521  0.0883 -1.0253 -3.2866
   99SAPS  C212 9934   5.995  -0.269   7.639  0.2805  1.0656  0.1599
   99SAPS  H12R 9935   5.937  -0.248   7.731 -0.9773 -1.4210  0.0419
   99SAPS  C213 9936   6.107  -0.372   7.663  0.0617 -0.0951  0.2214
   99SAPS  H13R 9937   6.128  -0.424   7.567  1.6941  0.2154  0.3760
   99SAPS  H13S 9938   6.082  -0.446   7.743  0.0361 -1.2647 -0.8407
   99SAPS  C214 9939   6.239  -0.307   7.699 -0.1576 -0.0422 -0.3301
   99SAPS  H14R 9940   6.254  -0.206   7.657 -3.4553  0.5607 -0.3495
   99SAPS  C215 9941   6.340  -0.351   7.777  0.1865 -0.2346  0.1872
   99SAPS  H15R 9942   6.430  -0.287   7.776 -0.8910  1.3787 -2.0014
   99SAPS  C216 9943   6.352  -0.488   7.848 -0.4375  0.1606  0.2071
   99SAPS  H16R 9944   6.247  -0.523   7.858 -0.8220  1.2204  0.0729
   99SAPS  H16S 9945   6.380  -0.467   7.954  0.6133  2.0839 -0.3862
   99SAPS  C217 9946   6.441  -0.591   7.783  0.0487  0.2031 -1.2865
   99SAPS  H17R 9947   6.460  -0.573   7.675 -0.8766  1.7542 -1.2181
   99SAPS  H17S 9948   6.385  -0.687   7.785 -0.4891  0.5234  0.3647
   99SAPS  C218 9949   6.576  -0.590   7.855  0.0865  0.1046  0.4070
   99SAPS  H18R 9950   6.547  -0.615   7.959 -1.4452 -3.0074 -0.6307
   99SAPS  H18S 9951   6.624  -0.490   7.861  0.6543 -0.1422  0.1037
   99SAPS  C219 9952   6.668  -0.704   7.810 -0.0707 -0.2179 -0.1580
   99SAPS  H19R 9953   6.701  -0.681   7.707 -1.0668  1.9870 -0.0292
   99SAPS  H19S 9954   6.609  -0.798   7.813  0.9349 -0.8612  0.7022
   99SAPS  C220 9955   6.792  -0.716   7.902  0.6703  0.3998  0.4022
   99SAPS  H20R 9956   6.868  -0.787   7.864  0.3597  0.1786  0.1827
   99SAPS  H20S 9957   6.750  -0.750   8.000  1.2910  0.5906  0.7362
   99SAPS  H20T 9958   6.833  -0.613   7.909  2.8199 -0.4055  0.3476
   99SAPS   C33 9959   5.794   0.200   6.970 -0.3121  0.0666  0.1178
   99SAPS   H3X 9960   5.872   0.277   6.956  0.0563 -0.4903 -1.0881
   99SAPS   H3Y 9961   5.835   0.098   6.987  0.5419  0.1886 -1.0440
   99SAPS   C34 9962   5.717   0.236   7.098 -0.2773 -0.0557  0.0047
   99SAPS   H4X 9963   5.618   0.189   7.088 -0.1718 -0.1541 -0.6359
   99SAPS   H4Y 9964   5.699   0.345   7.087 -1.0312 -0.2025 -0.2397
   99SAPS   C35 9965   5.795   0.182   7.221 -0.1100 -0.1698 -0.2631
   99SAPS   H5X 9966   5.896   0.228   7.220 -0.0474 -0.2274  1.1756
   99SAPS   H5Y 9967   5.801   0.071   7.226  1.0908 -0.1346 -0.5710
   99SAPS   C36 9968   5.746   0.235   7.353  0.1683  0.2412 -0.5099
   99SAPS   H6X 9969   5.637   0.218   7.358 -0.2484  2.2314 -1.6249
   99SAPS   H6Y 9970   5.757   0.345   7.365  0.0623  0.1843  0.1383
   99SAPS   C37 9971   5.819   0.181   7.477 -0.2418  0.2075 -0.2775
   99SAPS   H7X 9972   5.927   0.206   7.465  0.0979 -1.3984 -0.7575
   99SAPS   H7Y 9973   5.811   0.071   7.487 -3.1338  0.2936 -0.8419
   99SAPS   C38 9974   5.749   0.227   7.606  0.2396  0.4317  0.7485
   99SAPS   H8X 9975   5.647   0.184   7.605  0.2413 -0.0703 -4.5246
   99SAPS   H8Y 9976   5.744   0.338   7.609  0.6125  0.4361  1.3146
   99SAPS   C39 9977   5.832   0.180   7.722 -0.4933  0.2348 -0.5336
   99SAPS   H9X 9978   5.933   0.223   7.710  0.3187 -1.1481  0.9582
   99SAPS   H9Y 9979   5.844   0.070   7.706  0.2436  0.2939 -0.4247
   99SAPS  C310 9980   5.755   0.214   7.853 -0.0965  0.0164 -0.1967
   99SAPS  H10X 9981   5.649   0.181   7.852 -1.5636  4.1526 -0.1456
   99SAPS  H10Y 9982   5.755   0.325   7.856 -0.6087  0.0324 -0.5830
   99SAPS  C311 9983   5.821   0.162   7.982  0.5539 -0.3433 -0.1889
   99SAPS  H11X 9984   5.765   0.214   8.063  0.0041  1.6431 -1.7716
   99SAPS  H11Y 9985   5.920   0.205   8.008 -0.5152  2.1413  0.1737
   99SAPS  C312 9986   5.819   0.007   7.992  0.2809 -1.0190  0.2987
   99SAPS  H12X 9987   5.848  -0.025   7.890 -1.8194  2.4488 -1.6098
   99SAPS  H12Y 9988   5.716  -0.032   8.010  0.8367 -1.6071  2.3722
   99SAPS  C313 9989   5.914  -0.041   8.097  0.2826  0.4238  0.4419
   99SAPS  H13X 9990   5.896   0.003   8.197  1.2919 -0.8453  1.2288
   99SAPS  H13Y 9991   6.019  -0.012   8.074  0.0315  1.1989  0.2372
   99SAPS  C314 9992   5.911  -0.196   8.116 -0.3728 -0.2470  0.3193
   99SAPS  H14X 9993   5.898  -0.237   8.014  3.6169 -0.7045 -0.1840
   99SAPS  H14Y 9994   5.820  -0.215   8.177 -0.8956 -0.6029 -0.5533
   99SAPS  C315 9995   6.035  -0.250   8.183  0.2078 -0.8355  0.4641
   99SAPS  H15X 9996   6.043  -0.209   8.286 -1.4913  0.9845 -0.0558
   99SAPS  H15Y 9997   6.125  -0.213   8.130 -1.1954 -0.9768 -2.1884
   99SAPS  C316 9998   6.041  -0.401   8.201 -0.2236  0.1262 -0.0648
   99SAPS  H16X 9999   5.970  -0.422   8.284 -0.4623  0.4791 -0.1796
   99SAPS  H16Y10000   6.144  -0.423   8.236  0.4747  3.2229  0.0712
   99SAPS  C31710001   5.992  -0.483   8.077 -0.1090 -0.0441 -0.3831
   99SAPS  H17X10002   6.053  -0.444   7.993  1.2462  0.3039  0.7155
   99SAPS  H17Y10003   5.886  -0.465   8.051  0.0826 -0.6917 -1.6498
   99SAPS  C31810004   6.028  -0.627   8.096 -0.2922  0.2751 -0.3627
   99SAPS  H18X10005   6.116  -0.636   8.163 -0.1174 -0.3821 -0.6703
   99SAPS  H18Y10006   6.045  -0.670   7.995 -1.9359 -0.6133 -0.3051
   99SAPS  H18Z10007   5.936  -0.672   8.139  0.1534 -1.1950 -0.8780
  100SAPS     N10008   2.837   0.705   5.771 -0.0667  0.0752 -0.5896
  100SAPS   HN110009   2.781   0.751   5.696 -0.9731  0.0800  0.0713
  100SAPS   HN210010   2.795   0.723   5.865 -1.6891 -0.0410 -1.2574
  100SAPS   HN310011   2.933   0.744   5.777 -0.6261  1.7641 -1.8418
  100SAPS   C1210012   2.832   0.554   5.747 -0.5173  0.2572 -0.8599
  100SAPS  H12A10013   2.745   0.515   5.797  0.5868 -3.6222 -1.6345
  100SAPS   C1310014   2.820   0.515   5.603 -0.2260  0.2257  1.7790
  100SAPS  O13A10015   2.830   0.597   5.507 -0.2307  0.3363  0.1336
  100SAPS  O13B10016   2.788   0.395   5.582  0.3984  0.1502 -0.3238
  100SAPS   C1110017   2.956   0.486   5.812  0.6872 -0.0085  0.4249
  100SAPS  H11A10018   3.052   0.527   5.775  0.4229  0.7602  0.5701
  100SAPS  H11B10019   2.959   0.377   5.794  0.1631  0.1661 -0.8171
  100SAPS     P10020   3.069   0.455   6.042 -0.0164  0.0312 -0.1775
  100SAPS   O1310021   3.073   0.304   6.037  0.4109  0.3293 -0.1133
  100SAPS   O1410022   3.197   0.515   6.008 -0.6028 -0.4624 -0.3569
  100SAPS   O1210023   2.950   0.508   5.951  0.0329  0.0712  0.7539
  100SAPS   O1110024   3.032   0.509   6.186 -0.0525  0.1842 -0.5267
  100SAPS    C110025   3.053   0.644   6.222  0.0718  0.1617  0.1277
  100SAPS    HA10026   3.059   0.712   6.134  0.3072  1.2846  0.9842
  100SAPS    HB10027   2.966   0.672   6.286  0.6884 -1.7613  1.9308
  100SAPS    C210028   3.187   0.666   6.306  0.2618  0.3873 -0.1463
  100SAPS    HS10029   3.273   0.635   6.242 -0.2786 -1.8230  0.1313
  100SAPS   O2110030   3.171   0.589   6.431 -0.6949  0.1972  0.2141
  100SAPS   C2110031   3.233   0.468   6.423 -0.4889  0.7318 -0.0974
  100SAPS   O2210032   3.312   0.438   6.335 -0.1203 -0.1965  0.1896
  100SAPS   C2210033   3.196   0.386   6.542 -0.7454  0.5044 -0.2288
  100SAPS   H2R10034   3.166   0.442   6.633  1.6045 -0.8618  1.4906
  100SAPS   H2S10035   3.100   0.337   6.514 -0.9735  0.3615  0.7601
  100SAPS    C310036   3.215   0.819   6.330  0.0013  0.0399 -0.5760
  100SAPS    HX10037   3.124   0.872   6.366  0.4139  0.3905 -0.0330
  100SAPS    HY10038   3.244   0.862   6.231 -0.0418  1.0365 -0.1706
  100SAPS   O3110039   3.315   0.838   6.439 -0.2904  0.3976 -0.0827
  100SAPS   C3110040   3.435   0.806   6.406 -0.7820  0.5479  0.4130
  100SAPS   O3210041   3.483   0.776   6.300 -0.2336  0.1614 -0.2586
  100SAPS   C3210042   3.518   0.824   6.522 -0.3883 -0.2040 -0.3432
  100SAPS   H2X10043   3.491   0.908   6.589 -0.8400 -0.6314  0.0130
  100SAPS   H2Y10044   3.624   0.836   6.490  1.1780 -1.1620  3.8774
  100SAPS   C2310045   3.314   0.281   6.580  0.7129 -0.3586  0.1297
  100SAPS   H3R10046   3.413   0.328   6.593  1.5591 -1.7826 -0.8941
  100SAPS   H3S10047   3.325   0.224   6.486  1.1423  1.4897 -0.9983
  100SAPS   C2410048   3.279   0.181   6.688 -0.4375  0.2535 -0.0494
  100SAPS   H4R10049   3.329   0.084   6.665  0.7675  1.0923 -1.0981
  100SAPS   H4S10050   3.171   0.159   6.697 -0.5255  0.2195 -1.0527
  100SAPS   C2510051   3.319   0.234   6.825 -0.0218  0.2759  0.3836
  100SAPS   H5R10052   3.232   0.266   6.884 -0.0465  0.4353  0.2624
  100SAPS   C2610053   3.441   0.224   6.879  0.2718  0.5579  0.1647
  100SAPS   H6R10054   3.454   0.240   6.988  0.8479 -1.7171  0.4892
  100SAPS   C2710055   3.560   0.166   6.811 -0.2656  0.3001 -1.0333
  100SAPS   H7R10056   3.643   0.206   6.874 -1.2232  1.7672 -0.6434
  100SAPS   H7S10057   3.577   0.195   6.705  2.2262 -0.3788 -0.8713
  100SAPS   C2810058   3.562   0.020   6.819  0.1669  0.3136 -0.1158
  100SAPS   H8R10059   3.520  -0.025   6.729  0.4127  0.4112 -0.2801
  100SAPS   C2910060   3.599  -0.059   6.920  0.3973  0.5233  0.3600
  100SAPS   H9R10061   3.593  -0.167   6.905 -0.5537  0.5722  0.2743
  100SAPS  C21010062   3.649  -0.009   7.057  0.5277  0.2956 -0.8556
  100SAPS  H10R10063   3.596  -0.055   7.144  1.4773 -1.4030 -1.1374
  100SAPS  H10S10064   3.610   0.095   7.064  0.2093  0.2264 -1.5325
  100SAPS  C21110065   3.797  -0.007   7.081  0.4719 -0.2517 -0.4872
  100SAPS  H11R10066   3.845   0.066   7.015  1.4247  1.8077  2.2780
  100SAPS  C21210067   3.872  -0.080   7.175 -0.3644 -0.0196  0.1317
  100SAPS  H12R10068   3.981  -0.064   7.181 -0.2096 -0.7628 -0.3815
  100SAPS  C21310069   3.811  -0.174   7.275  0.7667 -0.4540 -0.8285
  100SAPS  H13R10070   3.888  -0.251   7.294 -1.0959 -2.1823  0.0218
  100SAPS  H13S10071   3.722  -0.227   7.236 -0.2984  0.2287  0.5629
  100SAPS  C21410072   3.802  -0.113   7.411 -0.0140  0.8347 -0.5974
  100SAPS  H14R10073   3.728  -0.032   7.415 -2.3356 -1.2065  0.9589
  100SAPS  C21510074   3.866  -0.150   7.525 -0.0650 -0.2541  0.6404
  100SAPS  H15R10075   3.832  -0.104   7.619  0.6792 -1.6404  1.6263
  100SAPS  C21610076   3.970  -0.262   7.541  0.8135 -0.6290  0.9954
  100SAPS  H16R10077   4.031  -0.281   7.450  0.8858  3.3909  0.0349
  100SAPS  H16S10078   3.923  -0.357   7.575  0.8092 -0.6131  1.0324
  100SAPS  C21710079   4.062  -0.229   7.659  0.2845  0.4233 -0.0350
  100SAPS  H17R10080   4.119  -0.135   7.645 -0.7375  1.4416  2.1703
  100SAPS  H17S10081   4.144  -0.304   7.650 -0.9083 -1.0986  1.1385
  100SAPS  C21810082   4.007  -0.247   7.804  0.6266 -0.1511  0.1651
  100SAPS  H18R10083   3.972  -0.352   7.802  0.7515 -0.2570  2.0515
  100SAPS  H18S10084   3.919  -0.181   7.818  0.7263  0.4830 -1.8083
  100SAPS  C21910085   4.111  -0.232   7.912 -0.7898  0.3302 -0.2629
  100SAPS  H19R10086   4.133  -0.124   7.929 -1.0344  0.2984  0.2677
  100SAPS  H19S10087   4.198  -0.290   7.874 -0.4950  0.2206  0.5647
  100SAPS  C22010088   4.089  -0.298   8.046 -0.3579 -0.3818  0.8956
  100SAPS  H20R10089   3.987  -0.264   8.074 -0.9818 -0.2439 -1.3383
  100SAPS  H20S10090   4.160  -0.266   8.125 -0.8573  3.6242 -0.0535
  100SAPS  H20T10091   4.086  -0.408   8.033  0.7744 -0.1785 -2.0767
  100SAPS   C3310092   3.500   0.698   6.609 -0.9434 -0.4899  0.6366
  100SAPS   H3X10093   3.510   0.605   6.549 -0.1604 -0.3597  0.5587
  100SAPS   H3Y10094   3.392   0.703   6.632 -0.7308 -0.8123  1.7669
  100SAPS   C3410095   3.586   0.690   6.731  0.3067  0.2884 -0.6884
  100SAPS   H4X10096   3.559   0.780   6.790 -2.5572 -1.0626  0.2659
  100SAPS   H4Y10097   3.694   0.701   6.708  0.6164 -0.0667  0.5438
  100SAPS   C3510098   3.554   0.571   6.829  0.4165  0.7563 -0.1580
  100SAPS   H5X10099   3.600   0.475   6.798  0.3739  0.0012  1.9533
  100SAPS   H5Y10100   3.445   0.552   6.824  0.2858  1.1473  0.9029
  100SAPS   C3610101   3.611   0.592   6.969  0.5238 -0.2063 -0.5003
  100SAPS   H6X10102   3.565   0.680   7.019  0.4939 -0.0322 -0.8310
  100SAPS   H6Y10103   3.719   0.614   6.956  0.8191 -1.7250 -0.8080
  100SAPS   C3710104   3.613   0.480   7.064 -0.6397  0.1281  0.7089
  100SAPS   H7X10105   3.648   0.392   7.005 -2.2051  0.5953 -1.0048
  100SAPS   H7Y10106   3.510   0.452   7.095 -1.5489  2.3695 -0.0283
  100SAPS   C3810107   3.699   0.491   7.186 -0.1190 -0.5199 -0.0103
  100SAPS   H8X10108   3.670   0.580   7.245 -1.2017 -0.5497 -0.4801
  100SAPS   H8Y10109   3.805   0.503   7.156 -0.4646 -1.4057 -1.7115
  100SAPS   C3910110   3.694   0.385   7.294 -0.2904 -0.6519  0.3347
  100SAPS   H9X10111   3.682   0.292   7.235  1.0943 -0.0627 -0.9747
  100SAPS   H9Y10112   3.607   0.395   7.362  1.9149  0.0137  3.2439
  100SAPS  C31010113   3.820   0.373   7.386 -0.7300  0.0125  0.1673
  100SAPS  H10X10114   3.816   0.478   7.421 -0.4757  0.9154 -2.2929
  100SAPS  H10Y10115   3.905   0.355   7.317 -0.5228  1.8210 -0.0982
  100SAPS  C31110116   3.807   0.268   7.487  0.3088  0.2827 -0.6431
  100SAPS  H11X10117   3.841   0.168   7.452  0.4344  0.0531  0.1190
  100SAPS  H11Y10118   3.703   0.240   7.517 -0.1684  0.8291 -1.7260
  100SAPS  C31210119   3.882   0.303   7.614 -0.0017  0.2692  0.0247
  100SAPS  H12X10120   3.841   0.394   7.663  0.2034 -0.8916  2.4902
  100SAPS  H12Y10121   3.990   0.323   7.598  0.1835 -0.8656 -0.2207
  100SAPS  C31310122   3.883   0.190   7.712  0.1319 -0.2740  0.3498
  100SAPS  H13X10123   3.961   0.125   7.667 -2.4500 -1.2939 -3.0645
  100SAPS  H13Y10124   3.783   0.145   7.697  1.2645 -2.1828 -2.3599
  100SAPS  C31410125   3.914   0.229   7.854  0.3516  0.0624  1.0814
  100SAPS  H14X10126   3.897   0.135   7.911  1.8457 -0.7772  0.1999
  100SAPS  H14Y10127   3.843   0.309   7.886 -1.0169 -1.0025  0.8260
  100SAPS  C31510128   4.063   0.265   7.886 -0.5169  0.3045  0.7117
  100SAPS  H15X10129   4.092   0.347   7.818 -1.5811 -1.7747 -2.4666
  100SAPS  H15Y10130   4.136   0.183   7.869 -0.5724  0.0531  1.6015
  100SAPS  C31610131   4.085   0.320   8.028  0.1886 -0.4469 -0.2441
  100SAPS  H16X10132   3.992   0.375   8.052 -1.1980 -2.7755 -0.0289
  100SAPS  H16Y10133   4.169   0.392   8.042 -0.3394 -0.0776  1.0956
  100SAPS  C31710134   4.096   0.219   8.132  0.6687  0.1412 -0.2747
  100SAPS  H17X10135   4.185   0.155   8.112 -0.6732 -2.6152  1.8122
  100SAPS  H17Y10136   4.000   0.162   8.136  0.5858 -0.2106 -4.0439
  100SAPS  C31810137   4.107   0.274   8.274 -0.1961 -0.1249 -0.2099
  100SAPS  H18X10138   4.011   0.310   8.315 -0.0516 -0.1158  0.1265
  100SAPS  H18Y10139   4.181   0.357   8.277 -0.1947 -0.1431  1.1332
  100SAPS  H18Z10140   4.145   0.189   8.335  2.0776  0.7065 -0.3508
  101OSM      N10141   3.943   6.308  10.673  0.1876  0.3924  0.6152
  101OSM    C1510142   3.811   6.267  10.731 -0.6420  0.3497  0.4243
  101OSM   H15A10143   3.748   6.350  10.759 -1.4700 -0.1240 -0.0005
  101OSM   H15B10144   3.829   6.206  10.819  0.1311 -0.6631 -0.4164
  101OSM   H15C10145   3.765   6.196  10.664  0.9029 -1.6296  1.3229
  101OSM    C1410146   4.002   6.423  10.752  0.5279  0.3995 -0.3566
  101OSM   H14A10147   4.011   6.412  10.859  1.5693 -0.5353 -0.5173
  101OSM   H14B10148   3.935   6.507  10.740 -0.0286  0.1635  0.9123
  101OSM   H14C10149   4.095   6.456  10.708  0.8042  0.0032 -0.0743
  101OSM    C1310150   4.043   6.196  10.666  0.2409  0.5010  0.0496
  101OSM   H13A10151   4.035   6.114  10.597  1.4390 -0.9561  1.5557
  101OSM   H13B10152   4.049   6.147  10.762 -1.1352  1.2487  0.5414
  101OSM   H13C10153   4.142   6.237  10.647  1.0010  0.0556  2.6630
  101OSM    C1210154   3.930   6.368  10.530 -0.6987 -0.1256  0.7455
  101OSM   H12A10155   3.918   6.287  10.459  1.6959  0.2829 -0.2264
  101OSM   H12B10156   4.027   6.402  10.497  0.4532 -1.1990  2.8238
  101OSM    C1110157   3.813   6.458  10.505  0.4660 -0.8360  0.4145
  101OSM   H11A10158   3.724   6.392  10.512  1.4798 -2.3725 -0.5276
  101OSM   H11B10159   3.817   6.492  10.399  0.5834  2.3808  1.3334
  101OSM      P10160   3.817   6.711  10.548  0.0588  0.1625 -0.3461
  101OSM    O1310161   3.790   6.803  10.662  0.3428 -0.0409  0.1357
  101OSM    O1410162   3.950   6.728  10.485 -0.4118 -0.0614  0.3044
  101OSM    O1110163   3.706   6.710  10.444  0.2671  0.0837 -0.4887
  101OSM    O1210164   3.802   6.565  10.601  0.0171 -0.3829  0.0783
  101OSM    C1S10165   3.632   6.830  10.416 -0.1384 -0.7535  0.0702
  101OSM    H1S10166   3.631   6.904  10.498 -1.1306  0.3966 -0.9351
  101OSM    H1T10167   3.526   6.806  10.393 -0.2116 -0.0120 -0.4352
  101OSM     NF10168   3.622   7.046  10.283 -0.5728  0.1708  0.1645
  101OSM    HNF10169   3.551   7.060  10.214  0.7524 -2.1807 -1.8633
  101OSM    C2S10170   3.686   6.909  10.290 -0.0248  0.2382  0.2720
  101OSM    H2S10171   3.796   6.922  10.304 -0.0911 -0.3170  1.4722
  101OSM    C3S10172   3.668   6.838  10.155 -0.3128  0.1191  0.1165
  101OSM    H3S10173   3.560   6.829  10.131  0.3920  0.8601 -4.1089
  101OSM     O310174   3.710   6.703  10.157  0.2404  0.0937 -0.3173
  101OSM    HO310175   3.701   6.676  10.248  1.3788  0.3203 -0.1150
  101OSM    C4S10176   3.735   6.916  10.048 -0.8070 -0.3216  0.1481
  101OSM    H4S10177   3.691   7.012  10.019 -0.1859 -0.2054 -0.4601
  101OSM    C5S10178   3.854   6.895   9.984  0.6320  0.9812  0.4233
  101OSM    H5S10179   3.902   6.800  10.011 -2.7575 -1.5047 -1.5748
  101OSM    C6S10180   3.933   6.987   9.887  0.1359 -0.0079  0.1623
  101OSM    H6S10181   3.975   6.933   9.799  1.5098 -1.4942  1.6420
  101OSM    H6T10182   4.024   7.015   9.946  0.6243 -1.1526 -0.0269
  101OSM    C7S10183   3.869   7.117   9.842 -0.0893 -0.0797  0.5879
  101OSM    H7S10184   3.939   7.169   9.773  1.4082 -0.6994  1.5879
  101OSM    H7T10185   3.840   7.184   9.926 -1.5709 -0.7147  0.6250
  101OSM    C8S10186   3.751   7.099   9.740  0.9257 -0.0494  0.5849
  101OSM    H8S10187   3.712   7.201   9.715 -0.0342 -0.9946 -2.2652
  101OSM    H8T10188   3.663   7.051   9.788 -0.6266  2.5169  0.5099
  101OSM    C9S10189   3.774   7.019   9.616 -0.6401  0.8307 -0.0455
  101OSM    H9S10190   3.693   7.002   9.541 -0.5414  1.3985 -0.2831
  101OSM    H9T10191   3.803   6.916   9.649  0.8887  1.0319 -0.6571
  101OSM   C10S10192   3.899   7.058   9.534  0.1933 -0.4986  0.6391
  101OSM   H10S10193   3.992   7.066   9.594  2.6973  0.2973 -2.9794
  101OSM   H10T10194   3.865   7.145   9.473  0.9167 -2.4182 -2.7623
  101OSM   C11S10195   3.932   6.955   9.425 -0.4611  0.7876  0.2555
  101OSM   H11S10196   3.840   6.945   9.363 -1.4584  0.7775  1.6894
  101OSM   H11T10197   3.964   6.858   9.468 -1.3484  0.9266  1.2727
  101OSM   C12S10198   4.039   7.008   9.323  0.2006  0.0419 -0.4991
  101OSM   H12S10199   4.131   7.023   9.383 -0.5295 -1.0022  0.9246
  101OSM   H12T10200   4.006   7.108   9.287  3.0123  1.5691  0.8966
  101OSM   C13S10201   4.066   6.928   9.198 -0.5460  0.0165 -0.1222
  101OSM   H13S10202   3.975   6.894   9.145 -1.1027 -1.6571  1.7475
  101OSM   H13T10203   4.121   6.845   9.248 -0.0468  0.1419 -0.4606
  101OSM   C14S10204   4.149   7.003   9.097 -0.5721  0.2468  1.2264
  101OSM   H14S10205   4.242   7.030   9.153  0.8641 -0.1995 -0.8167
  101OSM   H14T10206   4.105   7.096   9.055  1.6531  0.3551 -1.1603
  101OSM   C15S10207   4.185   6.923   8.972  0.1851 -0.6068  0.5848
  101OSM   H15S10208   4.088   6.895   8.926  0.5067 -0.2367 -0.3575
  101OSM   H15T10209   4.261   6.844   8.994 -0.3183 -1.9918 -2.1885
  101OSM   C16S10210   4.250   7.012   8.863 -0.8336 -0.2792 -1.2286
  101OSM   H16S10211   4.354   7.037   8.892 -1.5365 -0.1960  1.4104
  101OSM   H16T10212   4.188   7.104   8.863 -0.0255  0.2802  0.1426
  101OSM   C17S10213   4.260   6.968   8.718 -0.4444 -0.6027  0.2038
  101OSM   H17S10214   4.166   6.913   8.700  1.1495 -2.5059 -3.2024
  101OSM   H17T10215   4.346   6.899   8.713  0.9753  1.0541  0.5888
  101OSM   C18S10216   4.279   7.075   8.609 -0.0125  1.0432 -0.2397
  101OSM   H18S10217   4.383   7.114   8.611  0.4571 -0.1400  2.0233
  101OSM   H18T10218   4.203   7.155   8.621  0.4053  1.2360  1.2572
  101OSM   H18U10219   4.269   7.017   8.514 -0.1336 -0.0261  0.4073
  101OSM    C1F10220   3.648   7.136  10.376  0.1167  0.2426  1.0689
  101OSM     OF10221   3.745   7.128  10.451  0.2323  0.0663  0.2142
  101OSM    C2F10222   3.557   7.254  10.379  0.2289  0.5851 -0.5118
  101OSM    H2F10223   3.486   7.232  10.462  1.8219  1.8590  1.3033
  101OSM    H2G10224   3.502   7.264  10.283 -1.0873  2.1202  0.3444
  101OSM    C3F10225   3.612   7.397  10.409  0.1171  0.4829  0.0040
  101OSM    H3F10226   3.672   7.395  10.503  0.6656  1.1492 -0.3269
  101OSM    H3G10227   3.522   7.456  10.437  0.5192  1.1229 -0.0526
  101OSM    C4F10228   3.708   7.450  10.302  0.3101  0.0698  0.4410
  101OSM    H4F10229   3.792   7.381  10.278  1.7367  0.6144  3.4016
  101OSM    H4G10230   3.752   7.541  10.348  2.1820 -0.7099  0.2863
  101OSM    C5F10231   3.632   7.494  10.173  0.2298  0.4661  0.0221
  101OSM    H5F10232   3.544   7.556  10.201  1.0135  0.3429  3.1165
  101OSM    H5G10233   3.580   7.409  10.125 -0.3671  0.7723  0.1187
  101OSM    C6F10234   3.718   7.572  10.074 -0.4143  0.0137  0.2119
  101OSM    H6F10235   3.792   7.625  10.137 -0.7785 -1.7844  2.2512
  101OSM    H6G10236   3.653   7.647  10.023  0.6325 -0.0590 -1.2990
  101OSM    C7F10237   3.792   7.500   9.962 -0.4231  1.0249  0.0959
  101OSM    H7F10238   3.716   7.436   9.912  0.2336  0.7137 -0.5042
  101OSM    H7G10239   3.868   7.432  10.006  0.0026 -0.0808 -2.2247
  101OSM    C8F10240   3.847   7.592   9.851  0.7296  0.0141  0.2687
  101OSM    H8F10241   3.885   7.687   9.893 -1.3469  0.5546  1.0512
  101OSM    H8G10242   3.755   7.605   9.790  0.6533 -2.4391 -0.2672
  101OSM    C9F10243   3.947   7.531   9.758 -0.6983  0.0954  0.2047
  101OSM    H9F10244   4.015   7.459   9.806  1.1899  0.6920 -1.4309
  101OSM   C10F10245   3.968   7.565   9.628  0.2195  0.3497 -0.2302
  101OSM   H10F10246   4.039   7.515   9.560 -2.4314 -0.3887 -2.6574
  101OSM   C11F10247   3.889   7.675   9.563  0.3106  0.2279  0.2003
  101OSM   H11F10248   3.852   7.747   9.639  1.3557 -0.3356  1.2823
  101OSM   H11G10249   3.795   7.635   9.520  0.1358  1.2852 -0.4248
  101OSM   C12F10250   3.965   7.738   9.451 -0.3982  0.0754  0.2041
  101OSM   H12F10251   4.072   7.744   9.479 -0.0484  1.7514 -1.3306
  101OSM   H12G10252   3.924   7.839   9.431 -0.4960 -0.2077 -1.1227
  101OSM   C13F10253   3.955   7.669   9.313  0.2108  0.4724  0.1943
  101OSM   H13F10254   3.848   7.676   9.284 -0.0083 -0.1785  0.8057
  101OSM   H13G10255   3.976   7.560   9.317 -0.2738  0.3705  0.1289
  101OSM   C14F10256   4.044   7.728   9.206 -0.2360  0.0947 -0.5266
  101OSM   H14F10257   4.143   7.688   9.237 -0.0542  0.2100 -0.9566
  101OSM   H14G10258   4.045   7.838   9.216  0.4081  0.1186 -0.7975
  101OSM   C15F10259   4.013   7.679   9.063  0.4665 -0.9717 -0.1460
  101OSM   H15F10260   3.907   7.701   9.038 -0.4512 -1.4005  2.9071
  101OSM   H15G10261   4.017   7.568   9.061  2.8282 -0.9339 -0.2080
  101OSM   C16F10262   4.106   7.728   8.954  0.4011  0.4237  0.3530
  101OSM   H16F10263   4.085   7.669   8.862 -1.6421  1.5333  0.0486
  101OSM   H16G10264   4.210   7.696   8.975  0.5456  1.3933  1.1906
  101OSM   C17F10265   4.097   7.879   8.917  0.6545  0.3936 -0.0085
  101OSM   H17F10266   4.199   7.917   8.895 -0.1534  2.6261 -0.2354
  101OSM   H17G10267   4.079   7.930   9.015 -2.5436  0.9375 -0.7426
  101OSM   C18F10268   3.997   7.930   8.817  0.4317 -0.1448 -0.1350
  101OSM   H18F10269   3.894   7.936   8.858  0.3666  1.1451 -0.4592
  101OSM   H18G10270   3.987   7.865   8.727 -0.3923 -1.8636  1.1450
  101OSM   H18H10271   4.029   8.033   8.791 -0.6774 -0.3977 -2.8431
  102OSM      N10272   3.401   0.033  10.882 -0.2258  0.2387 -0.9180
  102OSM    C1510273   3.371  -0.060  10.986 -0.3499 -0.5337 -0.2748
  102OSM   H15A10274   3.264  -0.054  10.997 -0.1586  1.0610  1.2722
  102OSM   H15B10275   3.418  -0.033  11.080  0.6119  0.0449 -0.9082
  102OSM   H15C10276   3.402  -0.160  10.961  0.1831 -0.9276  1.7504
  102OSM    C1410277   3.357   0.175  10.925  0.3107  0.0568  0.0797
  102OSM   H14A10278   3.417   0.253  10.882  0.7893 -0.3253  0.0438
  102OSM   H14B10279   3.362   0.187  11.032  2.6486  2.8899 -0.2237
  102OSM   H14C10280   3.257   0.178  10.883  1.2143  1.4968 -2.1576
  102OSM    C1310281   3.557   0.043  10.874 -0.1484 -0.1488 -0.3292
  102OSM   H13A10282   3.604   0.067  10.968  1.1513  1.5688 -1.3660
  102OSM   H13B10283   3.576   0.120  10.801 -1.8881 -1.3526 -2.1687
  102OSM   H13C10284   3.586  -0.052  10.832 -1.9804 -1.1772  0.5586
  102OSM    C1210285   3.341  -0.006  10.749  0.2696  0.5122  0.2535
  102OSM   H12A10286   3.337   0.081  10.686  1.9931  0.9266  0.6655
  102OSM   H12B10287   3.236  -0.031  10.759 -0.0898  0.7897 -2.2672
  102OSM    C1110288   3.405  -0.122  10.665  0.1853 -0.4667 -0.1104
  102OSM   H11A10289   3.515  -0.118  10.653  0.1629 -1.1345 -0.6228
  102OSM   H11B10290   3.370  -0.111  10.560  3.0034 -1.4048 -1.2354
  102OSM      P10291   3.223  -0.319  10.689 -0.4163  0.0905 -0.1042
  102OSM    O1310292   3.237  -0.457  10.747 -0.3749 -0.4457  0.2151
  102OSM    O1410293   3.120  -0.230  10.746  0.5239 -0.6880 -0.2929
  102OSM    O1110294   3.219  -0.316  10.533 -0.1464  0.2413 -0.3732
  102OSM    O1210295   3.368  -0.241  10.724  0.2654 -0.3376 -0.3198
  102OSM    C1S10296   3.323  -0.364  10.446 -0.1024  0.2627 -0.0160
  102OSM    H1S10297   3.325  -0.475  10.452 -0.8344  0.1916 -0.8123
  102OSM    H1T10298   3.422  -0.324  10.476  0.3727 -0.9414  0.0597
  102OSM     NF10299   3.386  -0.419  10.212  0.2262  0.6512 -1.0493
  102OSM    HNF10300   3.451  -0.365  10.159  3.6791 -1.9150  0.1783
  102OSM    C2S10301   3.293  -0.346  10.292 -0.2834 -0.3516 -0.3789
  102OSM    H2S10302   3.193  -0.393  10.280 -0.7370  0.6568 -0.6732
  102OSM    C3S10303   3.292  -0.199  10.258  0.1190  0.0234 -0.2084
  102OSM    H3S10304   3.393  -0.154  10.250  0.4770 -0.8272 -0.5537
  102OSM     O310305   3.216  -0.121  10.348  0.5595 -0.0416 -0.6574
  102OSM    HO310306   3.216  -0.173  10.429 -1.3144  0.9225  0.0202
  102OSM    C4S10307   3.235  -0.191  10.119 -0.5604  0.1906  0.2055
  102OSM    H4S10308   3.139  -0.243  10.103  0.9040 -3.5750  2.3286
  102OSM    C5S10309   3.277  -0.130  10.007 -0.1890 -0.0907 -0.3114
  102OSM    H5S10310   3.369  -0.073  10.025  1.9606 -2.8581 -1.7160
  102OSM    C6S10311   3.210  -0.129   9.876 -0.0771 -0.5127 -0.7710
  102OSM    H6S10312   3.100  -0.121   9.891 -0.5029 -1.1516 -3.0558
  102OSM    H6T10313   3.227  -0.226   9.824  0.0373 -1.3943  0.8561
  102OSM    C7S10314   3.230  -0.003   9.790  0.3296 -0.9142  0.2500
  102OSM    H7S10315   3.333   0.016   9.755  0.0575  0.4835  0.1378
  102OSM    H7T10316   3.204   0.090   9.845  1.9290 -1.1290  1.4211
  102OSM    C8S10317   3.148   0.006   9.659 -0.3050 -0.3465  0.0472
  102OSM    H8S10318   3.045  -0.014   9.693 -1.2219  2.2527 -0.9539
  102OSM    H8T10319   3.175  -0.084   9.599  0.2196 -1.3767  1.7567
  102OSM    C9S10320   3.156   0.137   9.579  0.2295 -0.3079  0.2322
  102OSM    H9S10321   3.117   0.213   9.651 -0.7664 -1.1438  0.6171
  102OSM    H9T10322   3.075   0.143   9.503 -0.4759 -1.0045  0.9015
  102OSM   C10S10323   3.287   0.178   9.514 -0.0275 -0.6634 -0.3911
  102OSM   H10S10324   3.370   0.198   9.585 -1.2270  0.0617  0.8501
  102OSM   H10T10325   3.267   0.271   9.457 -1.4377  0.1031  1.2731
  102OSM   C11S10326   3.332   0.076   9.410 -0.6814 -0.1469  0.7199
  102OSM   H11S10327   3.246   0.059   9.341  0.4239 -0.8767 -0.5169
  102OSM   H11T10328   3.352  -0.025   9.451 -0.4378 -0.2952  0.2334
  102OSM   C12S10329   3.456   0.127   9.331  0.3272 -0.0789  0.0850
  102OSM   H12S10330   3.553   0.095   9.372  0.9403  2.0406  0.4243
  102OSM   H12T10331   3.457   0.238   9.325  4.6226 -0.0600 -2.6125
  102OSM   C13S10332   3.456   0.067   9.187  0.3758 -0.0968 -0.4519
  102OSM   H13S10333   3.353   0.068   9.147 -0.2851  0.7674  1.1529
  102OSM   H13T10334   3.477  -0.041   9.205  0.7264  0.2812  1.7614
  102OSM   C14S10335   3.559   0.129   9.089  0.2177 -0.2654 -0.0994
  102OSM   H14S10336   3.660   0.125   9.136  0.7391  1.0524 -1.0335
  102OSM   H14T10337   3.532   0.237   9.085 -2.4395 -0.9177 -1.6010
  102OSM   C15S10338   3.540   0.068   8.951 -0.5915  0.4520 -0.6314
  102OSM   H15S10339   3.432   0.082   8.926 -0.1210  4.2393 -1.1407
  102OSM   H15T10340   3.543  -0.042   8.966  0.0928  0.5088 -0.3011
  102OSM   C16S10341   3.616   0.129   8.842  0.2079  0.2757  0.4451
  102OSM   H16S10342   3.592   0.237   8.830 -0.9924  0.0985  1.0512
  102OSM   H16T10343   3.597   0.080   8.744 -1.7830  1.8449 -0.0436
  102OSM   C17S10344   3.768   0.121   8.859 -0.0814 -0.1228 -0.4215
  102OSM   H17S10345   3.775   0.017   8.899 -1.6348  0.3716  1.2552
  102OSM   H17T10346   3.808   0.193   8.933 -0.4696  2.6935 -2.7909
  102OSM   C18S10347   3.849   0.132   8.739 -0.4396  0.4011  0.3685
  102OSM   H18S10348   3.843   0.034   8.687  0.2044 -0.7384  2.3357
  102OSM   H18T10349   3.957   0.146   8.761  0.1029 -2.5946  0.0631
  102OSM   H18U10350   3.830   0.213   8.665  1.4147 -0.4446 -1.1000
  102OSM    C1F10351   3.408  -0.554  10.222 -0.4746  0.2124  0.4610
  102OSM     OF10352   3.334  -0.638  10.273 -0.4132  0.0920 -0.0017
  102OSM    C2F10353   3.538  -0.609  10.157  0.8906  0.4250 -0.3235
  102OSM    H2F10354   3.597  -0.662  10.234 -1.1356 -0.8670  0.4191
  102OSM    H2G10355   3.596  -0.521  10.121  2.4375  0.1890  1.4574
  102OSM    C3F10356   3.503  -0.715  10.043 -0.1801 -0.8053 -0.2027
  102OSM    H3F10357   3.413  -0.767  10.081 -0.2634 -1.2046 -0.9254
  102OSM    H3G10358   3.580  -0.793  10.029 -1.2459 -1.7090 -1.1860
  102OSM    C4F10359   3.450  -0.649   9.918 -0.3611 -0.1473 -0.4367
  102OSM    H4F10360   3.519  -0.679   9.836 -0.1392 -0.3374 -0.1804
  102OSM    H4G10361   3.465  -0.539   9.922 -1.1564 -0.0251 -0.7274
  102OSM    C5F10362   3.301  -0.659   9.888 -0.2799  0.4468  0.0027
  102OSM    H5F10363   3.243  -0.614   9.971  1.1043 -0.3462  1.4436
  102OSM    H5G10364   3.276  -0.766   9.868  1.7613 -0.2221  0.7623
  102OSM    C6F10365   3.266  -0.585   9.756 -0.2569 -0.3389 -0.3864
  102OSM    H6F10366   3.259  -0.479   9.789  0.6261  0.2024 -1.8249
  102OSM    H6G10367   3.159  -0.613   9.741 -0.2584 -0.7348  0.3334
  102OSM    C7F10368   3.358  -0.623   9.633  0.2445  0.5278  0.5337
  102OSM    H7F10369   3.334  -0.731   9.619 -1.1315  1.1161 -2.1925
  102OSM    H7G10370   3.465  -0.601   9.649  1.0973 -3.0262  0.6815
  102OSM    C8F10371   3.314  -0.564   9.499  0.0288 -0.2774  0.1779
  102OSM    H8F10372   3.223  -0.617   9.463 -1.6415  1.6733  1.3016
  102OSM    H8G10373   3.398  -0.576   9.427 -1.1285 -0.2146 -1.2374
  102OSM    C9F10374   3.280  -0.413   9.507  0.5742  0.9199  0.6017
  102OSM    H9F10375   3.309  -0.364   9.601  1.0901  1.9016 -0.0515
  102OSM   C10F10376   3.241  -0.330   9.406 -0.0470  0.1662 -0.3734
  102OSM   H10F10377   3.228  -0.222   9.422  1.3701  0.0394  2.1453
  102OSM   C11F10378   3.218  -0.385   9.267  0.6438 -0.5400  0.4113
  102OSM   H11F10379   3.124  -0.345   9.222  0.2431 -0.1247  1.5614
  102OSM   H11G10380   3.218  -0.496   9.269  0.5658 -0.5467  0.1402
  102OSM   C12F10381   3.322  -0.329   9.170  0.0120 -0.0163 -1.1080
  102OSM   H12F10382   3.416  -0.372   9.209 -1.6305 -3.2144 -0.3417
  102OSM   H12G10383   3.325  -0.218   9.166  0.3030  0.0473  0.4506
  102OSM   C13F10384   3.297  -0.381   9.021  0.2429 -0.2452 -0.6400
  102OSM   H13F10385   3.196  -0.348   8.990 -0.4368 -0.5895  1.0969
  102OSM   H13G10386   3.305  -0.492   9.030  2.4035 -0.1452 -0.7679
  102OSM   C14F10387   3.399  -0.340   8.914 -0.5111 -0.1244 -0.9019
  102OSM   H14F10388   3.473  -0.422   8.897  0.8751  1.1167 -1.0686
  102OSM   H14G10389   3.454  -0.246   8.935  0.2412 -0.8778  0.7039
  102OSM   C15F10390   3.344  -0.337   8.768 -0.1839  0.1815 -0.7835
  102OSM   H15F10391   3.275  -0.422   8.751 -1.6405  1.6058 -2.3745
  102OSM   H15G10392   3.426  -0.352   8.695  0.7539 -0.2172  0.3336
  102OSM   C16F10393   3.267  -0.206   8.743  0.6547  0.0341 -0.1595
  102OSM   H16F10394   3.328  -0.116   8.765 -0.4343  0.2640  2.2630
  102OSM   H16G10395   3.185  -0.198   8.818  2.1024  2.4875  1.2891
  102OSM   C17F10396   3.208  -0.193   8.597  0.3912  0.2926 -0.3883
  102OSM   H17F10397   3.141  -0.104   8.600 -1.2196 -0.8394 -1.1516
  102OSM   H17G10398   3.132  -0.272   8.578 -1.9509  2.0531  1.0203
  102OSM   C18F10399   3.302  -0.171   8.478  0.0899 -0.5426  0.0872
  102OSM   H18F10400   3.355  -0.077   8.504 -1.2942  0.7703 -1.5811
  102OSM   H18G10401   3.247  -0.163   8.382  0.0623 -0.6476  0.0934
  102OSM   H18H10402   3.377  -0.253   8.473  0.5868 -0.2785  2.1704
  103OSM      N10403   3.587   2.661  10.976 -0.2990  0.1027  0.0910
  103OSM    C1510404   3.629   2.677  11.119  0.3839  0.7813 -0.2857
  103OSM   H15A10405   3.561   2.620  11.180  1.7622 -0.1962  0.4046
  103OSM   H15B10406   3.638   2.782  11.142  1.0113  0.4437  1.1244
  103OSM   H15C10407   3.718   2.617  11.133 -0.7337 -0.3953  2.4612
  103OSM    C1410408   3.533   2.523  10.974 -0.7084  0.3990 -0.1080
  103OSM   H14A10409   3.474   2.514  11.065  0.8087 -0.9577  0.7823
  103OSM   H14B10410   3.602   2.441  10.987 -0.7160  0.3985 -0.0642
  103OSM   H14C10411   3.486   2.482  10.886  1.3419 -2.1348 -0.1396
  103OSM    C1310412   3.480   2.755  10.930 -0.2755 -0.0824  0.6517
  103OSM   H13A10413   3.393   2.743  10.993 -0.4442 -1.2517  0.2211
  103OSM   H13B10414   3.446   2.739  10.829 -3.0743  0.1100  1.4736
  103OSM   H13C10415   3.520   2.854  10.944  0.4412 -0.1049 -1.0032
  103OSM    C1210416   3.709   2.671  10.887 -0.1915  0.3392  0.0856
  103OSM   H12A10417   3.686   2.650  10.784  0.8694  2.1051 -0.5637
  103OSM   H12B10418   3.781   2.596  10.916  0.0237  0.6274  0.3145
  103OSM    C1110419   3.788   2.808  10.893  0.2475  0.4985 -0.3462
  103OSM   H11A10420   3.865   2.803  10.813 -1.7225  0.5417 -2.3393
  103OSM   H11B10421   3.837   2.829  10.990  0.3679  2.0443 -0.7165
  103OSM      P10422   3.666   2.980  10.726 -0.1722  0.0428 -0.2019
  103OSM    O1310423   3.680   3.128  10.750 -0.0827  0.0646  0.5043
  103OSM    O1410424   3.744   2.915  10.617  0.1944  0.1431  0.0344
  103OSM    O1110425   3.522   2.935  10.717  0.1402  0.3251 -0.5695
  103OSM    O1210426   3.701   2.914  10.863 -0.8636  0.5077 -0.3612
  103OSM    C1S10427   3.432   3.012  10.643 -0.4030 -0.1943 -0.1695
  103OSM    H1S10428   3.439   3.122  10.651  0.4478 -0.3838  3.0960
  103OSM    H1T10429   3.336   2.981  10.688  0.6804 -2.6623  0.6583
  103OSM     NF10430   3.350   3.054  10.423  0.6393 -0.4945  0.7875
  103OSM    HNF10431   3.251   3.040  10.425 -0.2329  3.2305 -2.9002
  103OSM    C2S10432   3.435   2.970  10.496 -0.2354  0.0979  0.3925
  103OSM    H2S10433   3.539   2.974  10.460  0.1942  1.3667  1.6669
  103OSM    C3S10434   3.390   2.818  10.470 -0.0188  0.1309 -0.2164
  103OSM    H3S10435   3.292   2.807  10.520  0.2351 -2.4282 -0.1341
  103OSM     O310436   3.474   2.727  10.545  0.0576 -0.1239 -0.0883
  103OSM    HO310437   3.515   2.781  10.612  2.8995  1.1160 -2.5786
  103OSM    C4S10438   3.382   2.786  10.326  0.4691  0.1198  0.6285
  103OSM    H4S10439   3.462   2.821  10.259 -2.0151  0.2140 -2.5435
  103OSM    C5S10440   3.269   2.739  10.264 -0.2179  0.0952  0.4459
  103OSM    H5S10441   3.177   2.741  10.325  0.3078  0.7102  1.2381
  103OSM    C6S10442   3.259   2.727  10.117 -0.1783 -0.8885  0.1042
  103OSM    H6S10443   3.177   2.798  10.095 -1.1534 -1.9924  0.0285
  103OSM    H6T10444   3.216   2.627  10.091 -0.3487 -0.9169  0.4966
  103OSM    C7S10445   3.371   2.769  10.016 -0.4667 -0.1373 -0.0626
  103OSM    H7S10446   3.457   2.709  10.052  0.3694  0.9791 -0.1572
  103OSM    H7T10447   3.382   2.879  10.013  0.8107 -0.2517 -0.2772
  103OSM    C8S10448   3.336   2.726   9.873 -0.6809 -0.4621  0.0566
  103OSM    H8S10449   3.242   2.776   9.840 -1.2210 -0.8644  0.9617
  103OSM    H8T10450   3.309   2.618   9.882 -0.4793 -0.4463  0.9120
  103OSM    C9S10451   3.448   2.736   9.769  0.6144  0.5361  0.6164
  103OSM    H9S10452   3.512   2.647   9.788  0.5624  0.3513 -0.0570
  103OSM    H9T10453   3.519   2.818   9.793 -0.4999  1.8904 -0.6217
  103OSM   C10S10454   3.402   2.743   9.626 -0.1725 -0.2787 -0.1470
  103OSM   H10S10455   3.342   2.836   9.614  0.0308 -0.1579 -0.2319
  103OSM   H10T10456   3.355   2.649   9.590  1.1693 -0.5245 -1.3488
  103OSM   C11S10457   3.526   2.762   9.533 -0.1771  0.5620 -0.1011
  103OSM   H11S10458   3.594   2.674   9.531  0.9537  1.4014 -0.0282
  103OSM   H11T10459   3.581   2.850   9.573 -0.7263 -0.7375  4.0376
  103OSM   C12S10460   3.476   2.795   9.387  0.4975  0.4104 -0.4254
  103OSM   H12S10461   3.418   2.890   9.385  2.0632  1.5438  2.1510
  103OSM   H12T10462   3.407   2.711   9.366 -1.3013  1.6863  0.1018
  103OSM   C13S10463   3.579   2.795   9.272  0.1526 -0.5985  0.4312
  103OSM   H13S10464   3.626   2.695   9.262  1.9759  0.1364  1.1292
  103OSM   H13T10465   3.656   2.867   9.306  0.2110 -1.7144  2.8632
  103OSM   C14S10466   3.514   2.841   9.138  0.7703  0.5087  0.1851
  103OSM   H14S10467   3.455   2.935   9.148 -1.9993 -1.1792  0.8582
  103OSM   H14T10468   3.454   2.758   9.094  0.6301 -0.5026  2.1661
  103OSM   C15S10469   3.618   2.861   9.023  0.5247  0.1480 -0.1723
  103OSM   H15S10470   3.687   2.774   9.021 -0.3694 -0.6830  1.8796
  103OSM   H15T10471   3.681   2.951   9.042 -1.3886  1.7054 -0.7853
  103OSM   C16S10472   3.544   2.886   8.885  0.0848 -0.2120  0.0790
  103OSM   H16S10473   3.462   2.959   8.897  1.9529  2.1709 -0.9522
  103OSM   H16T10474   3.484   2.794   8.864  0.4040 -0.6272  0.9638
  103OSM   C17S10475   3.625   2.926   8.767  0.3676  0.3338 -0.0554
  103OSM   H17S10476   3.695   2.842   8.746 -0.0686 -0.1562  0.4164
  103OSM   H17T10477   3.695   3.010   8.788  0.9081 -0.3890  1.1681
  103OSM   C18S10478   3.544   2.979   8.648  0.0635  0.2203 -0.4795
  103OSM   H18S10479   3.504   3.081   8.665 -0.1319  0.1503 -0.5211
  103OSM   H18T10480   3.463   2.909   8.618  0.9148  0.1467 -2.8067
  103OSM   H18U10481   3.619   3.000   8.570 -0.2715  1.1533 -0.5613
  103OSM    C1F10482   3.378   3.185  10.397  0.3677  0.0999 -0.7845
  103OSM     OF10483   3.491   3.226  10.421  0.0568 -0.5175  0.5571
  103OSM    C2F10484   3.268   3.268  10.342  0.0099 -0.2743  0.0977
  103OSM    H2F10485   3.212   3.321  10.422 -1.2418  1.0998 -1.6228
  103OSM    H2G10486   3.192   3.212  10.285  0.5645 -0.8051 -0.1374
  103OSM    C3F10487   3.318   3.384  10.253 -0.3517 -0.4575 -0.5526
  103OSM    H3F10488   3.372   3.347  10.163 -0.0417  4.4936 -2.7334
  103OSM    H3G10489   3.389   3.450  10.307 -0.5937  1.3212 -2.2730
  103OSM    C4F10490   3.203   3.471  10.196  0.2517  0.0164 -0.1500
  103OSM    H4F10491   3.127   3.499  10.272  0.2551  0.9284 -0.4777
  103OSM    H4G10492   3.148   3.413  10.118 -1.8220  0.3777  0.9760
  103OSM    C5F10493   3.258   3.597  10.123 -0.3914 -0.4501  0.3840
  103OSM    H5F10494   3.315   3.560  10.036  0.7386  0.6481  0.6337
  103OSM    H5G10495   3.325   3.660  10.186  1.2937 -0.0958 -1.6749
  103OSM    C6F10496   3.149   3.692  10.067 -0.3182 -0.1653  0.2741
  103OSM    H6F10497   3.094   3.720  10.160 -0.3822  2.0924 -0.3865
  103OSM    H6G10498   3.091   3.633   9.993  1.6959 -2.2007  0.1897
  103OSM    C7F10499   3.201   3.818  10.001 -0.0128  0.2246 -0.6411
  103OSM    H7F10500   3.251   3.791   9.906  0.5223  1.1380 -0.6370
  103OSM    H7G10501   3.283   3.867  10.058  0.0495 -0.1286 -0.4283
  103OSM    C8F10502   3.102   3.927   9.965 -0.1916 -0.3962 -0.2093
  103OSM    H8F10503   3.163   4.000   9.907  2.4363 -2.8381 -0.7415
  103OSM    H8G10504   3.074   3.975  10.060  0.2441  1.3439 -0.9210
  103OSM    C9F10505   2.979   3.894   9.890 -0.1462 -0.8073 -0.1129
  103OSM    H9F10506   2.886   3.933   9.934 -0.6850 -1.1124 -0.9421
  103OSM   C10F10507   2.954   3.836   9.773  0.4946 -0.1008  0.4421
  103OSM   H10F10508   2.851   3.835   9.734  0.7240  0.1110 -0.1904
  103OSM   C11F10509   3.052   3.770   9.682 -0.0855  0.3156 -0.1950
  103OSM   H11F10510   3.017   3.674   9.639 -2.0983  0.6206  0.6102
  103OSM   H11G10511   3.148   3.740   9.729 -0.4937 -1.7176 -0.5565
  103OSM   C12F10512   3.087   3.868   9.568 -0.1893  0.1840  0.3242
  103OSM   H12F10513   3.164   3.811   9.513 -0.2618 -1.2317  1.6266
  103OSM   H12G10514   3.137   3.958   9.609  2.6931 -1.4200  0.6061
  103OSM   C13F10515   2.969   3.901   9.480  0.5485 -0.6129  0.5837
  103OSM   H13F10516   2.920   3.807   9.445 -1.2520 -0.5156  2.6517
  103OSM   H13G10517   2.899   3.962   9.540 -0.6670  0.2075 -1.5449
  103OSM   C14F10518   3.018   3.985   9.357  0.1827 -0.5127  0.3238
  103OSM   H14F10519   3.088   3.933   9.288  0.1972  0.5725 -0.4988
  103OSM   H14G10520   3.070   4.071   9.404  1.7285 -0.8220 -0.7253
  103OSM   C15F10521   2.910   4.046   9.273  0.1097 -0.2682 -0.0934
  103OSM   H15F10522   2.864   4.132   9.327  1.8911  0.5930  0.1419
  103OSM   H15G10523   2.827   3.972   9.270 -0.5402  0.3718  1.2718
  103OSM   C16F10524   2.964   4.091   9.138  0.0859 -0.2280 -0.0695
  103OSM   H16F10525   2.958   4.011   9.062  0.4379 -0.5434  0.2316
  103OSM   H16G10526   3.066   4.130   9.157 -0.3671  0.0423  2.0495
  103OSM   C17F10527   2.890   4.214   9.084 -0.0374 -0.6101 -0.3970
  103OSM   H17F10528   2.950   4.259   9.002 -1.7532 -0.0036 -1.3892
  103OSM   H17G10529   2.921   4.284   9.164  3.1467 -0.7954 -1.3549
  103OSM   C18F10530   2.736   4.196   9.054 -0.4724 -0.3012 -0.0664
  103OSM   H18F10531   2.699   4.284   8.997  0.4273  0.0934 -0.0507
  103OSM   H18G10532   2.685   4.182   9.152  0.3924 -2.7831  0.1086
  103OSM   H18H10533   2.715   4.102   8.998 -2.6038  0.1428 -0.1018
  104OSM      N10534   0.806   2.840  10.816 -0.0365 -0.0713 -0.1102
  104OSM    C1510535   0.670   2.831  10.874 -0.0974 -0.2159 -0.3812
  104OSM   H15A10536   0.599   2.900  10.831 -0.2179  1.7665  2.7317
  104OSM   H15B10537   0.675   2.855  10.979 -1.2484  1.1679 -0.6109
  104OSM   H15C10538   0.623   2.733  10.876 -0.1268 -0.1884  0.9965
  104OSM    C1410539   0.853   2.984  10.811 -0.0773 -0.0410  0.4692
  104OSM   H14A10540   0.957   2.995  10.787 -0.4562  5.3217  0.1719
  104OSM   H14B10541   0.848   3.034  10.906 -3.3362  1.1413 -0.1919
  104OSM   H14C10542   0.802   3.044  10.736 -0.2530  0.6943  1.1686
  104OSM    C1310543   0.900   2.771  10.898 -0.3138  0.0405 -0.2969
  104OSM   H13A10544   0.866   2.673  10.925  1.9292 -0.9196 -0.7491
  104OSM   H13B10545   0.914   2.833  10.985  0.0903  1.8521 -1.5692
  104OSM   H13C10546   0.999   2.761  10.855 -0.7824  0.0199 -1.4021
  104OSM    C1210547   0.799   2.779  10.675  0.4895 -0.6300  0.4669
  104OSM   H12A10548   0.699   2.808  10.646 -0.6808 -1.3303  3.4294
  104OSM   H12B10549   0.788   2.672  10.686 -2.7023 -0.4460 -0.0582
  104OSM    C1110550   0.910   2.816  10.575  0.3252 -0.5720 -0.0730
  104OSM   H11A10551   0.935   2.924  10.571  1.4006 -0.7583  1.1271
  104OSM   H11B10552   0.866   2.785  10.477 -2.4448  3.7066 -0.4705
  104OSM      P10553   1.066   2.607  10.597  0.2191  0.1388  0.0429
  104OSM    O1310554   1.182   2.575  10.682 -0.1473 -0.1366 -0.2609
  104OSM    O1410555   0.941   2.523  10.618 -0.2120 -0.2026 -0.9305
  104OSM    O1110556   1.100   2.584  10.447 -0.4178  0.4031  0.8669
  104OSM    O1210557   1.033   2.762  10.611  0.0385  0.3540 -0.1803
  104OSM    C1S10558   1.183   2.669  10.368  0.1845 -0.5417 -0.1759
  104OSM    H1S10559   1.287   2.668  10.408 -0.2753 -0.2203  1.0501
  104OSM    H1T10560   1.149   2.775  10.366 -0.1563 -0.4510  3.6962
  104OSM     NF10561   1.304   2.674  10.145  0.0477  0.6103 -0.0084
  104OSM    HNF10562   1.305   2.755  10.087  2.8754  1.2245  0.7778
  104OSM    C2S10563   1.185   2.623  10.217 -0.4187  0.5149  0.0501
  104OSM    H2S10564   1.186   2.512  10.224  0.4404  0.5851  1.1797
  104OSM    C3S10565   1.047   2.666  10.153 -0.3359 -0.0956 -0.0610
  104OSM    H3S10566   1.025   2.772  10.177  0.5629  0.1135 -0.1515
  104OSM     O310567   0.931   2.607  10.219 -0.3239 -0.0528  0.0193
  104OSM    HO310568   0.976   2.575  10.297  1.7942  2.4242 -0.0572
  104OSM    C4S10569   1.048   2.639  10.002 -0.4016  0.3844 -0.1527
  104OSM    H4S10570   1.076   2.721   9.933 -0.7778 -0.3152 -1.1628
  104OSM    C5S10571   1.004   2.518   9.955 -0.1302 -0.3135 -0.6115
  104OSM    H5S10572   0.975   2.442  10.030  0.6251 -0.6604 -0.6628
  104OSM    C6S10573   0.984   2.472   9.812  0.8321  0.1822 -0.0278
  104OSM    H6S10574   0.879   2.455   9.781  0.5669  1.4315  0.1035
  104OSM    H6T10575   1.041   2.377   9.809 -0.1233 -0.5569  2.2977
  104OSM    C7S10576   1.032   2.556   9.700 -0.4907 -0.1045  0.3166
  104OSM    H7S10577   1.139   2.577   9.719 -0.6660 -0.4436  1.7957
  104OSM    H7T10578   0.983   2.655   9.706 -1.9295 -0.7706  0.0021
  104OSM    C8S10579   1.025   2.505   9.555  0.2275  0.1513  0.2843
  104OSM    H8S10580   0.922   2.507   9.515  0.6597  0.1768 -0.8739
  104OSM    H8T10581   1.059   2.399   9.559 -1.2741 -0.3337  0.7256
  104OSM    C9S10582   1.122   2.582   9.462  0.1997 -0.2860  0.7511
  104OSM    H9S10583   1.228   2.575   9.493  0.2220 -2.0733  0.3671
  104OSM    H9T10584   1.096   2.690   9.461 -0.1142 -0.3344  2.1344
  104OSM   C10S10585   1.118   2.512   9.329  0.2939  0.0803 -0.3374
  104OSM   H10S10586   1.016   2.497   9.287  0.2798  1.4770 -0.8575
  104OSM   H10T10587   1.154   2.407   9.325 -2.8202 -1.0857 -3.0785
  104OSM   C11S10588   1.205   2.583   9.229  0.2998 -0.5645  0.3673
  104OSM   H11S10589   1.312   2.596   9.257 -0.4555  4.8702  2.0144
  104OSM   H11T10590   1.171   2.687   9.206  1.7085  0.0330  0.8824
  104OSM   C12S10591   1.205   2.510   9.093  0.6526  0.3831 -0.5319
  104OSM   H12S10592   1.108   2.483   9.046  0.2841  0.8082 -0.0166
  104OSM   H12T10593   1.255   2.412   9.105 -0.1632  0.0181 -0.0450
  104OSM   C13S10594   1.294   2.592   8.997 -0.0703 -0.2621 -0.2774
  104OSM   H13S10595   1.395   2.599   9.041 -0.0978  0.3257 -0.2955
  104OSM   H13T10596   1.248   2.693   8.989  1.5714  0.7583  2.0816
  104OSM   C14S10597   1.314   2.523   8.863  1.0500 -0.4081  0.1482
  104OSM   H14S10598   1.222   2.469   8.831  1.2510 -1.0870  0.6837
  104OSM   H14T10599   1.394   2.447   8.879  1.8836  0.5447  0.6234
  104OSM   C15S10600   1.330   2.612   8.739  0.2260 -0.3253 -0.3923
  104OSM   H15S10601   1.419   2.679   8.740  0.0996  0.0315 -3.4874
  104OSM   H15T10602   1.249   2.688   8.749  2.6829  2.1321  3.4811
  104OSM   C16S10603   1.334   2.534   8.613 -0.0364 -0.0747 -0.1373
  104OSM   H16S10604   1.249   2.463   8.604 -1.9160  1.8665  1.3243
  104OSM   H16T10605   1.428   2.474   8.612 -0.9144 -1.6880 -4.0898
  104OSM   C17S10606   1.332   2.620   8.483  0.1822  0.3202 -0.8035
  104OSM   H17S10607   1.419   2.688   8.470 -0.7796  1.1185 -4.0487
  104OSM   H17T10608   1.246   2.690   8.495  0.1977  0.1566  0.3648
  104OSM   C18S10609   1.314   2.539   8.355  0.1436 -0.1932 -0.0682
  104OSM   H18S10610   1.413   2.502   8.320 -0.2859 -0.0920 -1.4302
  104OSM   H18T10611   1.256   2.593   8.277 -1.4286 -2.1356 -0.3090
  104OSM   H18U10612   1.255   2.449   8.381 -0.4231 -0.1798 -1.2321
  104OSM    C1F10613   1.424   2.628  10.166 -0.1108 -1.2398 -0.4924
  104OSM     OF10614   1.454   2.549  10.247  0.0413  0.3288 -0.1312
  104OSM    C2F10615   1.527   2.699  10.087 -1.0167 -0.1834  0.1658
  104OSM    H2F10616   1.628   2.660  10.111 -0.5465  0.7296 -0.2590
  104OSM    H2G10617   1.529   2.805  10.120 -1.1074  0.2658 -1.1956
  104OSM    C3F10618   1.495   2.684   9.934  0.8276 -0.2768 -0.1847
  104OSM    H3F10619   1.414   2.757   9.910  1.1650 -0.6945 -2.9947
  104OSM    H3G10620   1.443   2.587   9.912 -0.1363 -0.3283  2.0729
  104OSM    C4F10621   1.616   2.708   9.847 -0.2094  0.3410  0.4034
  104OSM    H4F10622   1.707   2.662   9.890  1.8196  2.7532 -0.9693
  104OSM    H4G10623   1.639   2.815   9.868  2.1646 -0.6472  3.4864
  104OSM    C5F10624   1.595   2.679   9.700 -0.8280  0.6897  0.2759
  104OSM    H5F10625   1.582   2.568   9.697 -0.9209  0.6514  1.5288
  104OSM    H5G10626   1.698   2.700   9.662 -0.5484 -0.3985  0.3904
  104OSM    C6F10627   1.489   2.759   9.626  0.2770  0.3261  0.2932
  104OSM    H6F10628   1.513   2.867   9.621 -1.1671  0.6510 -0.0800
  104OSM    H6G10629   1.394   2.766   9.685 -0.8100  2.8796 -1.6003
  104OSM    C7F10630   1.460   2.712   9.480  0.3342  0.2358  0.2101
  104OSM    H7F10631   1.373   2.770   9.443  0.5703  1.0479  0.8872
  104OSM    H7G10632   1.436   2.604   9.483 -2.3919  0.7193 -0.5966
  104OSM    C8F10633   1.577   2.744   9.384  0.4636  0.2500  0.1317
  104OSM    H8F10634   1.668   2.722   9.442  0.5372  0.8874  0.2694
  104OSM    H8G10635   1.567   2.850   9.352 -1.6167 -0.4533 -1.8297
  104OSM    C9F10636   1.574   2.665   9.255  0.1423  0.3326 -0.3842
  104OSM    H9F10637   1.503   2.710   9.185 -3.2010  0.1047  2.5702
  104OSM   C10F10638   1.643   2.556   9.221 -0.1728 -0.2188 -0.2951
  104OSM   H10F10639   1.605   2.515   9.126 -1.6458  0.1487  0.1085
  104OSM   C11F10640   1.745   2.474   9.298  0.3097 -0.5509  0.0513
  104OSM   H11F10641   1.685   2.387   9.332 -1.2844  0.5867  0.2438
  104OSM   H11G10642   1.781   2.528   9.388 -3.7029 -0.4693  1.8440
  104OSM   C12F10643   1.855   2.406   9.208  0.5762  1.0469 -0.6456
  104OSM   H12F10644   1.805   2.367   9.117  2.6240 -4.0029  0.0844
  104OSM   H12G10645   1.905   2.322   9.259 -1.3421 -0.0088 -0.4056
  104OSM   C13F10646   1.966   2.505   9.175  0.8212 -0.2157  0.3521
  104OSM   H13F10647   2.000   2.546   9.272 -0.9449  0.3248  0.7677
  104OSM   H13G10648   1.927   2.582   9.105 -0.1013 -1.4525 -0.5333
  104OSM   C14F10649   2.088   2.442   9.107 -0.4805  0.0989  0.3951
  104OSM   H14F10650   2.135   2.376   9.184 -1.9907  0.1494  1.4061
  104OSM   H14G10651   2.152   2.528   9.079  2.3565 -2.0187 -0.1364
  104OSM   C15F10652   2.062   2.353   8.983  0.7081  0.1883 -0.0901
  104OSM   H15F10653   2.011   2.257   9.010  2.5586 -0.9637 -0.5284
  104OSM   H15G10654   2.165   2.329   8.949 -0.5051 -1.5509 -2.9227
  104OSM   C16F10655   1.984   2.427   8.878  0.3124  0.1029  0.7782
  104OSM   H16F10656   2.045   2.514   8.847  0.0500  0.2579  0.6955
  104OSM   H16G10657   1.891   2.470   8.922  1.7273  1.1221  2.9299
  104OSM   C17F10658   1.962   2.340   8.758  0.5934 -0.2770  0.1547
  104OSM   H17F10659   1.944   2.237   8.795 -0.8890  0.3221  1.1636
  104OSM   H17G10660   2.051   2.327   8.692  1.1915  0.7673  0.7203
  104OSM   C18F10661   1.842   2.382   8.683 -0.0014  0.1211  0.3384
  104OSM   H18F10662   1.816   2.310   8.602  1.1664 -0.3477  0.3722
  104OSM   H18G10663   1.862   2.482   8.637 -1.0751  0.7746  1.2304
  104OSM   H18H10664   1.750   2.388   8.745 -0.6148 -0.0036 -0.5356
  105OSM      N10665   0.057   2.361  10.664 -0.1776  0.3874 -0.0162
  105OSM    C1510666   0.107   2.368  10.804  0.1669  0.6847  0.4305
  105OSM   H15A10667   0.043   2.314  10.872  1.4446  0.3154  1.3868
  105OSM   H15B10668   0.126   2.470  10.834  1.1496 -0.1871  3.0433
  105OSM   H15C10669   0.203   2.319  10.816 -0.0855  0.5258  2.0150
  105OSM    C1410670   0.061   2.215  10.625 -0.0106  0.6589  0.3124
  105OSM   H14A10671   0.014   2.200  10.529 -0.6112 -1.5065  0.8896
  105OSM   H14B10672   0.011   2.149  10.694 -0.1838 -0.3413 -0.7479
  105OSM   H14C10673   0.166   2.191  10.615 -0.5933 -2.8987  1.3474
  105OSM    C1310674  -0.089   2.408  10.661 -0.1197 -0.2807 -0.8581
  105OSM   H13A10675  -0.140   2.394  10.567 -1.2890 -1.1090 -0.1339
  105OSM   H13B10676  -0.090   2.516  10.661  0.5139 -0.2678 -1.9125
  105OSM   H13C10677  -0.150   2.364  10.739 -1.2673  1.4560 -0.7247
  105OSM    C1210678   0.143   2.445  10.566 -0.1271  0.5538 -0.5792
  105OSM   H12A10679   0.139   2.543  10.611 -1.3073  0.4712 -0.4648
  105OSM   H12B10680   0.101   2.439  10.467  0.9378  2.0747 -1.1466
  105OSM    C1110681   0.291   2.399  10.556 -0.0959 -0.3764  0.6069
  105OSM   H11A10682   0.343   2.466  10.485  1.8712 -0.9357  1.4650
  105OSM   H11B10683   0.300   2.299  10.509  0.2581 -1.0437  2.0320
  105OSM      P10684   0.429   2.556  10.718  0.1253 -0.3074 -0.0287
  105OSM    O1310685   0.330   2.648  10.783  0.3569  0.4107  0.4518
  105OSM    O1410686   0.555   2.533  10.794 -0.1427 -0.7188  0.2246
  105OSM    O1110687   0.469   2.622  10.576  0.1565  0.5815 -0.0980
  105OSM    O1210688   0.359   2.420  10.679 -0.1166  0.5857  0.1567
  105OSM    C1S10689   0.569   2.554  10.505 -0.2129  0.3552  0.3646
  105OSM    H1S10690   0.562   2.443  10.514 -2.8545  0.2801 -1.6213
  105OSM    H1T10691   0.668   2.577  10.549 -0.5123 -0.9022  1.7697
  105OSM     NF10692   0.667   2.527  10.285 -0.7157 -0.3430 -0.1019
  105OSM    HNF10693   0.752   2.573  10.261  0.4947 -3.2831 -1.9463
  105OSM    C2S10694   0.569   2.601  10.362  0.2326  0.0942 -0.1793
  105OSM    H2S10695   0.467   2.590  10.318 -0.1053  2.4975 -0.1341
  105OSM    C3S10696   0.590   2.757  10.361  0.1905  0.3068 -0.4926
  105OSM    H3S10697   0.673   2.779  10.431  0.5240  0.8989 -1.0638
  105OSM     O310698   0.472   2.820  10.419  0.2195  0.4627  0.0960
  105OSM    HO310699   0.442   2.751  10.480  2.5606 -0.0846  0.7215
  105OSM    C4S10700   0.622   2.806  10.222 -0.1940 -0.6350 -0.7922
  105OSM    H4S10701   0.729   2.815  10.200 -0.0589 -1.1260 -0.3471
  105OSM    C5S10702   0.534   2.863  10.133 -0.2983 -0.5818 -0.1079
  105OSM    H5S10703   0.429   2.883  10.158 -0.0194 -0.0881  0.7029
  105OSM    C6S10704   0.580   2.918   9.995 -0.0121  1.2696  0.9026
  105OSM    H6S10705   0.608   3.021  10.026 -0.3497  1.5024  0.4451
  105OSM    H6T10706   0.496   2.920   9.922 -0.7264 -2.4688  1.4392
  105OSM    C7S10707   0.706   2.845   9.944 -0.1403  0.6868  0.3407
  105OSM    H7S10708   0.679   2.737   9.942 -0.1439  0.6933 -0.0095
  105OSM    H7T10709   0.789   2.861  10.016 -0.3028 -1.1452  0.9875
  105OSM    C8S10710   0.756   2.895   9.810 -0.4809  0.0135  0.2920
  105OSM    H8S10711   0.857   2.853   9.792  0.5940  2.6810 -0.2135
  105OSM    H8T10712   0.773   3.004   9.814 -0.3080  0.1163 -1.7951
  105OSM    C9S10713   0.666   2.847   9.692  0.3064 -0.4438 -0.7745
  105OSM    H9S10714   0.566   2.893   9.703  0.4151 -0.3600 -0.0632
  105OSM    H9T10715   0.653   2.737   9.691  2.3517 -0.7243 -0.2734
  105OSM   C10S10716   0.729   2.889   9.560  0.0150  1.0334 -0.1462
  105OSM   H10S10717   0.664   2.854   9.478 -1.7619  1.1578  1.1600
  105OSM   H10T10718   0.824   2.831   9.563 -1.8780 -2.4161 -1.6820
  105OSM   C11S10719   0.767   3.033   9.537  0.5241 -0.4961 -0.3687
  105OSM   H11S10720   0.826   3.081   9.617 -0.5499  2.9530 -1.4790
  105OSM   H11T10721   0.672   3.091   9.534  0.5965 -0.3583 -0.0424
  105OSM   C12S10722   0.830   3.048   9.396 -0.5036  0.7653 -0.5032
  105OSM   H12S10723   0.869   3.152   9.392  1.7093  0.0123  0.0811
  105OSM   H12T10724   0.756   3.025   9.317  0.9970 -2.7175 -1.0805
  105OSM   C13S10725   0.954   2.953   9.368  0.7145 -0.5262 -0.1297
  105OSM   H13S10726   0.931   2.845   9.372  0.0948 -0.3809  0.4110
  105OSM   H13T10727   1.021   2.973   9.455 -0.7610  0.0609  0.9292
  105OSM   C14S10728   1.039   2.990   9.253  0.6392  0.0852 -0.7149
  105OSM   H14S10729   1.125   2.920   9.263 -1.4311 -2.8776 -2.1615
  105OSM   H14T10730   1.080   3.090   9.278 -1.7225  0.8777  0.2607
  105OSM   C15S10731   0.978   2.976   9.120 -0.1139  0.1261 -0.3262
  105OSM   H15S10732   0.880   3.029   9.128 -0.4503 -0.4922 -0.3140
  105OSM   H15T10733   0.951   2.869   9.110  1.0513 -0.1605 -0.5891
  105OSM   C16S10734   1.062   3.041   9.005 -0.8863  0.3116  0.5252
  105OSM   H16S10735   1.170   3.013   9.008 -1.0031 -0.0545  2.2842
  105OSM   H16T10736   1.056   3.148   9.033 -1.9625  0.7652 -1.3024
  105OSM   C17S10737   0.996   3.043   8.867 -0.3076  0.3209  0.3190
  105OSM   H17S10738   1.054   3.117   8.808  2.6148 -1.8159  0.2880
  105OSM   H17T10739   0.892   3.081   8.872 -0.2914  0.7908 -1.7645
  105OSM   C18S10740   1.012   2.908   8.786  0.3341  0.6197  0.2163
  105OSM   H18S10741   0.994   2.934   8.679 -0.5212  4.6217  1.1883
  105OSM   H18T10742   0.944   2.836   8.835  1.5535  0.3194  1.5572
  105OSM   H18U10743   1.115   2.866   8.795 -0.4412 -1.3634  0.2613
  105OSM    C1F10744   0.645   2.400  10.243  0.0791  0.2166  0.0463
  105OSM     OF10745   0.573   2.324  10.307  0.0948 -0.2760  0.1843
  105OSM    C2F10746   0.715   2.360  10.116 -0.1154 -0.7541 -0.5345
  105OSM    H2F10747   0.759   2.446  10.062 -1.6481 -1.6210 -3.3802
  105OSM    H2G10748   0.634   2.336  10.045 -1.2391  0.2364  0.3849
  105OSM    C3F10749   0.826   2.251  10.136  0.1709  0.0169 -0.9127
  105OSM    H3F10750   0.798   2.181  10.218  1.1767 -0.3519 -0.8663
  105OSM    H3G10751   0.923   2.293  10.172  0.2776  0.3196 -1.5345
  105OSM    C4F10752   0.850   2.174  10.007  0.0752  0.2555 -0.0958
  105OSM    H4F10753   0.905   2.242   9.938  0.3058  0.7920  0.6056
  105OSM    H4G10754   0.753   2.146   9.961  0.4793 -3.7748  1.1354
  105OSM    C5F10755   0.933   2.049  10.024  0.3866  0.0897 -0.7746
  105OSM    H5F10756   0.878   1.988  10.099  0.7145 -0.9163 -1.3286
  105OSM    H5G10757   1.026   2.069  10.082  1.8321 -1.5526 -2.3844
  105OSM    C6F10758   0.961   1.958   9.903  0.6157 -0.2635 -0.2322
  105OSM    H6F10759   0.861   1.937   9.858  0.2623  2.0090 -0.6215
  105OSM    H6G10760   0.993   1.861   9.946  0.3042 -0.5619 -0.6626
  105OSM    C7F10761   1.052   2.009   9.800  0.1852  0.2950 -0.1388
  105OSM    H7F10762   1.115   1.930   9.753 -0.4618 -0.1749 -0.2233
  105OSM    H7G10763   1.124   2.080   9.847  1.9065 -1.1812 -0.4057
  105OSM    C8F10764   0.993   2.083   9.675 -1.0394 -0.4380 -0.1943
  105OSM    H8F10765   1.067   2.136   9.612 -0.3999 -0.3947  0.5794
  105OSM    H8G10766   0.920   2.158   9.712  0.3235 -0.1637  2.1685
  105OSM    C9F10767   0.916   1.986   9.591 -0.4817 -0.2941  0.8239
  105OSM    H9F10768   0.922   1.881   9.624 -0.9171 -0.8610 -0.7881
  105OSM   C10F10769   0.861   2.009   9.472 -0.2489 -0.1942  0.3038
  105OSM   H10F10770   0.837   1.923   9.408  3.5566 -1.5356  0.3965
  105OSM   C11F10771   0.856   2.142   9.400 -0.1106 -0.7282  0.4004
  105OSM   H11F10772   0.865   2.229   9.468  0.0378 -0.2233 -0.2550
  105OSM   H11G10773   0.762   2.154   9.343 -1.6790  0.6971  3.0771
  105OSM   C12F10774   0.970   2.144   9.293 -0.0329  0.6648  0.0691
  105OSM   H12F10775   1.063   2.121   9.349  2.6480  2.6527 -3.1814
  105OSM   H12G10776   0.960   2.243   9.244 -1.1617  0.6536  0.2325
  105OSM   C13F10777   0.960   2.041   9.177  0.2926  0.0141 -0.1526
  105OSM   H13F10778   0.869   2.046   9.114  0.4852 -0.3912 -0.4680
  105OSM   H13G10779   0.972   1.937   9.214  1.1900 -0.6402 -2.1064
  105OSM   C14F10780   1.077   2.059   9.080  0.3823  0.9783  0.0677
  105OSM   H14F10781   1.097   1.970   9.017  0.7627  1.3185 -0.2992
  105OSM   H14G10782   1.165   2.082   9.143 -0.7656  0.6330  1.8939
  105OSM   C15F10783   1.040   2.168   8.973  0.2094 -0.2837  0.0648
  105OSM   H15F10784   1.048   2.260   9.034  2.1733  0.1675 -0.7959
  105OSM   H15G10785   0.939   2.145   8.932 -0.3498  0.3928  1.0047
  105OSM   C16F10786   1.136   2.170   8.852  0.0788 -0.4534  0.2968
  105OSM   H16F10787   1.124   2.261   8.790 -1.2314 -2.0024 -1.8961
  105OSM   H16G10788   1.110   2.086   8.783 -0.2226  0.3148 -0.5515
  105OSM   C17F10789   1.284   2.165   8.869  0.4826  0.1680  0.1080
  105OSM   H17F10790   1.325   2.074   8.918  1.1396 -0.2531 -1.1762
  105OSM   H17G10791   1.303   2.246   8.942 -0.4720  1.2302 -0.7732
  105OSM   C18F10792   1.368   2.174   8.737 -0.0275 -0.6104 -0.5457
  105OSM   H18F10793   1.339   2.083   8.681 -0.6021 -1.7185  1.4543
  105OSM   H18G10794   1.476   2.176   8.765  0.2205 -0.0315 -1.4924
  105OSM   H18H10795   1.347   2.272   8.690  2.9830  0.1553 -0.4896
  106OSM      N10796   2.892   0.504  10.739 -0.0518 -0.7599 -0.4013
  106OSM    C1510797   3.024   0.539  10.794 -0.1255 -0.1211 -0.3172
  106OSM   H15A10798   3.057   0.447  10.839  0.7248  0.8947  1.2227
  106OSM   H15B10799   3.024   0.624  10.860 -1.7160  0.9249 -1.5845
  106OSM   H15C10800   3.095   0.549  10.713  0.9372  2.4360  0.8072
  106OSM    C1410801   2.820   0.456  10.862  0.4758 -0.3043 -0.6678
  106OSM   H14A10802   2.862   0.365  10.902  0.9572 -0.0482 -0.5735
  106OSM   H14B10803   2.722   0.422  10.836  0.8489 -1.4406 -0.6334
  106OSM   H14C10804   2.804   0.529  10.941 -0.9477 -1.5613  0.2463
  106OSM    C1310805   2.822   0.630  10.687 -0.0274  0.2227  0.2005
  106OSM   H13A10806   2.717   0.615  10.668  0.1416  1.5045 -2.0524
  106OSM   H13B10807   2.877   0.651  10.596  1.7006 -0.9859  0.9048
  106OSM   H13C10808   2.843   0.720  10.744  1.7894 -0.4473  0.6474
  106OSM    C1210809   2.906   0.397  10.643 -0.0162 -0.2678 -0.8013
  106OSM   H12A10810   2.806   0.364  10.617 -0.4017 -2.2210  2.5365
  106OSM   H12B10811   2.949   0.316  10.699 -2.7270 -0.7072  0.8266
  106OSM    C1110812   2.992   0.425  10.519  0.2399 -0.0652 -0.4156
  106OSM   H11A10813   2.967   0.528  10.487 -0.8898 -0.4035 -0.6700
  106OSM   H11B10814   2.959   0.351  10.443 -1.9605  0.8373 -0.4314
  106OSM      P10815   3.205   0.269  10.568 -0.8503  0.1329 -0.5972
  106OSM    O1310816   3.344   0.295  10.614  0.6717  0.1482 -0.3082
  106OSM    O1410817   3.124   0.178  10.658 -0.4791 -0.2254  0.7359
  106OSM    O1110818   3.206   0.203  10.422  0.5856  0.1582 -0.4387
  106OSM    O1210819   3.128   0.409  10.556 -0.1568  0.1313 -0.7004
  106OSM    C1S10820   3.230   0.279  10.307  0.4612  0.3832 -0.5735
  106OSM    H1S10821   3.340   0.293  10.298  0.6096  1.6514  2.0267
  106OSM    H1T10822   3.176   0.377  10.303  0.4988  0.3927 -0.8857
  106OSM     NF10823   3.205   0.265  10.060  0.6596 -0.8073  0.2636
  106OSM    HNF10824   3.122   0.271  10.005  0.1764  0.4925  1.0994
  106OSM    C2S10825   3.186   0.195  10.180 -0.1991  0.3131 -0.5063
  106OSM    H2S10826   3.244   0.100  10.174  2.1741  1.6390 -0.0917
  106OSM    C3S10827   3.030   0.157  10.209 -0.5281  0.1479  0.0360
  106OSM    H3S10828   2.976   0.254  10.220 -0.0409  0.2793  1.4753
  106OSM     O310829   2.996   0.079  10.328 -0.3018  0.1455  0.0363
  106OSM    HO310830   3.079   0.073  10.378 -0.4387 -2.7236  0.0878
  106OSM    C4S10831   2.968   0.085  10.089 -0.3406 -0.3704  0.6144
  106OSM    H4S10832   3.005  -0.017  10.070 -0.4638 -0.2127 -0.5682
  106OSM    C5S10833   2.866   0.137  10.020  0.0685 -0.2664  0.0164
  106OSM    H5S10834   2.802   0.221  10.051 -2.0532 -2.3548  1.7326
  106OSM    C6S10835   2.804   0.066   9.900  0.0465 -0.7707 -0.3095
  106OSM    H6S10836   2.698   0.065   9.934  0.5340  2.1201  1.7880
  106OSM    H6T10837   2.842  -0.034   9.871  0.1555 -0.4993 -1.1194
  106OSM    C7S10838   2.811   0.147   9.772 -0.6531 -0.3844 -0.2231
  106OSM    H7S10839   2.918   0.152   9.743  0.0524 -3.4574  1.4587
  106OSM    H7T10840   2.772   0.250   9.784  0.5685  0.0369  0.3003
  106OSM    C8S10841   2.735   0.072   9.662  0.3925  0.3905  0.1155
  106OSM    H8S10842   2.629   0.052   9.686  0.0471 -0.8343 -2.1645
  106OSM    H8T10843   2.790  -0.024   9.654  1.1142  0.7577  0.5494
  106OSM    C9S10844   2.728   0.147   9.529 -0.1469  0.2721  0.0930
  106OSM    H9S10845   2.833   0.166   9.498 -0.7183  0.8150 -1.6267
  106OSM    H9T10846   2.689   0.248   9.552  0.9498  0.7475 -0.0302
  106OSM   C10S10847   2.660   0.075   9.412  0.3779  0.4185 -0.0679
  106OSM   H10S10848   2.550   0.084   9.428  0.1484 -0.2933 -1.0930
  106OSM   H10T10849   2.680  -0.034   9.412 -1.5800  0.0179 -0.5467
  106OSM   C11S10850   2.693   0.135   9.279  0.0874 -0.3794  0.0535
  106OSM   H11S10851   2.639   0.064   9.212 -1.2052  0.2283  0.4297
  106OSM   H11T10852   2.803   0.135   9.263  0.2967 -2.1203  1.2035
  106OSM   C12S10853   2.643   0.281   9.249  0.3841  0.1333 -0.2753
  106OSM   H12S10854   2.717   0.342   9.305  0.8958  0.1967 -0.9960
  106OSM   H12T10855   2.546   0.286   9.302  1.2670 -0.4795  1.4676
  106OSM   C13S10856   2.624   0.316   9.106  0.3450  0.5303 -0.4545
  106OSM   H13S10857   2.611   0.425   9.091 -0.1538  0.5739  0.2693
  106OSM   H13T10858   2.532   0.265   9.068  0.7329  0.0912 -0.8254
  106OSM   C14S10859   2.738   0.269   9.016  0.2657  0.6435  0.2735
  106OSM   H14S10860   2.728   0.158   9.012 -0.9285  0.7231  0.6723
  106OSM   H14T10861   2.840   0.303   9.041  0.1082  0.5693  1.0394
  106OSM   C15S10862   2.709   0.320   8.878 -0.2041  0.3213 -0.0024
  106OSM   H15S10863   2.688   0.429   8.877 -1.8658  0.1617 -4.4702
  106OSM   H15T10864   2.615   0.274   8.843 -0.8944 -0.6419  2.8671
  106OSM   C16S10865   2.807   0.287   8.766  0.0181 -0.6767 -0.3730
  106OSM   H16S10866   2.816   0.176   8.761 -0.3762 -0.6794 -1.2795
  106OSM   H16T10867   2.909   0.328   8.785 -0.9824  2.6374 -1.5199
  106OSM   C17S10868   2.778   0.344   8.622  0.1448 -0.2522 -1.0298
  106OSM   H17S10869   2.776   0.455   8.623 -1.1171 -0.2582 -0.3298
  106OSM   H17T10870   2.674   0.320   8.593 -0.4219  0.3866  0.3848
  106OSM   C18S10871   2.885   0.300   8.525 -0.3587 -0.0135 -0.2789
  106OSM   H18S10872   2.929   0.201   8.549 -0.6157  0.1851  1.0757
  106OSM   H18T10873   2.973   0.366   8.541 -0.1639 -0.1052 -0.9429
  106OSM   H18U10874   2.866   0.319   8.417  0.2864  3.4968  0.1068
  106OSM    C1F10875   3.327   0.305  10.013 -0.3111  0.5312  0.4935
  106OSM     OF10876   3.425   0.261  10.075 -0.1730  0.1532  1.1043
  106OSM    C2F10877   3.329   0.386   9.878  0.3835  0.0327 -0.0723
  106OSM    H2F10878   3.227   0.419   9.850  0.9072  0.5423 -1.4837
  106OSM    H2G10879   3.361   0.308   9.805  1.2548 -0.0608  0.3951
  106OSM    C3F10880   3.435   0.497   9.861 -0.0877 -0.3283  0.1345
  106OSM    H3F10881   3.532   0.448   9.882 -0.0692 -0.1931  0.3674
  106OSM    H3G10882   3.435   0.582   9.932 -1.4006  0.0390 -0.2782
  106OSM    C4F10883   3.421   0.542   9.719  0.2125 -0.3867 -0.1835
  106OSM    H4F10884   3.330   0.603   9.702  0.7772  0.4190 -0.3594
  106OSM    H4G10885   3.413   0.452   9.653 -1.0810 -0.0667 -0.4974
  106OSM    C5F10886   3.523   0.632   9.650 -0.1704  0.7741 -0.4262
  106OSM    H5F10887   3.615   0.570   9.653 -2.6082 -3.2115  1.6121
  106OSM    H5G10888   3.544   0.727   9.702  0.7398 -0.1362  0.9353
  106OSM    C6F10889   3.504   0.655   9.501 -0.2100  0.0673  0.1413
  106OSM    H6F10890   3.584   0.729   9.478 -0.7332  0.7143  0.3924
  106OSM    H6G10891   3.410   0.709   9.477  0.4175  0.9274 -0.4278
  106OSM    C7F10892   3.526   0.526   9.418  0.3690 -0.4530 -0.7819
  106OSM    H7F10893   3.434   0.464   9.419  1.8017 -2.8191  2.6252
  106OSM    H7G10894   3.602   0.458   9.461 -1.3029 -2.7721 -1.3252
  106OSM    C8F10895   3.567   0.547   9.274 -0.3622 -0.0228  0.6151
  106OSM    H8F10896   3.502   0.624   9.228  0.5531  1.0783  1.1230
  106OSM    H8G10897   3.541   0.452   9.223 -0.8943 -0.7853  2.2325
  106OSM    C9F10898   3.710   0.593   9.255  0.1740 -0.5557  0.0513
  106OSM    H9F10899   3.739   0.667   9.332 -0.9637  0.1965 -0.2208
  106OSM   C10F10900   3.799   0.556   9.166  0.1076  0.0902 -0.7044
  106OSM   H10F10901   3.898   0.601   9.155 -0.7346  2.2538  0.1247
  106OSM   C11F10902   3.764   0.451   9.060 -0.4785  0.1900  0.0745
  106OSM   H11F10903   3.658   0.426   9.040 -0.0265 -0.6088 -1.4473
  106OSM   H11G10904   3.798   0.350   9.092 -0.4918 -0.0140 -0.5580
  106OSM   C12F10905   3.825   0.500   8.928  0.0756  0.1829 -0.5417
  106OSM   H12F10906   3.805   0.412   8.863  1.1872 -0.5039  0.0212
  106OSM   H12G10907   3.936   0.513   8.928 -0.2410  4.1244 -1.0584
  106OSM   C13F10908   3.763   0.635   8.873  0.3828 -0.9774 -0.1296
  106OSM   H13F10909   3.806   0.657   8.774  0.8824  1.0169  0.4670
  106OSM   H13G10910   3.780   0.718   8.945 -1.2593 -0.8740  0.1989
  106OSM   C14F10911   3.607   0.633   8.846 -0.1405 -0.2279 -0.5550
  106OSM   H14F10912   3.570   0.584   8.938  1.2832  0.7770  0.5892
  106OSM   H14G10913   3.567   0.574   8.760  0.3285  0.1999 -1.0753
  106OSM   C15F10914   3.552   0.777   8.836  0.3983  1.1152  0.1084
  106OSM   H15F10915   3.588   0.824   8.743  2.2027 -0.6064 -0.1421
  106OSM   H15G10916   3.593   0.832   8.923  1.8379  0.3768 -0.0692
  106OSM   C16F10917   3.395   0.779   8.859 -0.4265 -0.1303 -0.4360
  106OSM   H16F10918   3.356   0.883   8.866  1.1034  0.3557  1.5278
  106OSM   H16G10919   3.393   0.731   8.959 -0.4538  0.3146 -0.2160
  106OSM   C17F10920   3.306   0.702   8.758 -0.1317  0.5518  0.0711
  106OSM   H17F10921   3.333   0.597   8.735  0.0812  1.1555 -2.7774
  106OSM   H17G10922   3.317   0.751   8.659  2.3110 -1.3553 -0.7113
  106OSM   C18F10923   3.166   0.703   8.804  0.3253  0.9275  0.1429
  106OSM   H18F10924   3.127   0.807   8.792 -1.7981  0.1441 -0.1285
  106OSM   H18G10925   3.152   0.662   8.906 -1.1237  0.5503 -0.1848
  106OSM   H18H10926   3.098   0.639   8.744  0.9458  0.3174  0.0807
  107OSM      N10927   4.012   4.090  11.071  0.2856 -0.1666 -0.0886
  107OSM    C1510928   4.066   4.171  10.962  0.5619 -0.6891  0.6111
  107OSM   H15A10929   4.162   4.137  10.927 -0.1394 -2.7667  0.5773
  107OSM   H15B10930   4.074   4.274  10.991 -2.1585 -0.0901 -0.4282
  107OSM   H15C10931   3.996   4.167  10.880  0.8573 -2.1055  0.4051
  107OSM    C1410932   4.096   4.120  11.194  1.0238 -0.9096 -0.2701
  107OSM   H14A10933   4.095   4.227  11.210 -1.1920 -1.3037  3.1921
  107OSM   H14B10934   4.197   4.083  11.183  0.9142 -1.2551 -0.1181
  107OSM   H14C10935   4.062   4.073  11.284  1.0059  0.2343  0.3391
  107OSM    C1310936   3.876   4.137  11.100  0.0488  0.5333 -0.4203
  107OSM   H13A10937   3.819   4.068  11.160 -0.2696  1.2741  0.1512
  107OSM   H13B10938   3.827   4.137  11.004  2.2268 -3.6818 -1.8144
  107OSM   H13C10939   3.876   4.230  11.155  0.5981  1.3417 -1.7431
  107OSM    C1210940   4.013   3.932  11.045 -0.4022  0.2533 -0.1867
  107OSM   H12A10941   3.968   3.886  11.132  1.6489  0.0473  0.8295
  107OSM   H12B10942   4.118   3.910  11.036  0.0879  2.4591 -0.5821
  107OSM    C1110943   3.944   3.877  10.920  0.0412  0.2061  0.3280
  107OSM   H11A10944   4.005   3.792  10.884 -1.0322 -0.0673 -0.9274
  107OSM   H11B10945   3.945   3.947  10.834  1.0447 -1.6314 -1.2373
  107OSM      P10946   3.763   3.696  10.883 -0.0377 -0.1723 -0.1996
  107OSM    O1310947   3.843   3.594  10.954  0.4402  0.1931  0.1277
  107OSM    O1410948   3.616   3.693  10.885 -0.5411 -0.0113  0.0214
  107OSM    O1110949   3.813   3.701  10.735 -0.6897  0.0639  0.6959
  107OSM    O1210950   3.810   3.829  10.944 -0.5439  0.3296  0.5713
  107OSM    C1S10951   3.766   3.813  10.648 -0.6025 -0.0448 -0.0465
  107OSM    H1S10952   3.815   3.908  10.678 -0.6116  0.1569 -0.6599
  107OSM    H1T10953   3.656   3.827  10.660 -0.1913  2.6563  1.5456
  107OSM     NF10954   3.716   3.867  10.418  0.3156  0.2751  0.3085
  107OSM    HNF10955   3.642   3.819  10.370 -0.5463 -0.4134  2.2383
  107OSM    C2S10956   3.801   3.788  10.501 -0.3998  0.4624  0.1184
  107OSM    H2S10957   3.906   3.817  10.481 -0.7179  0.9986 -0.7987
  107OSM    C3S10958   3.780   3.639  10.466 -0.7401 -0.6879 -0.2557
  107OSM    H3S10959   3.677   3.615  10.499 -0.9791 -0.7851 -1.0742
  107OSM     O310960   3.866   3.553  10.538 -0.1615  0.2199  0.5240
  107OSM    HO310961   3.872   3.607  10.617 -0.5793  1.3685 -0.1948
  107OSM    C4S10962   3.794   3.618  10.320  0.2170 -0.9412 -0.4693
  107OSM    H4S10963   3.886   3.666  10.282 -0.3334  0.6087  0.0658
  107OSM    C5S10964   3.705   3.564  10.240  0.5982  0.0099 -0.0649
  107OSM    H5S10965   3.611   3.528  10.284  0.7889 -0.5204 -0.0788
  107OSM    C6S10966   3.723   3.545  10.089  0.9226  0.1375 -0.1444
  107OSM    H6S10967   3.675   3.455  10.044  0.2955  1.1290 -1.5349
  107OSM    H6T10968   3.827   3.553  10.054  1.0492  2.9923  0.6395
  107OSM    C7S10969   3.655   3.665  10.008 -0.2198  0.7316 -0.1402
  107OSM    H7S10970   3.696   3.762  10.044  0.3811  0.4653 -0.0846
  107OSM    H7T10971   3.545   3.662  10.001 -0.1652 -1.4786 -1.0993
  107OSM    C8S10972   3.709   3.661   9.871  0.0165 -0.3193 -0.1451
  107OSM    H8S10973   3.679   3.563   9.827 -0.4541 -0.7078  1.0171
  107OSM    H8T10974   3.819   3.670   9.860  0.4666 -3.3332  0.9631
  107OSM    C9S10975   3.658   3.778   9.787  0.1816 -0.6732 -0.6857
  107OSM    H9S10976   3.696   3.868   9.841 -1.3836 -0.3631 -0.0549
  107OSM    H9T10977   3.548   3.775   9.798  0.3169 -2.5133  0.6897
  107OSM   C10S10978   3.695   3.774   9.635  0.2241 -0.2505 -0.0936
  107OSM   H10S10979   3.663   3.676   9.592 -0.6847 -1.2691  2.6624
  107OSM   H10T10980   3.805   3.775   9.621  0.2862  3.4869 -0.2724
  107OSM   C11S10981   3.628   3.887   9.554 -0.1066  0.5020 -0.4269
  107OSM   H11S10982   3.664   3.981   9.601 -3.6976  0.7797  2.1848
  107OSM   H11T10983   3.518   3.881   9.569 -0.2215 -0.1389 -1.4200
  107OSM   C12S10984   3.664   3.891   9.412 -0.0393 -0.5552  0.0435
  107OSM   H12S10985   3.626   3.807   9.350  0.8391 -2.0201  1.4245
  107OSM   H12T10986   3.775   3.878   9.414 -0.0208 -0.4038  0.0113
  107OSM   C13S10987   3.622   4.026   9.344 -1.0317 -0.3013  0.3450
  107OSM   H13S10988   3.640   4.115   9.408  0.9539 -0.0107 -0.5236
  107OSM   H13T10989   3.516   4.030   9.311 -1.1908  1.4524  0.9315
  107OSM   C14S10990   3.707   4.056   9.222  0.2090  0.4224  0.2068
  107OSM   H14S10991   3.661   4.000   9.138 -0.4981 -0.2072  0.9925
  107OSM   H14T10992   3.809   4.019   9.246  0.6411  1.6423  0.2907
  107OSM   C15S10993   3.711   4.205   9.182 -0.3496  0.1160  0.2761
  107OSM   H15S10994   3.754   4.260   9.269  2.3121 -0.5757 -0.5010
  107OSM   H15T10995   3.615   4.256   9.159  0.7185  1.1395 -2.2151
  107OSM   C16S10996   3.803   4.222   9.061  0.2336  0.1967  0.0784
  107OSM   H16S10997   3.751   4.168   8.980 -2.8153  2.6786  0.1773
  107OSM   H16T10998   3.904   4.176   9.073 -0.4041 -0.7119  2.4636
  107OSM   C17S10999   3.812   4.372   9.024 -0.1774  0.4430  0.4718
  107OSM   H17S11000   3.900   4.408   9.082 -1.7555  0.6021  2.9366
  107OSM   H17T11001   3.722   4.431   9.051 -0.4801  0.1338  0.1435
  107OSM   C18S11002   3.829   4.388   8.873 -0.5687 -0.0501 -0.3009
  107OSM   H18S11003   3.867   4.491   8.855 -2.2419  1.0563  1.9745
  107OSM   H18T11004   3.728   4.387   8.826 -0.1884  2.4881 -1.3085
  107OSM   H18U11005   3.892   4.307   8.831 -1.8768 -1.6795  0.7391
  107OSM    C1F11006   3.710   4.000  10.423  0.2931  0.7562 -0.0918
  107OSM     OF11007   3.796   4.055  10.484  0.0129 -0.5289  0.0891
  107OSM    C2F11008   3.594   4.073  10.350 -0.2483 -0.3416 -0.4625
  107OSM    H2F11009   3.516   4.105  10.423 -1.1385 -1.1542 -1.0426
  107OSM    H2G11010   3.551   4.001  10.277  0.3640 -0.5592 -0.6173
  107OSM    C3F11011   3.655   4.195  10.270  0.1365  0.1157  0.1744
  107OSM    H3F11012   3.743   4.157  10.214 -0.2604 -0.3272 -0.1600
  107OSM    H3G11013   3.690   4.283  10.328 -1.7308  0.3991  0.9361
  107OSM    C4F11014   3.548   4.244  10.168 -0.2747 -0.3691  0.6051
  107OSM    H4F11015   3.452   4.279  10.212 -1.5253 -1.5505 -1.0833
  107OSM    H4G11016   3.530   4.168  10.089  0.8638 -0.3291  0.2916
  107OSM    C5F11017   3.601   4.366  10.079 -0.6754  0.6841 -0.3620
  107OSM    H5F11018   3.712   4.373  10.071 -0.4990 -0.5241  0.6798
  107OSM    H5G11019   3.569   4.463  10.122  0.0142  0.5151  0.5687
  107OSM    C6F11020   3.544   4.362   9.939 -0.3426 -0.2356  0.0671
  107OSM    H6F11021   3.605   4.285   9.886  2.6307  1.6209  0.5566
  107OSM    H6G11022   3.568   4.458   9.889 -3.5434 -0.0216 -1.2974
  107OSM    C7F11023   3.391   4.349   9.925 -0.0223 -0.0090  0.4793
  107OSM    H7F11024   3.353   4.436   9.983 -4.7837 -0.0618 -2.0407
  107OSM    H7G11025   3.346   4.259   9.974 -0.0282 -0.0623  0.3770
  107OSM    C8F11026   3.346   4.367   9.783  0.1726  0.8264 -0.3122
  107OSM    H8F11027   3.391   4.457   9.734  0.4289  1.0707  0.3582
  107OSM    H8G11028   3.236   4.378   9.784 -0.1570 -1.6842 -1.4354
  107OSM    C9F11029   3.375   4.239   9.705  0.1517  0.1022 -0.3069
  107OSM    H9F11030   3.427   4.162   9.764 -1.3522 -0.8189 -0.1413
  107OSM   C10F11031   3.339   4.200   9.582  0.1282  0.8573 -0.0980
  107OSM   H10F11032   3.375   4.108   9.535 -0.3278 -0.1783  1.4936
  107OSM   C11F11033   3.259   4.289   9.485  0.1686  0.5908 -0.4565
  107OSM   H11F11034   3.262   4.394   9.520  1.9181  0.9388 -1.5287
  107OSM   H11G11035   3.150   4.267   9.474  0.1359 -0.6263  1.7162
  107OSM   C12F11036   3.317   4.275   9.339 -0.1950 -0.6954 -0.5831
  107OSM   H12F11037   3.286   4.176   9.300 -1.3407 -0.5824 -0.0042
  107OSM   H12G11038   3.427   4.273   9.324 -0.2156 -1.9188 -0.6978
  107OSM   C13F11039   3.265   4.389   9.256  0.2508  0.2248  0.0957
  107OSM   H13F11040   3.285   4.486   9.306  0.3864 -0.7030  1.9019
  107OSM   H13G11041   3.155   4.387   9.237  0.2655  3.8181 -1.2592
  107OSM   C14F11042   3.332   4.382   9.123  0.1547 -0.4092  0.7200
  107OSM   H14F11043   3.442   4.387   9.136 -0.0000  1.7633  1.6305
  107OSM   H14G11044   3.300   4.476   9.073  2.5918  1.9619  3.3005
  107OSM   C15F11045   3.294   4.257   9.035  0.6321  0.7090 -0.0152
  107OSM   H15F11046   3.184   4.264   9.027  0.3935 -1.1567  0.9735
  107OSM   H15G11047   3.327   4.157   9.070 -0.7957  0.1151 -0.2991
  107OSM   C16F11048   3.337   4.263   8.885  0.2156 -0.3916 -0.0602
  107OSM   H16F11049   3.443   4.233   8.868  0.1037 -0.6803 -0.2620
  107OSM   H16G11050   3.322   4.366   8.846  0.4190 -0.5363 -0.5324
  107OSM   C17F11051   3.248   4.180   8.794  0.1314  0.3777  0.3090
  107OSM   H17F11052   3.142   4.204   8.814  0.7122  0.7245  3.5040
  107OSM   H17G11053   3.255   4.071   8.813  0.1365  0.0664 -1.3160
  107OSM   C18F11054   3.273   4.203   8.646 -0.1559  0.0965  0.0646
  107OSM   H18F11055   3.203   4.134   8.595  1.0770 -2.0112  1.1137
  107OSM   H18G11056   3.376   4.185   8.608  0.2507  2.1248  0.0540
  107OSM   H18H11057   3.253   4.306   8.607 -1.1861  0.2108  0.8639
  108OSM      N11058   6.449   1.748  10.934  0.1359 -0.0498 -0.1229
  108OSM    C1511059   6.358   1.661  11.012 -0.0967  0.0591  0.3960
  108OSM   H15A11060   6.401   1.633  11.107  1.5245  0.2390 -0.2484
  108OSM   H15B11061   6.326   1.574  10.955 -1.3645  0.0191  1.1297
  108OSM   H15C11062   6.264   1.711  11.025 -1.1254 -1.9505  1.1132
  108OSM    C1411063   6.489   1.875  11.005  0.3413 -0.4870 -0.0384
  108OSM   H14A11064   6.406   1.939  11.030  0.7991  1.3216 -2.6246
  108OSM   H14B11065   6.541   1.940  10.935 -1.4116 -1.4201 -2.3602
  108OSM   H14C11066   6.547   1.863  11.095 -0.0465  2.8440  0.7885
  108OSM    C1311067   6.570   1.671  10.898 -0.1823 -0.0501 -0.3583
  108OSM   H13A11068   6.630   1.645  10.985 -1.3472  0.8278  0.7399
  108OSM   H13B11069   6.634   1.728  10.833  0.9014 -1.0630 -0.2190
  108OSM   H13C11070   6.546   1.579  10.847 -1.3487 -0.3104  0.6064
  108OSM    C1211071   6.377   1.776  10.799  0.6035 -0.5533  0.4928
  108OSM   H12A11072   6.273   1.784  10.828  1.0809 -1.7522  2.7135
  108OSM   H12B11073   6.378   1.688  10.735 -0.1608  0.3635 -0.8428
  108OSM    C1111074   6.426   1.898  10.716  0.1322 -0.2280  0.1418
  108OSM   H11A11075   6.382   1.883  10.615 -0.4051 -1.0646  0.4880
  108OSM   H11B11076   6.536   1.887  10.706  0.1218  0.6872 -1.2001
  108OSM      P11077   6.471   2.157  10.748  0.1224 -0.1983  0.0461
  108OSM    O1311078   6.406   2.278  10.800  0.7070 -0.0470 -0.0333
  108OSM    O1411079   6.611   2.128  10.792  0.6270  0.0217  0.1332
  108OSM    O1111080   6.471   2.167  10.595  0.4296 -0.0353  0.3712
  108OSM    O1211081   6.382   2.022  10.777  0.1533 -0.5748  0.4384
  108OSM    C1S11082   6.340   2.168  10.531 -0.7655  0.2538 -0.5860
  108OSM    H1S11083   6.278   2.250  10.572 -1.0421 -0.7696  1.1375
  108OSM    H1T11084   6.280   2.078  10.558  1.8209 -0.3727  4.1084
  108OSM     NF11085   6.230   2.215  10.322  0.0535  0.1122 -0.5837
  108OSM    HNF11086   6.182   2.130  10.304 -3.1058  1.0166  2.3149
  108OSM    C2S11087   6.360   2.199  10.381  0.1901  0.1779 -0.2281
  108OSM    H2S11088   6.419   2.293  10.381  0.5126  0.0795  2.8013
  108OSM    C3S11089   6.440   2.084  10.315  0.4620  0.0070  0.0686
  108OSM    H3S11090   6.377   1.994  10.334 -0.2949  0.5038 -0.0242
  108OSM     O311091   6.560   2.055  10.375 -0.2183 -0.4635  0.1794
  108OSM    HO311092   6.558   2.074  10.469  1.4101 -3.2639  0.9163
  108OSM    C4S11093   6.450   2.106  10.171  0.5730 -0.4374  1.0229
  108OSM    H4S11094   6.390   2.041  10.106  1.4294 -1.5314  1.2756
  108OSM    C5S11095   6.534   2.196  10.104 -0.9618  0.9105  0.4423
  108OSM    H5S11096   6.608   2.243  10.170 -0.7247 -0.3673  1.1283
  108OSM    C6S11097   6.548   2.225   9.958 -0.3298 -0.3689  0.2658
  108OSM    H6S11098   6.605   2.144   9.909 -0.7357  0.3281 -1.4204
  108OSM    H6T11099   6.607   2.319   9.954  1.1234 -0.8705  4.4538
  108OSM    C7S11100   6.409   2.251   9.896 -0.7395  0.6145 -0.6147
  108OSM    H7S11101   6.343   2.296   9.973 -0.9334 -0.5017 -0.1168
  108OSM    H7T11102   6.364   2.153   9.869 -0.3864 -0.3960  2.1528
  108OSM    C8S11103   6.414   2.338   9.775  0.7020  0.4039  0.0961
  108OSM    H8S11104   6.468   2.433   9.797  2.5884  0.2473 -3.1878
  108OSM    H8T11105   6.311   2.358   9.739  0.5434  0.2942  0.4849
  108OSM    C9S11106   6.484   2.278   9.659 -0.0726  0.6769  0.2345
  108OSM    H9S11107   6.455   2.171   9.656 -1.0373  0.9424 -0.5369
  108OSM    H9T11108   6.592   2.286   9.684 -0.2221 -0.9593  1.5933
  108OSM   C10S11109   6.456   2.338   9.519 -0.3531  1.0254  0.4982
  108OSM   H10S11110   6.470   2.448   9.528 -0.8748  0.9419  2.8364
  108OSM   H10T11111   6.352   2.307   9.497  0.5396 -3.9591  2.1468
  108OSM   C11S11112   6.542   2.266   9.409  0.0470 -0.5143  0.0791
  108OSM   H11S11113   6.525   2.159   9.431 -1.2285 -0.7249 -1.7003
  108OSM   H11T11114   6.648   2.300   9.415  0.0516 -0.5172  0.0098
  108OSM   C12S11115   6.491   2.292   9.272  0.6475  0.2835 -0.0731
  108OSM   H12S11116   6.510   2.398   9.242 -1.2135  0.4905 -0.6547
  108OSM   H12T11117   6.381   2.278   9.266  0.8945 -1.2719 -1.8465
  108OSM   C13S11118   6.549   2.192   9.168  0.0701 -0.4275  0.4662
  108OSM   H13S11119   6.493   2.097   9.178  1.1829 -1.1284  0.2315
  108OSM   H13T11120   6.654   2.168   9.194  0.7679  2.6391  0.8411
  108OSM   C14S11121   6.534   2.242   9.024 -0.0849 -0.3120 -0.3379
  108OSM   H14S11122   6.428   2.273   9.010 -0.2459 -1.4931 -2.1633
  108OSM   H14T11123   6.534   2.157   8.953  1.4683 -1.8362  1.3783
  108OSM   C15S11124   6.632   2.354   8.975 -0.4940 -0.7158  0.7035
  108OSM   H15S11125   6.648   2.428   9.056 -3.5868  0.8557  0.0120
  108OSM   H15T11126   6.590   2.414   8.891 -2.1483 -2.1269  0.4574
  108OSM   C16S11127   6.769   2.291   8.934  0.5501  0.0501 -0.5321
  108OSM   H16S11128   6.745   2.204   8.868  1.0751  0.8193 -1.7859
  108OSM   H16T11129   6.821   2.267   9.029 -1.7074 -1.0962  0.4901
  108OSM   C17S11130   6.857   2.382   8.846 -0.6249 -0.3900 -0.0198
  108OSM   H17S11131   6.860   2.487   8.883  4.0057 -0.2132 -0.3431
  108OSM   H17T11132   6.806   2.398   8.749 -1.2083  0.5349  0.4201
  108OSM   C18S11133   7.005   2.335   8.845 -0.5150  1.3517 -0.7062
  108OSM   H18S11134   7.018   2.237   8.793  0.7001  2.3031 -2.2707
  108OSM   H18T11135   7.042   2.317   8.948  1.0145 -0.5633 -1.5216
  108OSM   H18U11136   7.077   2.398   8.790  0.8068 -1.4984 -2.4897
  108OSM    C1F11137   6.163   2.329  10.302 -0.2644 -0.7024  0.5414
  108OSM     OF11138   6.211   2.431  10.348 -1.1310 -0.0219 -0.0493
  108OSM    C2F11139   6.033   2.323  10.227  0.1795 -0.3810  0.5799
  108OSM    H2F11140   5.951   2.304  10.299 -1.4564 -0.2732 -1.1999
  108OSM    H2G11141   6.048   2.235  10.162  1.2643  1.0188 -1.1824
  108OSM    C3F11142   6.016   2.448  10.141 -0.3236 -0.1073 -0.1497
  108OSM    H3F11143   6.108   2.474  10.085 -0.7594  2.0676  0.0403
  108OSM    H3G11144   6.007   2.536  10.209 -2.9815 -0.7935  0.4895
  108OSM    C4F11145   5.896   2.444  10.043 -0.5199  0.3780  0.3704
  108OSM    H4F11146   5.896   2.548  10.003  0.1329  1.6775  3.4631
  108OSM    H4G11147   5.809   2.430  10.110 -0.7346 -1.6345 -0.2678
  108OSM    C5F11148   5.896   2.335   9.937  0.0323  0.5283  0.2133
  108OSM    H5F11149   5.790   2.319   9.907  0.5143  1.2711 -2.1472
  108OSM    H5G11150   5.938   2.243   9.982  0.4512  0.7446  0.2676
  108OSM    C6F11151   5.977   2.369   9.816  0.2912 -0.4324  0.8566
  108OSM    H6F11152   6.077   2.320   9.814  1.0597  1.1121  0.2043
  108OSM    H6G11153   5.981   2.478   9.799  0.6661 -0.3499  1.4621
  108OSM    C7F11154   5.910   2.304   9.685 -0.6597 -0.1440 -0.2518
  108OSM    H7F11155   5.806   2.342   9.679 -0.0011  1.8071 -0.2335
  108OSM    H7G11156   5.907   2.194   9.699  0.1725 -0.2017 -0.4973
  108OSM    C8F11157   5.973   2.328   9.550 -0.1244 -0.4542 -0.5310
  108OSM    H8F11158   5.913   2.275   9.474 -0.5538 -1.3777  0.4252
  108OSM    H8G11159   6.072   2.280   9.538  0.5555  0.9042 -0.5628
  108OSM    C9F11160   5.980   2.473   9.502  0.0072 -0.5747 -0.6967
  108OSM    H9F11161   5.938   2.535   9.583  0.4641 -0.7530 -0.3200
  108OSM   C10F11162   6.029   2.524   9.393 -0.3651  0.5224  0.1406
  108OSM   H10F11163   6.045   2.630   9.369  1.2286  0.4558  0.7481
  108OSM   C11F11164   6.098   2.434   9.289  0.2163 -0.0903  0.0520
  108OSM   H11F11165   6.042   2.338   9.278  1.5188 -1.0356  1.3111
  108OSM   H11G11166   6.194   2.407   9.338  0.2396 -0.5293 -0.2255
  108OSM   C12F11167   6.116   2.505   9.153  0.0977  0.1166  0.8909
  108OSM   H12F11168   6.164   2.439   9.078 -2.2988  2.4357 -3.0065
  108OSM   H12G11169   6.178   2.596   9.171  0.9134 -0.0165 -1.0176
  108OSM   C13F11170   5.982   2.549   9.090 -0.1006  0.0144  0.2090
  108OSM   H13F11171   5.997   2.658   9.081 -2.7130  0.7898  3.2193
  108OSM   H13G11172   5.895   2.523   9.156 -0.1447  0.8621  0.4894
  108OSM   C14F11173   5.952   2.490   8.950 -0.0012  0.2377 -0.0716
  108OSM   H14F11174   5.931   2.382   8.961 -1.0966  0.4923  0.5434
  108OSM   H14G11175   6.031   2.508   8.874 -1.6236 -2.0805 -2.4733
  108OSM   C15F11176   5.818   2.541   8.880 -0.4255  0.6675  0.7226
  108OSM   H15F11177   5.832   2.651   8.871  0.5577  0.4608 -0.5986
  108OSM   H15G11178   5.730   2.519   8.945 -1.5942 -1.0912 -1.3280
  108OSM   C16F11179   5.802   2.484   8.734  0.8645  0.3906  0.3339
  108OSM   H16F11180   5.740   2.392   8.741 -1.7877  2.0320 -0.3066
  108OSM   H16G11181   5.895   2.470   8.675 -1.0890 -1.4778 -2.5949
  108OSM   C17F11182   5.712   2.580   8.650  0.3630  0.2647 -0.6042
  108OSM   H17F11183   5.736   2.570   8.542 -0.7604  1.6473 -1.0161
  108OSM   H17G11184   5.744   2.683   8.676  1.3856 -0.9565  3.7590
  108OSM   C18F11185   5.562   2.561   8.669  0.0080 -0.3312 -0.4613
  108OSM   H18F11186   5.498   2.621   8.602 -0.2095  2.2770  1.8842
  108OSM   H18G11187   5.543   2.575   8.778 -1.4305 -1.6435 -0.5169
  108OSM   H18H11188   5.559   2.453   8.644  2.3315 -0.2918 -1.1488
  109OSM      N11189   0.986   3.383  10.862  0.0804  0.2530 -0.0318
  109OSM    C1511190   1.057   3.257  10.892 -0.5827 -0.4606  0.5166
  109OSM   H15A11191   1.108   3.228  10.801 -1.3575 -2.2721  0.6214
  109OSM   H15B11192   0.985   3.182  10.923 -1.7646  0.7008  0.6448
  109OSM   H15C11193   1.124   3.280  10.974 -0.5312 -2.1718  1.0095
  109OSM    C1411194   0.918   3.421  10.986 -0.2363  0.5989  0.7997
  109OSM   H14A11195   0.883   3.523  10.981  0.3877  0.8801  1.7861
  109OSM   H14B11196   0.990   3.431  11.066  2.5260 -0.6759 -1.3747
  109OSM   H14C11197   0.844   3.348  11.017 -0.3985  0.0984 -0.7074
  109OSM    C1311198   1.092   3.485  10.821 -0.8424 -0.1116  0.3722
  109OSM   H13A11199   1.177   3.436  10.776 -1.2193 -0.9358  0.5475
  109OSM   H13B11200   1.139   3.544  10.899  0.4748 -0.8559  0.1597
  109OSM   H13C11201   1.075   3.558  10.743  2.4651 -0.7452 -1.0988
  109OSM    C1211202   0.890   3.380  10.740  0.4947 -0.2978 -0.8503
  109OSM   H12A11203   0.841   3.475  10.724 -0.6165 -0.9543 -1.4788
  109OSM   H12B11204   0.814   3.307  10.763  0.4056 -0.3243 -1.2157
  109OSM    C1111205   0.942   3.344  10.601 -0.0111 -0.1656 -0.0149
  109OSM   H11A11206   1.005   3.426  10.559 -0.2465 -1.1723 -2.4951
  109OSM   H11B11207   0.857   3.321  10.534  1.2365 -0.7704 -1.4570
  109OSM      P11208   1.100   3.162  10.494  0.3988 -0.0812  0.2077
  109OSM    O1311209   1.201   3.065  10.540  0.2102  0.4093 -0.0733
  109OSM    O1411210   1.005   3.103  10.395 -0.0311  0.0276 -0.3737
  109OSM    O1111211   1.168   3.291  10.430  0.2730 -0.2770  0.6350
  109OSM    O1211212   1.019   3.224  10.613  0.5270 -0.2721 -0.0203
  109OSM    C1S11213   1.278   3.287  10.337 -0.2223  0.0450  0.2769
  109OSM    H1S11214   1.346   3.203  10.362 -1.3384 -1.0358 -0.2776
  109OSM    H1T11215   1.331   3.383  10.358 -0.0437 -0.4449  2.2974
  109OSM     NF11216   1.358   3.294  10.105 -0.1702  0.2883 -0.3066
  109OSM    HNF11217   1.392   3.384  10.077  0.4001 -0.0511 -0.7248
  109OSM    C2S11218   1.230   3.297  10.185 -0.2003 -0.3245  0.1758
  109OSM    H2S11219   1.167   3.208  10.163 -0.7428  0.4802 -1.7315
  109OSM    C3S11220   1.139   3.420  10.170 -0.2723 -0.2186 -0.0855
  109OSM    H3S11221   1.186   3.503  10.227  1.0901 -0.7772 -0.3528
  109OSM     O311222   1.012   3.392  10.207  0.1882  0.1344 -0.8022
  109OSM    HO311223   0.999   3.301  10.235 -0.1753  0.8839  1.7162
  109OSM    C4S11224   1.120   3.463  10.030  0.3480  0.8723 -0.2171
  109OSM    H4S11225   1.069   3.395   9.959  1.3431 -0.0493 -0.0703
  109OSM    C5S11226   1.159   3.576   9.973  0.2665  0.3106 -0.3320
  109OSM    H5S11227   1.212   3.652  10.033  0.7077 -0.7619  0.6749
  109OSM    C6S11228   1.153   3.625   9.834  0.0377  0.3823 -0.5671
  109OSM    H6S11229   1.247   3.683   9.820  2.2072 -2.8319 -0.5713
  109OSM    H6T11230   1.078   3.707   9.832  0.7733  1.0578 -2.5025
  109OSM    C7S11231   1.118   3.521   9.723 -0.1946 -0.0186 -0.2382
  109OSM    H7S11232   1.129   3.571   9.624  4.2291  0.4815  0.2994
  109OSM    H7T11233   1.016   3.481   9.739  0.4674 -1.4761  0.4150
  109OSM    C8S11234   1.214   3.399   9.706 -0.5410 -0.8375 -0.3014
  109OSM    H8S11235   1.195   3.333   9.793  0.5305 -1.2420 -0.3515
  109OSM    H8T11236   1.320   3.423   9.732 -1.4353 -0.3635  3.4024
  109OSM    C9S11237   1.201   3.309   9.577 -0.5920  0.0346 -1.0083
  109OSM    H9S11238   1.242   3.368   9.492  1.1299 -0.0364 -0.2708
  109OSM    H9T11239   1.096   3.275   9.564 -1.7768  1.9600  2.2685
  109OSM   C10S11240   1.290   3.180   9.592  0.2631  0.1800 -0.4076
  109OSM   H10S11241   1.256   3.101   9.522 -0.3056  1.3989 -1.5473
  109OSM   H10T11242   1.271   3.137   9.693 -1.2010 -1.2955 -1.2732
  109OSM   C11S11243   1.446   3.206   9.575 -1.0477 -0.0055 -0.0321
  109OSM   H11S11244   1.512   3.123   9.610  0.3384  1.5657  1.2625
  109OSM   H11T11245   1.467   3.287   9.648 -2.4345 -0.4101  0.8661
  109OSM   C12S11246   1.493   3.244   9.431  0.2674  0.1611  0.6230
  109OSM   H12S11247   1.601   3.269   9.437  0.6951 -1.1483 -0.9700
  109OSM   H12T11248   1.436   3.339   9.417  1.4041  0.7688  0.0254
  109OSM   C13S11249   1.477   3.142   9.321 -0.4448 -0.3956  0.0824
  109OSM   H13S11250   1.372   3.130   9.287 -0.4228  2.4191 -1.1950
  109OSM   H13T11251   1.522   3.043   9.345 -0.6562 -0.6327 -0.4953
  109OSM   C14S11252   1.543   3.196   9.194 -0.2506  0.4668 -0.5558
  109OSM   H14S11253   1.652   3.210   9.214  0.0857 -0.5607 -1.5870
  109OSM   H14T11254   1.510   3.301   9.179 -1.7723  0.0928  0.0034
  109OSM   C15S11255   1.539   3.116   9.064 -0.1130 -0.4359  0.4168
  109OSM   H15S11256   1.431   3.099   9.042 -0.7380 -2.4984  4.0691
  109OSM   H15T11257   1.583   3.017   9.090  1.0095  0.3046  1.4180
  109OSM   C16S11258   1.625   3.177   8.959 -0.2693  0.0349  0.6400
  109OSM   H16S11259   1.732   3.179   8.985  0.4360  1.6675 -1.9944
  109OSM   H16T11260   1.587   3.282   8.948 -2.1182 -0.6590 -0.1271
  109OSM   C17S11261   1.595   3.107   8.823 -0.0042  0.0252 -0.2149
  109OSM   H17S11262   1.484   3.094   8.823  0.0072 -0.4524  1.8068
  109OSM   H17T11263   1.624   3.000   8.836  0.9414  0.3583  0.5158
  109OSM   C18S11264   1.651   3.164   8.696 -0.5478  0.0763  0.1680
  109OSM   H18S11265   1.756   3.133   8.679 -0.6774 -1.4795  1.9008
  109OSM   H18T11266   1.633   3.274   8.694 -2.2771 -0.1230  1.7029
  109OSM   H18U11267   1.586   3.122   8.617 -1.1791 -1.8283  1.6222
  109OSM    C1F11268   1.449   3.198  10.117 -0.2563 -0.3213 -0.2441
  109OSM     OF11269   1.411   3.088  10.163 -0.0420 -0.1287 -0.1570
  109OSM    C2F11270   1.598   3.207  10.069  0.4702 -0.1053  0.5783
  109OSM    H2F11271   1.661   3.235  10.155 -0.0700  0.7545  0.6990
  109OSM    H2G11272   1.602   3.281   9.986  1.7679 -0.8452 -0.0541
  109OSM    C3F11273   1.643   3.071  10.017  0.3472  0.6607 -0.0895
  109OSM    H3F11274   1.568   3.023   9.950  0.8298  0.4206 -0.4656
  109OSM    H3G11275   1.662   3.002  10.103  2.3686 -1.6840 -2.2566
  109OSM    C4F11276   1.777   3.081   9.938 -0.2174  0.6781 -0.0337
  109OSM    H4F11277   1.801   2.975   9.916  1.8354  0.7916  1.4358
  109OSM    H4G11278   1.857   3.113  10.008  0.9051  0.4641 -1.1786
  109OSM    C5F11279   1.775   3.165   9.811  0.3659  0.0339 -0.0794
  109OSM    H5F11280   1.786   3.273   9.835  3.3049 -0.5638  1.6611
  109OSM    H5G11281   1.669   3.160   9.776 -0.1523  1.2421  1.1998
  109OSM    C6F11282   1.858   3.104   9.694 -0.4286 -0.5651 -0.5250
  109OSM    H6F11283   1.806   3.008   9.670 -1.3473  0.1175 -1.3299
  109OSM    H6G11284   1.959   3.078   9.732 -1.1277 -2.2578  0.3044
  109OSM    C7F11285   1.848   3.178   9.562 -0.0692  0.1779  0.5361
  109OSM    H7F11286   1.856   3.288   9.578 -2.6047  0.5571 -0.3566
  109OSM    H7G11287   1.751   3.157   9.512 -1.0253  3.5917  0.6844
  109OSM    C8F11288   1.969   3.133   9.466  0.1516 -0.1943 -0.8201
  109OSM    H8F11289   2.065   3.164   9.513 -0.4108 -0.1937  0.3613
  109OSM    H8G11290   1.949   3.176   9.365 -0.0691  0.4754 -0.4945
  109OSM    C9F11291   1.969   2.982   9.452 -0.5685  0.4345 -0.2308
  109OSM    H9F11292   2.007   2.920   9.534 -0.7972 -0.8741 -1.0710
  109OSM   C10F11293   1.925   2.906   9.348 -0.5737  0.0297  0.5665
  109OSM   H10F11294   1.946   2.798   9.349 -0.7118 -0.0042  0.1995
  109OSM   C11F11295   1.860   2.952   9.218 -0.0924 -0.1518 -0.1619
  109OSM   H11F11296   1.823   3.057   9.217  0.9737  0.2336  0.1213
  109OSM   H11G11297   1.774   2.881   9.211 -0.2843 -0.6604  4.4420
  109OSM   C12F11298   1.932   2.951   9.087  0.0709  0.1116  0.2298
  109OSM   H12F11299   1.864   2.978   9.003  3.3604 -0.8507 -3.0517
  109OSM   H12G11300   1.971   2.849   9.066  1.0556  0.3989  0.5996
  109OSM   C13F11301   2.041   3.053   9.083 -0.3486 -0.3706 -0.1012
  109OSM   H13F11302   2.111   3.032   9.167 -2.6080 -2.9528  1.3077
  109OSM   H13G11303   1.989   3.150   9.101 -2.5933 -1.5247  0.0080
  109OSM   C14F11304   2.140   3.054   8.961 -0.5242 -0.1815  0.0279
  109OSM   H14F11305   2.187   2.954   8.948 -0.6110 -0.3487  0.9188
  109OSM   H14G11306   2.223   3.127   8.962  3.0158 -3.7998  2.6397
  109OSM   C15F11307   2.060   3.079   8.829 -0.3541 -0.6553 -0.2985
  109OSM   H15F11308   2.004   3.175   8.833  1.6585  0.5583  2.0611
  109OSM   H15G11309   1.992   2.991   8.823  0.0886 -1.0674  0.5592
  109OSM   C16F11310   2.139   3.083   8.702  0.5145 -0.3680  0.1349
  109OSM   H16F11311   2.225   3.015   8.690  1.3631  1.0051 -2.2801
  109OSM   H16G11312   2.182   3.186   8.703 -0.0898 -0.1095  0.2642
  109OSM   C17F11313   2.041   3.112   8.587 -0.4667 -0.2625 -0.3017
  109OSM   H17F11314   2.012   3.219   8.597  0.7978  0.1039 -0.3929
  109OSM   H17G11315   1.952   3.045   8.595 -1.4187  0.8159 -1.5384
  109OSM   C18F11316   2.100   3.100   8.444  0.3302  0.1242 -1.7862
  109OSM   H18F11317   2.208   3.125   8.455  0.0107  0.9326 -0.2427
  109OSM   H18G11318   2.067   3.187   8.382  2.5581  2.5383  0.1582
  109OSM   H18H11319   2.082   2.999   8.403 -1.3532 -0.7364  0.8371
  110OSM      N11320   0.860   1.995  10.935  0.1658 -0.4433 -0.5707
  110OSM    C1511321   0.748   2.094  10.938  0.1544 -0.3350 -0.2005
  110OSM   H15A11322   0.687   2.082  10.850 -0.9388 -0.7193  0.5912
  110OSM   H15B11323   0.773   2.196  10.916 -0.1657 -0.7413 -2.7490
  110OSM   H15C11324   0.687   2.083  11.026  0.9843  1.1655  0.6073
  110OSM    C1411325   0.953   2.021  11.051 -0.3008 -0.8314  0.5832
  110OSM   H14A11326   1.026   1.942  11.053 -0.1029 -0.7041 -0.7867
  110OSM   H14B11327   0.889   2.038  11.137  0.2442  0.5115  0.7528
  110OSM   H14C11328   1.008   2.111  11.028 -1.4363 -0.5866 -1.3717
  110OSM    C1311329   0.799   1.857  10.955 -0.0469  0.1186  0.8206
  110OSM   H13A11330   0.780   1.831  11.058 -2.8515 -1.4816  0.0155
  110OSM   H13B11331   0.865   1.782  10.915 -1.4133 -0.6723 -0.0337
  110OSM   H13C11332   0.709   1.846  10.897 -0.2217  2.9154  0.3905
  110OSM    C1211333   0.928   1.993  10.799 -0.9158 -0.2200 -0.1089
  110OSM   H12A11334   0.873   1.950  10.716 -1.3271  1.3886 -0.7018
  110OSM   H12B11335   1.014   1.928  10.811 -1.0582 -0.2035  1.0762
  110OSM    C1111336   0.988   2.127  10.742 -0.3601 -0.5607 -0.6765
  110OSM   H11A11337   0.918   2.213  10.738 -0.2854 -0.5491 -2.5896
  110OSM   H11B11338   1.004   2.107  10.634 -0.1158 -1.4619 -0.4818
  110OSM      P11339   1.244   2.102  10.774 -0.6883  0.0714 -0.3059
  110OSM    O1311340   1.354   2.158  10.854 -0.2065  0.0858 -0.0283
  110OSM    O1411341   1.232   1.955  10.787 -0.1758 -0.2551  0.2385
  110OSM    O1111342   1.273   2.128  10.623  0.4629  0.0306 -0.0314
  110OSM    O1211343   1.111   2.171  10.812  0.6706  0.5408  0.1691
  110OSM    C1S11344   1.373   2.229  10.590  0.2380 -0.4986 -0.1890
  110OSM    H1S11345   1.461   2.230  10.658 -0.6013 -1.1929  0.9382
  110OSM    H1T11346   1.324   2.329  10.600 -0.0474 -0.5942 -0.5728
  110OSM     NF11347   1.532   2.329  10.436 -0.3417 -0.2322 -0.2197
  110OSM    HNF11348   1.496   2.404  10.381  0.4116 -0.3170 -0.8374
  110OSM    C2S11349   1.429   2.230  10.447  0.3812  0.6144  0.0762
  110OSM    H2S11350   1.474   2.131  10.423  2.4687  1.2475  1.1765
  110OSM    C3S11351   1.306   2.256  10.347  0.0020  0.5303  0.4700
  110OSM    H3S11352   1.261   2.348  10.390 -0.5739 -0.1101  1.2620
  110OSM     O311353   1.202   2.161  10.367 -0.2380 -0.0256 -0.1316
  110OSM    HO311354   1.225   2.140  10.457  0.6490  0.2675 -0.2791
  110OSM    C4S11355   1.346   2.253  10.200  0.6221 -0.2685  0.3047
  110OSM    H4S11356   1.349   2.354  10.158 -1.3486 -0.8176 -1.3152
  110OSM    C5S11357   1.379   2.150  10.126  0.2393  0.3143 -0.4825
  110OSM    H5S11358   1.364   2.052  10.175 -2.4274  0.3920 -0.9930
  110OSM    C6S11359   1.418   2.150   9.976  0.8094 -0.9500 -0.1674
  110OSM    H6S11360   1.368   2.063   9.929  0.9416 -0.3062 -1.5553
  110OSM    H6T11361   1.526   2.153   9.952  0.6079 -1.4602 -1.1819
  110OSM    C7S11362   1.348   2.274   9.898 -0.5689 -0.2037  0.6957
  110OSM    H7S11363   1.355   2.367   9.959  0.3492  0.6214 -0.6213
  110OSM    H7T11364   1.239   2.256   9.886 -0.7526  2.2135 -2.7413
  110OSM    C8S11365   1.416   2.307   9.770  0.0272 -0.1883 -0.4459
  110OSM    H8S11366   1.519   2.348   9.775 -0.3124  0.8104 -1.2472
  110OSM    H8T11367   1.352   2.382   9.719  0.0906  0.1099 -0.0872
  110OSM    C9S11368   1.438   2.183   9.681  0.0084 -0.2165  0.0968
  110OSM    H9S11369   1.338   2.136   9.665 -0.2912  0.6415 -0.6451
  110OSM    H9T11370   1.503   2.110   9.734 -0.3753  1.0900  2.5250
  110OSM   C10S11371   1.496   2.214   9.537  0.1948 -0.2988 -0.8183
  110OSM   H10S11372   1.605   2.237   9.547 -0.3179  1.8359  0.3491
  110OSM   H10T11373   1.442   2.302   9.497  1.7880  1.3630  0.5193
  110OSM   C11S11374   1.461   2.100   9.438 -0.7577 -0.3338 -0.0241
  110OSM   H11S11375   1.352   2.103   9.413 -1.1939 -3.7468  0.9657
  110OSM   H11T11376   1.461   2.005   9.494  1.7965 -0.6099 -0.3863
  110OSM   C12S11377   1.541   2.112   9.307  1.0066  0.1265 -0.6939
  110OSM   H12S11378   1.650   2.098   9.322  1.0621  1.8623  0.8713
  110OSM   H12T11379   1.533   2.219   9.281 -0.4069  1.4469  4.1774
  110OSM   C13S11380   1.484   2.034   9.186 -0.8523 -0.0630 -0.0619
  110OSM   H13S11381   1.377   2.057   9.164 -1.8479  0.6212  4.5342
  110OSM   H13T11382   1.487   1.927   9.212  0.0922  0.1242  0.6556
  110OSM   C14S11383   1.562   2.056   9.048 -0.1624 -0.4429 -0.1304
  110OSM   H14S11384   1.526   2.158   9.022  0.0280 -0.3782 -0.1393
  110OSM   H14T11385   1.525   1.975   8.981  1.3511  1.8459 -4.0698
  110OSM   C15S11386   1.715   2.061   9.039 -0.2330  0.3493  0.3504
  110OSM   H15S11387   1.748   1.965   9.083 -2.0353 -0.3312  0.3333
  110OSM   H15T11388   1.761   2.141   9.100 -2.9856  1.9975  0.4351
  110OSM   C16S11389   1.767   2.067   8.891  0.4052 -0.5609  0.9039
  110OSM   H16S11390   1.878   2.070   8.894  0.4516 -0.8178 -0.2983
  110OSM   H16T11391   1.739   2.165   8.847 -1.8373 -0.4628  2.3886
  110OSM   C17S11392   1.720   1.954   8.797 -0.9191  0.1863  0.7261
  110OSM   H17S11393   1.617   1.982   8.765 -0.4363  0.6921 -0.4369
  110OSM   H17T11394   1.715   1.856   8.850  0.2358 -0.6314 -0.6233
  110OSM   C18S11395   1.805   1.938   8.666 -0.4863  0.0694 -0.5541
  110OSM   H18S11396   1.745   1.867   8.605  0.6855 -1.3270 -0.1513
  110OSM   H18T11397   1.903   1.899   8.701 -0.5415  0.9819  0.6750
  110OSM   H18U11398   1.812   2.031   8.605 -1.6329 -1.3717 -3.0402
  110OSM    C1F11399   1.658   2.320  10.478 -0.0823  0.7369 -0.5965
  110OSM     OF11400   1.683   2.229  10.548 -0.0035 -0.0360 -0.0400
  110OSM    C2F11401   1.761   2.428  10.449  0.0285  0.6343 -0.4787
  110OSM    H2F11402   1.817   2.459  10.540 -0.5526 -0.1865  0.1671
  110OSM    H2G11403   1.716   2.523  10.414 -0.2695  0.4613 -0.5642
  110OSM    C3F11404   1.851   2.366  10.340  0.3046  0.3931  0.8994
  110OSM    H3F11405   1.909   2.278  10.376  1.7922 -0.0871 -2.3422
  110OSM    H3G11406   1.927   2.440  10.308 -0.7500  0.3690 -1.9136
  110OSM    C4F11407   1.785   2.323  10.202 -0.7241 -0.7398 -0.1459
  110OSM    H4F11408   1.710   2.400  10.175 -0.1011  0.0261  0.2742
  110OSM    H4G11409   1.712   2.238  10.203 -0.8034 -0.6705  0.2575
  110OSM    C5F11410   1.885   2.322  10.088 -0.1997  0.0444  0.1860
  110OSM    H5F11411   1.953   2.234  10.097  0.0839  0.2194 -0.2476
  110OSM    H5G11412   1.950   2.411  10.095 -0.4680  0.5769 -2.8620
  110OSM    C6F11413   1.825   2.338   9.941 -0.3265  0.2736 -0.1033
  110OSM    H6F11414   1.736   2.404   9.944 -2.1406 -1.9315 -1.8168
  110OSM    H6G11415   1.786   2.235   9.927 -0.3350  0.1133  0.9949
  110OSM    C7F11416   1.937   2.376   9.845  0.8814 -0.2204  0.6293
  110OSM    H7F11417   2.026   2.311   9.860 -0.6180 -2.3656  0.5680
  110OSM    H7G11418   1.959   2.485   9.841  0.2798 -0.1329 -0.6871
  110OSM    C8F11419   1.881   2.338   9.704 -0.4460  0.2405  0.2720
  110OSM    H8F11420   1.791   2.402   9.693 -0.2501  0.4554 -0.0890
  110OSM    H8G11421   1.850   2.231   9.713  1.7440 -0.5026 -0.4321
  110OSM    C9F11422   1.975   2.372   9.590  0.4437  0.3198 -1.1890
  110OSM    H9F11423   1.965   2.475   9.552 -0.7365  0.3169 -0.9155
  110OSM   C10F11424   2.058   2.287   9.523 -0.4090 -0.9934  0.0596
  110OSM   H10F11425   2.117   2.337   9.445 -1.6583 -0.6517 -0.6970
  110OSM   C11F11426   2.072   2.135   9.540  0.0010  0.2313 -0.1927
  110OSM   H11F11427   1.989   2.104   9.607  0.7066 -1.2412  0.0418
  110OSM   H11G11428   2.160   2.103   9.601 -1.3382 -0.8951  1.2254
  110OSM   C12F11429   2.038   2.062   9.412  0.8719  0.1692 -0.7362
  110OSM   H12F11430   1.936   2.094   9.382  0.4816  0.6936  1.0548
  110OSM   H12G11431   2.038   1.956   9.443  1.3736  0.8197  1.7068
  110OSM   C13F11432   2.140   2.089   9.296  0.0506  0.6484 -0.1678
  110OSM   H13F11433   2.247   2.089   9.327 -0.2316 -0.1341  0.8448
  110OSM   H13G11434   2.114   2.194   9.268  2.0959  0.9716 -1.0809
  110OSM   C14F11435   2.120   1.982   9.186  0.8464  0.5027 -0.4296
  110OSM   H14F11436   2.016   1.994   9.149 -0.3425 -2.8090  1.4408
  110OSM   H14G11437   2.134   1.882   9.232  1.8880  0.9235  0.2125
  110OSM   C15F11438   2.235   1.976   9.079  0.3430 -0.3459 -0.1601
  110OSM   H15F11439   2.330   1.938   9.123  0.4504 -0.6568 -0.6634
  110OSM   H15G11440   2.250   2.080   9.042 -2.4162  0.0604 -0.3081
  110OSM   C16F11441   2.198   1.899   8.952  0.3310  0.0961 -0.0127
  110OSM   H16F11442   2.288   1.915   8.888 -0.0298 -0.3898 -0.6513
  110OSM   H16G11443   2.104   1.933   8.904 -1.7221 -4.6812 -0.0012
  110OSM   C17F11444   2.163   1.748   8.974  0.3194  0.0213  0.3570
  110OSM   H17F11445   2.081   1.739   9.048  1.8479 -0.4478  2.0699
  110OSM   H17G11446   2.251   1.689   9.007  1.2865  1.6407  0.7739
  110OSM   C18F11447   2.110   1.693   8.842  0.2447  0.2263  0.2325
  110OSM   H18F11448   2.006   1.724   8.816  1.1204  3.2741  0.0143
  110OSM   H18G11449   2.123   1.583   8.837 -0.3996  0.0185  2.1985
  110OSM   H18H11450   2.179   1.738   8.768  2.8490 -1.2634  1.5930
  111OSM      N11451   4.601   6.167  10.859  0.2871 -0.2802  0.0534
  111OSM    C1511452   4.627   6.252  10.733 -0.7931 -0.7712  0.2149
  111OSM   H15A11453   4.546   6.318  10.706  0.1479 -0.6665 -2.6766
  111OSM   H15B11454   4.645   6.193  10.645 -0.9624  0.2246 -0.5053
  111OSM   H15C11455   4.719   6.308  10.747 -0.3730 -0.0448 -3.9638
  111OSM    C1411456   4.712   6.067  10.855  0.3950 -0.3865 -0.1797
  111OSM   H14A11457   4.804   6.121  10.871 -1.1672  2.6226 -0.6828
  111OSM   H14B11458   4.724   6.015  10.761  0.8777 -2.1744  0.8192
  111OSM   H14C11459   4.686   5.999  10.935  0.8922 -0.0728  0.2625
  111OSM    C1311460   4.636   6.243  10.986  0.1149  0.4167  0.1271
  111OSM   H13A11461   4.602   6.190  11.074  0.3678  0.2163  0.1062
  111OSM   H13B11462   4.576   6.332  11.001 -1.9917 -1.2984  2.9981
  111OSM   H13C11463   4.742   6.260  10.997 -0.0883  0.6769  1.9817
  111OSM    C1211464   4.462   6.108  10.850 -0.1951  0.1296  0.3651
  111OSM   H12A11465   4.397   6.193  10.867 -0.1374 -0.1388  2.0700
  111OSM   H12B11466   4.448   6.046  10.937  0.0415  1.8838  1.7171
  111OSM    C1111467   4.432   6.034  10.713 -0.2636 -0.4040  0.1145
  111OSM   H11A11468   4.452   6.101  10.627  1.7776  0.7824  1.4374
  111OSM   H11B11469   4.321   6.021  10.720 -0.6183  1.4390 -1.2322
  111OSM      P11470   4.435   5.773  10.752  0.2832 -0.1397 -0.0323
  111OSM    O1311471   4.506   5.656  10.699 -0.1394 -0.0080  0.1727
  111OSM    O1411472   4.432   5.793  10.893  0.2206 -0.0609 -0.6361
  111OSM    O1111473   4.290   5.774  10.700 -0.3503  0.4336  0.3041
  111OSM    O1211474   4.491   5.908  10.689  0.1499  0.1664 -0.3630
  111OSM    C1S11475   4.254   5.802  10.562  0.1132  0.9288  0.5137
  111OSM    H1S11476   4.314   5.887  10.523  2.5316 -0.2079  1.5293
  111OSM    H1T11477   4.150   5.841  10.558 -0.5789 -0.8620  0.1048
  111OSM     NF11478   4.219   5.719  10.334 -0.1044 -0.5016 -0.2206
  111OSM    HNF11479   4.126   5.729  10.299 -0.0555  3.1746  0.2978
  111OSM    C2S11480   4.259   5.679  10.467 -0.5397  0.2828 -0.4306
  111OSM    H2S11481   4.362   5.636  10.462 -1.5749 -2.5938  0.7637
  111OSM    C3S11482   4.161   5.569  10.526 -0.8611  0.3738  0.0134
  111OSM    H3S11483   4.060   5.610  10.546 -0.6038  0.4170  1.3564
  111OSM     O311484   4.211   5.511  10.653 -0.0726  0.0813  0.5129
  111OSM    HO311485   4.250   5.587  10.696 -1.4444  2.5529 -2.2982
  111OSM    C4S11486   4.159   5.451  10.426 -0.0344 -0.7659  0.1245
  111OSM    H4S11487   4.260   5.414  10.403 -0.6077 -1.1922 -1.9009
  111OSM    C5S11488   4.045   5.388  10.383  0.2095  0.3068  0.4226
  111OSM    H5S11489   3.947   5.410  10.428 -0.1006  0.8432 -0.4966
  111OSM    C6S11490   4.061   5.276  10.279 -0.6184  0.4822 -0.6700
  111OSM    H6S11491   3.964   5.255  10.229  0.5099 -1.3108 -2.2393
  111OSM    H6T11492   4.081   5.181  10.333  1.7398  0.4386 -1.5337
  111OSM    C7S11493   4.165   5.292  10.164  0.2766 -0.4057  1.1008
  111OSM    H7S11494   4.164   5.195  10.109 -1.2896 -0.9728  2.0808
  111OSM    H7T11495   4.269   5.299  10.203  1.5810 -0.6995 -1.9686
  111OSM    C8S11496   4.134   5.412  10.076 -0.3479 -0.2784  0.1042
  111OSM    H8S11497   4.214   5.414   9.999  1.7979  0.1160  2.2323
  111OSM    H8T11498   4.145   5.506  10.135 -1.2893  0.2134 -0.4771
  111OSM    C9S11499   3.993   5.421  10.011 -0.1536  0.3338 -0.0007
  111OSM    H9S11500   3.906   5.424  10.080 -0.5258  1.5938 -0.5073
  111OSM    H9T11501   3.981   5.334   9.943  3.4441 -0.3032 -0.0217
  111OSM   C10S11502   4.002   5.537   9.910 -0.6581 -1.2080  0.5075
  111OSM   H10S11503   4.075   5.505   9.833 -1.5964  1.5684 -1.7118
  111OSM   H10T11504   4.030   5.630   9.964  1.2067 -2.2585  1.4433
  111OSM   C11S11505   3.867   5.556   9.836  0.8239 -0.4547 -0.2746
  111OSM   H11S11506   3.788   5.601   9.900 -0.9903 -0.5244 -2.3389
  111OSM   H11T11507   3.829   5.453   9.816  0.2754 -0.2095 -0.4967
  111OSM   C12S11508   3.872   5.638   9.708  0.3351 -0.6729  0.9632
  111OSM   H12S11509   3.949   5.585   9.647  0.1227 -0.5152  0.5524
  111OSM   H12T11510   3.895   5.747   9.712  0.0338 -0.5844  0.4207
  111OSM   C13S11511   3.748   5.635   9.614 -0.2278  0.2492  0.4091
  111OSM   H13S11512   3.658   5.686   9.655 -1.0864 -1.1923  0.3596
  111OSM   H13T11513   3.706   5.533   9.601 -1.0402  0.3812  1.8430
  111OSM   C14S11514   3.772   5.679   9.471  0.6351 -1.2434 -0.1854
  111OSM   H14S11515   3.704   5.620   9.405  0.9177  1.2551 -2.8917
  111OSM   H14T11516   3.877   5.649   9.453  1.4224  2.2588 -2.2439
  111OSM   C15S11517   3.763   5.827   9.442  0.0049 -0.0740  0.0158
  111OSM   H15S11518   3.838   5.887   9.498  1.6282 -0.6602 -1.4485
  111OSM   H15T11519   3.666   5.865   9.482 -1.9895 -2.6964 -1.9837
  111OSM   C16S11520   3.769   5.872   9.296  0.3584  0.3212  0.1817
  111OSM   H16S11521   3.796   5.980   9.294 -0.8143  0.7335  2.5680
  111OSM   H16T11522   3.668   5.854   9.254 -0.1738 -1.5195  2.0909
  111OSM   C17S11523   3.870   5.782   9.215 -0.3461 -0.1463 -0.1733
  111OSM   H17S11524   3.832   5.678   9.231  4.1136 -2.3435 -2.1191
  111OSM   H17T11525   3.973   5.796   9.255  0.4233 -2.5228 -1.1585
  111OSM   C18S11526   3.882   5.795   9.062  0.1528  0.6222  0.0149
  111OSM   H18S11527   3.778   5.810   9.026  0.9002  4.8904 -0.8319
  111OSM   H18T11528   3.930   5.710   9.009 -0.1419  1.7746 -2.2096
  111OSM   H18U11529   3.931   5.891   9.038 -2.7544  2.4856  0.9170
  111OSM    C1F11530   4.309   5.772  10.255 -0.1288  0.7211  0.2807
  111OSM     OF11531   4.423   5.796  10.293  0.1709 -0.4816 -0.1908
  111OSM    C2F11532   4.268   5.812  10.115 -0.0627 -0.6258  0.1810
  111OSM    H2F11533   4.212   5.908  10.117 -2.1254 -1.7731 -0.0786
  111OSM    H2G11534   4.194   5.743  10.068 -1.8933  1.5028 -0.2405
  111OSM    C3F11535   4.382   5.822  10.011  0.5426  0.5005 -0.2197
  111OSM    H3F11536   4.460   5.743  10.015 -0.2486 -0.3060 -0.2452
  111OSM    H3G11537   4.440   5.914  10.031 -1.0063  1.1598  1.5184
  111OSM    C4F11538   4.332   5.824   9.862  1.0780  0.5537  0.0621
  111OSM    H4F11539   4.406   5.880   9.800  2.9451  1.2948  2.7845
  111OSM    H4G11540   4.233   5.872   9.849 -0.1698 -1.5072  1.4805
  111OSM    C5F11541   4.316   5.679   9.824 -0.0371  0.5825  0.4163
  111OSM    H5F11542   4.249   5.632   9.899  1.9004 -1.9401  0.6826
  111OSM    H5G11543   4.418   5.634   9.820 -0.6065 -0.7270 -0.0527
  111OSM    C6F11544   4.248   5.659   9.683  0.8909  0.3214  0.3025
  111OSM    H6F11545   4.138   5.671   9.696  0.5535 -0.3461 -1.5316
  111OSM    H6G11546   4.264   5.557   9.642  0.7995 -0.1699  1.4509
  111OSM    C7F11547   4.292   5.757   9.577  0.2632 -0.0681  0.3501
  111OSM    H7F11548   4.403   5.759   9.579  0.5090 -2.8638 -2.9284
  111OSM    H7G11549   4.255   5.856   9.612  0.9558  0.3979 -0.2065
  111OSM    C8F11550   4.237   5.749   9.433 -0.7031 -0.0355 -0.3280
  111OSM    H8F11551   4.251   5.849   9.386 -2.8246  0.6140  0.3477
  111OSM    H8G11552   4.128   5.739   9.446 -0.5437 -1.7393 -0.0235
  111OSM    C9F11553   4.286   5.624   9.355 -0.1380 -0.3716  0.1927
  111OSM    H9F11554   4.295   5.532   9.415  0.5354 -0.1248  0.4862
  111OSM   C10F11555   4.338   5.621   9.233  0.0546  0.6837  0.0452
  111OSM   H10F11556   4.381   5.528   9.192  0.7878  1.1586 -0.2879
  111OSM   C11F11557   4.351   5.740   9.146 -0.1586  0.3789 -0.1093
  111OSM   H11F11558   4.444   5.790   9.182 -0.6117  0.9653  0.2784
  111OSM   H11G11559   4.265   5.810   9.144  0.2473  0.8964  0.1819
  111OSM   C12F11560   4.379   5.693   8.995  0.3771  0.2555 -0.3145
  111OSM   H12F11561   4.464   5.622   8.983  3.8314  4.3926 -4.6665
  111OSM   H12G11562   4.419   5.779   8.937  0.7293  1.4657  1.6088
  111OSM   C13F11563   4.251   5.633   8.927  0.0569  0.1372 -0.1968
  111OSM   H13F11564   4.163   5.699   8.942  2.0012  3.3532 -1.9123
  111OSM   H13G11565   4.231   5.531   8.967  0.6601  0.9121  2.2499
  111OSM   C14F11566   4.268   5.616   8.770 -0.4660  0.3611 -0.7019
  111OSM   H14F11567   4.371   5.576   8.764  0.2197  0.9519  3.8967
  111OSM   H14G11568   4.266   5.716   8.722  1.4445  0.0506 -1.4830
  111OSM   C15F11569   4.163   5.527   8.712  0.8034 -0.2260  0.5086
  111OSM   H15F11570   4.173   5.437   8.776 -1.3030 -0.5638  0.4572
  111OSM   H15G11571   4.180   5.513   8.603  1.4669  1.4633  0.3623
  111OSM   C16F11572   4.021   5.593   8.742  0.0704  0.6153  0.0487
  111OSM   H16F11573   4.038   5.702   8.756 -1.3569  0.7684  0.7258
  111OSM   H16G11574   4.002   5.557   8.846  1.8829  1.5239  0.7436
  111OSM   C17F11575   3.912   5.566   8.641  0.0938 -0.1878 -0.6874
  111OSM   H17F11576   3.886   5.459   8.655  0.0489 -0.2178 -0.9861
  111OSM   H17G11577   3.957   5.576   8.540  0.6788 -1.2637 -0.5433
  111OSM   C18F11578   3.792   5.657   8.648  0.3247  0.0264  0.3657
  111OSM   H18F11579   3.729   5.632   8.736  0.6811 -2.0129  0.0873
  111OSM   H18G11580   3.731   5.639   8.557  0.3134 -0.0169  0.3826
  111OSM   H18H11581   3.821   5.765   8.648 -1.1273  0.4894 -1.7712
  112OSM      N11582   2.929   2.805  11.348 -0.0909  0.5451 -0.3172
  112OSM    C1511583   3.000   2.735  11.462 -0.1374 -0.2695 -0.4379
  112OSM   H15A11584   2.986   2.628  11.468  1.2108 -0.4048  0.7278
  112OSM   H15B11585   2.953   2.772  11.552  0.9999  0.7822 -0.2496
  112OSM   H15C11586   3.107   2.750  11.459  0.5360 -4.0561 -0.0098
  112OSM    C1411587   2.778   2.813  11.369 -0.7524  0.1669  0.0327
  112OSM   H14A11588   2.724   2.720  11.380  0.4258 -0.4799  0.4729
  112OSM   H14B11589   2.743   2.871  11.285 -0.1328  0.2241 -0.1883
  112OSM   H14C11590   2.755   2.868  11.459 -0.5618 -2.5703  1.8988
  112OSM    C1311591   2.989   2.941  11.334 -0.2928  0.7704 -0.6377
  112OSM   H13A11592   3.095   2.925  11.315 -0.0726  1.0744  0.3093
  112OSM   H13B11593   2.989   3.005  11.420 -0.3006 -0.8893  0.6382
  112OSM   H13C11594   2.954   2.993  11.246  0.2661  1.7803 -0.2756
  112OSM    C1211595   2.951   2.732  11.219 -0.2775 -0.0136 -0.3850
  112OSM   H12A11596   2.905   2.635  11.233  0.3106 -0.2322  0.0640
  112OSM   H12B11597   3.052   2.701  11.200 -0.1386  0.3589 -0.2772
  112OSM    C1111598   2.879   2.794  11.091 -0.8211  0.2805 -0.1530
  112OSM   H11A11599   2.774   2.818  11.118 -0.4431 -0.2240  1.8805
  112OSM   H11B11600   2.886   2.719  11.009 -1.0741 -1.6204  1.5135
  112OSM      P11601   3.067   2.923  10.962 -0.3526  0.2154 -0.4481
  112OSM    O1311602   3.100   3.067  10.923  0.0008  0.0278 -0.3866
  112OSM    O1411603   3.173   2.849  11.031  0.3671 -0.1726  0.2271
  112OSM    O1111604   3.038   2.837  10.833 -0.3510 -0.3520  0.4819
  112OSM    O1211605   2.943   2.919  11.055 -0.4285 -0.4922 -0.2363
  112OSM    C1S11606   2.940   2.883  10.738 -0.0986  0.0706 -0.1962
  112OSM    H1S11607   2.958   2.990  10.715 -0.7865  0.0859 -0.6659
  112OSM    H1T11608   2.833   2.869  10.766 -0.5445 -0.1373 -1.9238
  112OSM     NF11609   2.893   2.878  10.491 -0.1260  0.5074 -0.5966
  112OSM    HNF11610   2.798   2.854  10.471 -0.4532  1.1408  0.1462
  112OSM    C2S11611   2.946   2.804  10.606 -0.3721  0.0681  0.6855
  112OSM    H2S11612   3.055   2.789  10.589 -0.2333  3.3379 -2.4540
  112OSM    C3S11613   2.873   2.662  10.630  0.3234  0.0073 -0.4402
  112OSM    H3S11614   2.770   2.692  10.658 -0.3079 -2.5806  0.3224
  112OSM     O311615   2.905   2.610  10.756  0.1524 -0.0490 -0.4382
  112OSM    HO311616   2.960   2.677  10.797 -1.0761  0.3884  0.5550
  112OSM    C4S11617   2.897   2.574  10.519  0.3577 -0.3610  0.7054
  112OSM    H4S11618   2.806   2.565  10.457  0.6791  1.9876 -0.2048
  112OSM    C5S11619   3.005   2.492  10.491 -0.2216 -0.2122  0.4887
  112OSM    H5S11620   3.089   2.486  10.562 -0.7822  1.9780  1.4263
  112OSM    C6S11621   3.009   2.396  10.377 -0.5401  0.2969  0.3339
  112OSM    H6S11622   3.055   2.302  10.415 -0.7707 -0.0583 -0.2527
  112OSM    H6T11623   3.090   2.435  10.313 -1.2036  0.1062 -0.6460
  112OSM    C7S11624   2.888   2.366  10.301 -0.2101 -0.2439  0.4055
  112OSM    H7S11625   2.804   2.380  10.372  1.6897  0.7971  2.5824
  112OSM    H7T11626   2.900   2.261  10.266 -0.3858  0.5593 -2.2423
  112OSM    C8S11627   2.866   2.446  10.173 -0.0861 -0.3452 -0.5400
  112OSM    H8S11628   2.885   2.555  10.184 -0.0515 -0.4396  0.3846
  112OSM    H8T11629   2.761   2.430  10.142 -0.3933  1.8805 -0.7778
  112OSM    C9S11630   2.959   2.391  10.062  0.3326  0.1552 -0.3679
  112OSM    H9S11631   2.943   2.287  10.027  1.6374  0.3830 -1.7769
  112OSM    H9T11632   3.060   2.402  10.108 -0.4574 -2.2715  2.1744
  112OSM   C10S11633   2.963   2.484   9.936  0.4776 -1.6157 -0.5056
  112OSM   H10S11634   3.000   2.584   9.966  0.2007 -1.7006  0.1265
  112OSM   H10T11635   2.865   2.495   9.884  1.1763  1.6473 -1.3402
  112OSM   C11S11636   3.057   2.432   9.825 -0.2249 -0.6316 -0.4534
  112OSM   H11S11637   3.035   2.327   9.795  0.9853 -0.3618 -2.5302
  112OSM   H11T11638   3.162   2.442   9.860  0.1258 -0.3754 -1.5427
  112OSM   C12S11639   3.061   2.524   9.698 -0.0763  0.0665 -0.3041
  112OSM   H12S11640   3.140   2.597   9.722  0.3316 -0.9260  1.6148
  112OSM   H12T11641   2.963   2.577   9.689  0.4066  0.7327 -2.2074
  112OSM   C13S11642   3.096   2.439   9.574 -0.4638 -0.1803 -0.0548
  112OSM   H13S11643   3.018   2.360   9.570  1.4133 -2.1548  0.1145
  112OSM   H13T11644   3.195   2.393   9.599 -0.8577  0.4300  3.0282
  112OSM   C14S11645   3.110   2.517   9.442 -0.2900  0.1650  0.3857
  112OSM   H14S11646   3.174   2.601   9.477  1.7470 -1.7874  1.5589
  112OSM   H14T11647   3.013   2.565   9.415  0.3000  1.0711 -0.1865
  112OSM   C15S11648   3.168   2.443   9.320  0.2432  0.0569 -0.0314
  112OSM   H15S11649   3.102   2.360   9.288 -1.8245  2.5413 -2.6673
  112OSM   H15T11650   3.252   2.384   9.363  0.2040  0.5835  0.7948
  112OSM   C16S11651   3.209   2.526   9.201  0.1562 -0.3062  0.5728
  112OSM   H16S11652   3.257   2.458   9.127 -1.5947  0.2312 -1.1370
  112OSM   H16T11653   3.281   2.599   9.243  0.4991  1.3474 -2.6000
  112OSM   C17S11654   3.089   2.595   9.131 -0.0276  0.2045 -0.8445
  112OSM   H17S11655   3.032   2.658   9.202 -1.1966 -1.4523 -0.2549
  112OSM   H17T11656   3.018   2.518   9.093 -0.8829 -0.1968  1.4398
  112OSM   C18S11657   3.129   2.686   9.016  0.7628  0.2055  0.9547
  112OSM   H18S11658   3.173   2.626   8.933 -0.8856 -0.7670  0.7449
  112OSM   H18T11659   3.194   2.769   9.051 -0.4482  1.3738  0.5050
  112OSM   H18U11660   3.035   2.729   8.975  1.0457 -0.9499 -1.0421
  112OSM    C1F11661   2.968   2.973  10.432 -0.1109 -0.1183 -0.6591
  112OSM     OF11662   3.075   3.001  10.479  0.5272  0.1535  0.1804
  112OSM    C2F11663   2.915   3.051  10.304  0.8661 -0.2266  0.4180
  112OSM    H2F11664   2.926   3.162  10.309  0.0662  0.1032 -2.7204
  112OSM    H2G11665   2.804   3.047  10.297  0.9101  1.1329 -2.8697
  112OSM    C3F11666   2.996   2.995  10.183 -0.1001  0.3970 -0.0982
  112OSM    H3F11667   2.985   2.885  10.171  0.8342  0.5368 -3.1553
  112OSM    H3G11668   3.104   3.015  10.197  0.3182 -0.4733 -1.7673
  112OSM    C4F11669   2.954   3.060  10.057  0.2634  0.0554  0.1360
  112OSM    H4F11670   2.936   3.169  10.070 -2.7113 -0.4839  1.4696
  112OSM    H4G11671   2.852   3.024  10.030  0.4847 -0.0235 -0.6282
  112OSM    C5F11672   3.048   3.045   9.939 -0.4289  0.0864  0.2404
  112OSM    H5F11673   3.006   3.105   9.855  0.4713  0.6716  0.1897
  112OSM    H5G11674   3.046   2.940   9.902 -1.8040  1.0766 -2.7672
  112OSM    C6F11675   3.192   3.104   9.945 -0.4908 -0.6830  0.8273
  112OSM    H6F11676   3.248   3.039  10.015 -0.8640 -0.1800  1.5992
  112OSM    H6G11677   3.186   3.207   9.985 -0.4765 -0.1735 -0.4377
  112OSM    C7F11678   3.252   3.102   9.807 -0.4968 -0.5474 -0.5508
  112OSM    H7F11679   3.203   3.179   9.742 -1.5499 -1.9002 -1.4056
  112OSM    H7G11680   3.231   3.006   9.756  0.4231  0.2357 -2.5434
  112OSM    C8F11681   3.403   3.124   9.807  0.1366 -0.4341  0.1842
  112OSM    H8F11682   3.428   3.118   9.699 -0.2115  2.6568 -0.1405
  112OSM    H8G11683   3.448   3.033   9.853 -0.5599 -1.4598 -1.0980
  112OSM    C9F11684   3.450   3.245   9.876  0.1378  0.0748 -0.3395
  112OSM    H9F11685   3.480   3.230   9.981  1.0515 -1.5624 -0.8080
  112OSM   C10F11686   3.460   3.366   9.822 -0.1908 -0.4864  0.1562
  112OSM   H10F11687   3.496   3.451   9.882  0.5313 -0.2678 -0.5621
  112OSM   C11F11688   3.436   3.400   9.680 -0.2275 -0.7541 -0.0482
  112OSM   H11F11689   3.429   3.307   9.620 -1.3366  0.1220 -1.3542
  112OSM   H11G11690   3.528   3.445   9.636 -1.2329  0.6971 -0.7525
  112OSM   C12F11691   3.307   3.483   9.660  0.1761 -0.1278 -0.3206
  112OSM   H12F11692   3.306   3.583   9.707 -2.5524  0.1449 -0.7757
  112OSM   H12G11693   3.218   3.445   9.715 -2.1246  1.3878 -2.7737
  112OSM   C13F11694   3.261   3.496   9.510  0.2633 -0.3664  0.0003
  112OSM   H13F11695   3.164   3.551   9.511 -0.4362 -1.5746  1.0858
  112OSM   H13G11696   3.237   3.391   9.486 -0.5039 -0.4938  1.2408
  112OSM   C14F11697   3.352   3.580   9.422  0.1645  0.2427 -0.1956
  112OSM   H14F11698   3.456   3.540   9.426  0.0291 -0.4665 -2.3846
  112OSM   H14G11699   3.360   3.681   9.467 -1.2129  0.3141 -0.0721
  112OSM   C15F11700   3.303   3.580   9.272 -0.6289 -0.4818  0.3220
  112OSM   H15F11701   3.197   3.614   9.275 -0.0342  1.3791  1.8184
  112OSM   H15G11702   3.315   3.480   9.225  0.9845 -1.1874  2.1141
  112OSM   C16F11703   3.374   3.685   9.183  0.2399 -0.2775  0.1722
  112OSM   H16F11704   3.485   3.684   9.185  0.2386  0.6354  0.9297
  112OSM   H16G11705   3.353   3.782   9.233  1.9869  0.3613 -0.2550
  112OSM   C17F11706   3.313   3.707   9.045 -0.0848 -0.5410 -0.0951
  112OSM   H17F11707   3.203   3.709   9.054  0.0738  0.5595  2.4452
  112OSM   H17G11708   3.340   3.627   8.973 -0.5904 -0.3971 -0.4508
  112OSM   C18F11709   3.342   3.844   8.982 -0.3142 -0.4328  0.3324
  112OSM   H18F11710   3.448   3.858   8.951 -0.5228  1.7660  0.4857
  112OSM   H18G11711   3.322   3.928   9.052  1.4180 -0.5185  0.9927
  112OSM   H18H11712   3.280   3.873   8.895 -1.0959 -0.7617  0.7704
  113OSM      N11713   0.191   0.453  11.161 -0.2191 -0.3548 -0.0982
  113OSM    C1511714   0.238   0.430  11.301  0.6864  0.2814 -0.4137
  113OSM   H15A11715   0.344   0.413  11.303  0.3648 -2.2858 -0.6374
  113OSM   H15B11716   0.194   0.336  11.333 -2.7493  1.7484 -0.3091
  113OSM   H15C11717   0.194   0.490  11.379 -0.4905 -1.1143  0.0537
  113OSM    C1411718   0.176   0.603  11.146 -0.0901 -0.0530 -0.5441
  113OSM   H14A11719   0.133   0.642  11.236  0.5710 -0.4405 -0.0521
  113OSM   H14B11720   0.111   0.634  11.065 -2.9654 -0.1692  1.5891
  113OSM   H14C11721   0.275   0.646  11.151 -0.2491  0.1667  1.5871
  113OSM    C1311722   0.286   0.411  11.061  1.1506  0.0877 -0.6951
  113OSM   H13A11723   0.248   0.427  10.961  0.2095 -1.0201 -0.5398
  113OSM   H13B11724   0.305   0.305  11.071 -2.3249 -0.5402  0.3997
  113OSM   H13C11725   0.378   0.467  11.067 -0.2659  2.4177  0.8142
  113OSM    C1211726   0.057   0.379  11.136  0.1413  0.1295 -0.8630
  113OSM   H12A11727  -0.023   0.418  11.197 -2.0951 -0.8650 -2.9651
  113OSM   H12B11728   0.076   0.279  11.171  0.1177  0.1532 -0.7819
  113OSM    C1111729   0.008   0.377  10.990 -0.0948  0.1629 -0.2635
  113OSM   H11A11730  -0.088   0.320  10.996 -0.4068  0.7340  0.2524
  113OSM   H11B11731   0.081   0.319  10.929  0.0500 -0.3208  0.3635
  113OSM      P11732  -0.148   0.581  10.975  0.0983  0.2287  0.3189
  113OSM    O1311733  -0.226   0.508  11.078 -0.3447  0.1278  0.1867
  113OSM    O1411734  -0.108   0.718  11.010  0.3038  0.0554  0.3570
  113OSM    O1111735  -0.239   0.578  10.847 -0.1405 -0.8574 -0.3530
  113OSM    O1211736  -0.017   0.509  10.936 -0.2830  0.5829  0.4567
  113OSM    C1S11737  -0.182   0.630  10.722 -0.0720 -0.4119 -0.5329
  113OSM    H1S11738  -0.160   0.543  10.657 -0.8576 -2.1749  1.4527
  113OSM    H1T11739  -0.092   0.692  10.738 -1.0470  0.2476  3.3454
  113OSM     NF11740  -0.202   0.740  10.512  0.0118 -0.2537  0.2354
  113OSM    HNF11741  -0.145   0.821  10.506  0.7613 -0.8452 -0.8510
  113OSM    C2S11742  -0.275   0.713  10.634 -0.1584 -1.0017 -0.1284
  113OSM    H2S11743  -0.359   0.648  10.605  0.2842 -0.4003 -3.0973
  113OSM    C3S11744  -0.325   0.844  10.712 -0.0925  0.1377 -0.0512
  113OSM    H3S11745  -0.236   0.896  10.754 -0.0338  0.6726 -0.7969
  113OSM     O311746  -0.426   0.802  10.813 -0.2817 -0.5865  0.1676
  113OSM    HO311747  -0.395   0.712  10.828 -0.7398 -0.6528  0.7465
  113OSM    C4S11748  -0.393   0.922  10.604 -0.4351  0.1889 -0.1344
  113OSM    H4S11749  -0.441   0.849  10.537 -2.1947  0.5165  0.6982
  113OSM    C5S11750  -0.393   1.057  10.588 -0.2939 -0.4409 -0.1961
  113OSM    H5S11751  -0.329   1.126  10.646 -0.1269 -0.2735 -0.5801
  113OSM    C6S11752  -0.471   1.118  10.481  0.8110  0.3333  0.3718
  113OSM    H6S11753  -0.456   1.227  10.474  0.8551  0.2344 -1.4153
  113OSM    H6T11754  -0.579   1.108  10.508  0.0856  0.4320 -2.2384
  113OSM    C7S11755  -0.470   1.045  10.348  0.5993  0.1505  0.0938
  113OSM    H7S11756  -0.553   0.972  10.349 -0.1307  0.8793 -1.9384
  113OSM    H7T11757  -0.378   0.988  10.325  1.0212  1.0325 -0.4618
  113OSM    C8S11758  -0.506   1.143  10.233 -0.1162  0.3675 -0.7576
  113OSM    H8S11759  -0.446   1.237  10.242 -1.0045  0.9097 -0.3233
  113OSM    H8T11760  -0.614   1.165  10.223 -0.5990 -0.9284  1.1497
  113OSM    C9S11761  -0.466   1.075  10.103 -0.3026  0.0217  0.0666
  113OSM    H9S11762  -0.514   0.975  10.093  0.8803 -0.4173 -1.7303
  113OSM    H9T11763  -0.357   1.053  10.104 -0.2484  0.0643 -1.5201
  113OSM   C10S11764  -0.492   1.167   9.987 -0.2147  1.1086  0.2476
  113OSM   H10S11765  -0.425   1.254  10.005  0.9705 -0.0131  1.4725
  113OSM   H10T11766  -0.593   1.211   9.980 -0.4497  0.5396  0.0278
  113OSM   C11S11767  -0.444   1.105   9.856 -0.2570 -0.7339  0.8308
  113OSM   H11S11768  -0.502   1.015   9.826 -1.0271  0.7465 -2.6583
  113OSM   H11T11769  -0.339   1.070   9.864 -0.1234 -0.3077  0.9764
  113OSM   C12S11770  -0.448   1.207   9.745 -0.6233 -0.3430 -0.2316
  113OSM   H12S11771  -0.365   1.280   9.753 -1.7320  1.1036 -1.2590
  113OSM   H12T11772  -0.541   1.268   9.745  0.1873  0.9865 -1.4818
  113OSM   C13S11773  -0.446   1.149   9.599  0.2328 -0.2010  0.0134
  113OSM   H13S11774  -0.515   1.062   9.595 -2.5669  1.7945  1.4156
  113OSM   H13T11775  -0.345   1.103   9.588  0.3391  0.3674 -1.5491
  113OSM   C14S11776  -0.469   1.250   9.490 -0.5847  0.3253  0.2962
  113OSM   H14S11777  -0.411   1.344   9.500  0.6073 -0.0361 -2.3252
  113OSM   H14T11778  -0.576   1.282   9.488 -0.5311  0.5145  0.4705
  113OSM   C15S11779  -0.449   1.197   9.350 -0.3484  0.8795  0.6386
  113OSM   H15S11780  -0.527   1.119   9.337  0.4181  0.0466  0.8712
  113OSM   H15T11781  -0.353   1.140   9.351 -1.6578 -1.4476  1.4504
  113OSM   C16S11782  -0.455   1.307   9.240 -0.4349  0.1491 -0.3776
  113OSM   H16S11783  -0.375   1.382   9.259 -0.3174  0.0280 -0.3903
  113OSM   H16T11784  -0.552   1.361   9.235  0.6168  2.1082 -0.2662
  113OSM   C17S11785  -0.434   1.238   9.102  0.4397 -0.1382  0.4874
  113OSM   H17S11786  -0.514   1.166   9.076 -0.6584  1.5040 -0.9701
  113OSM   H17T11787  -0.336   1.187   9.104 -0.3656 -2.0546 -2.6210
  113OSM   C18S11788  -0.428   1.329   8.979  0.1520 -0.3954 -0.0878
  113OSM   H18S11789  -0.527   1.378   8.968  0.3329 -0.1509 -0.6324
  113OSM   H18T11790  -0.399   1.269   8.890 -1.3896  0.7887 -1.4352
  113OSM   H18U11791  -0.345   1.402   8.987 -1.5979  1.7645 -0.7089
  113OSM    C1F11792  -0.199   0.662  10.405 -0.0028  1.1569  0.6285
  113OSM     OF11793  -0.240   0.545  10.405  0.7362  0.0747  0.5654
  113OSM    C2F11794  -0.132   0.716  10.286  0.4204  0.2673  0.3563
  113OSM    H2F11795  -0.025   0.687  10.282  0.8779  1.5696  1.7701
  113OSM    H2G11796  -0.137   0.827  10.299 -2.7878  0.2956 -0.2587
  113OSM    C3F11797  -0.203   0.697  10.147 -0.3331  0.1923  0.3806
  113OSM    H3F11798  -0.312   0.716  10.151 -0.2531  0.5130  1.2145
  113OSM    H3G11799  -0.200   0.590  10.117  2.7114  0.4177 -0.4392
  113OSM    C4F11800  -0.144   0.784  10.038 -0.1058  0.0743 -0.8597
  113OSM    H4F11801  -0.037   0.762  10.016  0.1293  0.7004 -0.3668
  113OSM    H4G11802  -0.144   0.891  10.066  0.5446 -0.4974  1.5541
  113OSM    C5F11803  -0.211   0.769   9.899 -0.3068 -0.3098 -0.1262
  113OSM    H5F11804  -0.315   0.805   9.914 -0.1379 -0.5065  1.7269
  113OSM    H5G11805  -0.207   0.668   9.852 -0.8250  0.0034 -0.8540
  113OSM    C6F11806  -0.145   0.853   9.789  0.0479 -0.6046 -0.4970
  113OSM    H6F11807  -0.038   0.825   9.775  0.4551  0.0556  1.0700
  113OSM    H6G11808  -0.145   0.962   9.810 -0.6697 -0.6170 -0.3983
  113OSM    C7F11809  -0.217   0.835   9.647 -0.6421 -1.0188  0.5454
  113OSM    H7F11810  -0.297   0.913   9.649  1.0146  0.7918  0.0422
  113OSM    H7G11811  -0.259   0.735   9.625 -0.4217 -1.1150  0.5603
  113OSM    C8F11812  -0.118   0.870   9.537 -0.9497 -0.0827 -0.1065
  113OSM    H8F11813  -0.038   0.793   9.542 -0.3187  0.5851  0.3414
  113OSM    H8G11814  -0.075   0.964   9.576  1.5688 -1.8228  1.6427
  113OSM    C9F11815  -0.168   0.868   9.394  0.1926  0.2415 -0.3344
  113OSM    H9F11816  -0.244   0.793   9.367 -0.3553  1.8845 -3.8877
  113OSM   C10F11817  -0.132   0.949   9.292 -0.2780 -0.3083  0.4212
  113OSM   H10F11818  -0.189   0.938   9.198 -0.7372 -1.1344  0.7843
  113OSM   C11F11819  -0.023   1.054   9.291 -0.7707 -0.3530 -0.1421
  113OSM   H11F11820   0.075   1.002   9.280  0.1835  0.6619  2.6410
  113OSM   H11G11821  -0.018   1.118   9.382 -1.4675  2.6274 -2.0509
  113OSM   C12F11822  -0.041   1.166   9.181 -0.1281  0.8840  0.4539
  113OSM   H12F11823  -0.123   1.228   9.222 -1.1721 -0.3593  0.3237
  113OSM   H12G11824  -0.069   1.105   9.093  1.6912 -0.4958  0.7481
  113OSM   C13F11825   0.084   1.256   9.156  0.2137 -0.1347  0.2900
  113OSM   H13F11826   0.168   1.188   9.127  0.9969  0.3819  1.2746
  113OSM   H13G11827   0.104   1.320   9.245  0.5739  1.1960 -0.7147
  113OSM   C14F11828   0.049   1.365   9.052 -0.3878  0.2353 -0.3358
  113OSM   H14F11829   0.146   1.418   9.036 -0.4918  0.7035  0.5047
  113OSM   H14G11830  -0.021   1.439   9.096 -1.5777 -0.4953 -0.9512
  113OSM   C15F11831  -0.001   1.302   8.923  0.4240 -0.0534 -0.3459
  113OSM   H15F11832  -0.110   1.278   8.925  0.4902 -0.3378  0.0174
  113OSM   H15G11833   0.058   1.210   8.906  0.1021 -0.6486  1.4789
  113OSM   C16F11834   0.020   1.399   8.803 -0.6263  0.3657 -0.4159
  113OSM   H16F11835   0.121   1.444   8.808 -0.7789  0.5751  1.4654
  113OSM   H16G11836  -0.052   1.483   8.814  0.2266  1.5322 -3.0391
  113OSM   C17F11837  -0.009   1.342   8.667 -0.4095  0.4004  0.3030
  113OSM   H17F11838  -0.118   1.334   8.648  0.2013  0.2180 -4.3634
  113OSM   H17G11839   0.041   1.244   8.650 -0.7865  0.2198  0.2441
  113OSM   C18F11840   0.039   1.436   8.546 -0.2815  0.2986  0.0133
  113OSM   H18F11841   0.019   1.389   8.447  0.2576  0.8022 -0.3436
  113OSM   H18G11842   0.146   1.465   8.547  0.1737 -1.2688 -0.0849
  113OSM   H18H11843  -0.019   1.530   8.554  1.1540  1.2273 -0.1465
  114OSM      N11844   2.308   2.951  11.112 -0.8889 -0.1584  0.3673
  114OSM    C1511845   2.231   2.842  11.187 -0.1547  0.2150 -0.4913
  114OSM   H15A11846   2.151   2.803  11.126 -0.0063 -0.2688 -0.3846
  114OSM   H15B11847   2.180   2.898  11.265  0.7083 -0.4862  0.6074
  114OSM   H15C11848   2.287   2.766  11.239  1.1231  0.1922 -1.8508
  114OSM    C1411849   2.222   3.058  11.050  0.7011  0.6113  0.1251
  114OSM   H14A11850   2.151   3.094  11.123 -1.2166  0.9976 -1.8093
  114OSM   H14B11851   2.155   3.016  10.976  1.8688  1.2375 -1.3207
  114OSM   H14C11852   2.282   3.133  11.000 -1.0604  1.4119 -0.9037
  114OSM    C1311853   2.387   3.023  11.216  0.3410 -0.2988 -0.1513
  114OSM   H13A11854   2.329   3.081  11.287 -0.9635 -0.2449 -1.2306
  114OSM   H13B11855   2.454   3.094  11.170 -1.8800  1.1048 -1.3979
  114OSM   H13C11856   2.446   2.953  11.273  2.7919  0.6407 -1.4160
  114OSM    C1211857   2.403   2.882  11.011  0.5056  0.6085 -0.3551
  114OSM   H12A11858   2.341   2.857  10.926 -0.2109  2.0883 -0.2930
  114OSM   H12B11859   2.441   2.791  11.055 -3.9682 -2.1917 -1.5010
  114OSM    C1111860   2.513   2.960  10.951 -0.7438  0.0045  0.8590
  114OSM   H11A11861   2.577   2.895  10.888 -1.4407  0.2201 -0.0962
  114OSM   H11B11862   2.585   2.991  11.030 -1.2177  0.1162  1.2495
  114OSM      P11863   2.403   3.066  10.746  0.3102 -0.0060 -0.2532
  114OSM    O1311864   2.255   3.081  10.754 -0.3620 -0.8948 -0.4174
  114OSM    O1411865   2.482   3.152  10.653 -0.0175  0.4485 -0.5475
  114OSM    O1111866   2.430   2.917  10.711  0.0869 -0.3684  0.0327
  114OSM    O1211867   2.463   3.081  10.892  0.3660  0.2376  0.4712
  114OSM    C1S11868   2.346   2.834  10.629 -0.7892 -0.4357 -0.1375
  114OSM    H1S11869   2.244   2.839  10.672 -0.2155  0.4882  1.1955
  114OSM    H1T11870   2.376   2.728  10.644 -0.9036 -0.2340  1.7414
  114OSM     NF11871   2.225   2.805  10.421 -0.2912  0.0693 -0.2202
  114OSM    HNF11872   2.233   2.711  10.389 -1.6427  0.1462 -0.8593
  114OSM    C2S11873   2.341   2.869  10.478  0.0577 -0.1869  0.4764
  114OSM    H2S11874   2.330   2.979  10.467 -1.9144 -0.2047  1.8472
  114OSM    C3S11875   2.469   2.827  10.399 -0.7480  0.7691 -0.2282
  114OSM    H3S11876   2.504   2.723  10.416  2.9690  1.2427 -3.6416
  114OSM     O311877   2.582   2.898  10.440  0.0175  0.2148  1.1612
  114OSM    HO311878   2.561   2.957  10.513 -1.1849  1.4422 -0.1127
  114OSM    C4S11879   2.457   2.854  10.249  0.1576  0.0395  0.6672
  114OSM    H4S11880   2.463   2.960  10.221  3.2551 -0.0671  0.5938
  114OSM    C5S11881   2.471   2.766  10.157 -0.3208  0.4420 -0.2558
  114OSM    H5S11882   2.469   2.658  10.178 -0.7444 -0.0050 -2.3881
  114OSM    C6S11883   2.467   2.780  10.005  0.0343  0.1074  0.7412
  114OSM    H6S11884   2.396   2.859   9.970  0.3550  0.6158  1.2217
  114OSM    H6T11885   2.434   2.695   9.942 -0.7927  0.7349  0.3054
  114OSM    C7S11886   2.606   2.827   9.952 -0.2012 -0.3025  0.5627
  114OSM    H7S11887   2.686   2.756   9.981 -0.5020  0.0908  2.4828
  114OSM    H7T11888   2.620   2.929   9.995  2.0237 -0.0704 -0.5348
  114OSM    C8S11889   2.607   2.842   9.795 -0.4995 -0.2505 -0.4120
  114OSM    H8S11890   2.514   2.886   9.752  0.4590  2.8467  0.3788
  114OSM    H8T11891   2.625   2.743   9.749 -1.8749 -0.3907 -0.6860
  114OSM    C9S11892   2.731   2.927   9.755  0.5234 -0.8196  0.0965
  114OSM    H9S11893   2.823   2.890   9.806 -0.0070 -1.3288  0.6878
  114OSM    H9T11894   2.731   3.031   9.793  0.0985 -0.6194 -0.4359
  114OSM   C10S11895   2.756   2.929   9.603 -0.4175 -0.6673 -0.5860
  114OSM   H10S11896   2.669   2.978   9.553 -1.1281 -1.3048 -0.0165
  114OSM   H10T11897   2.749   2.825   9.565 -1.8951 -1.4835  1.7190
  114OSM   C11S11898   2.882   2.996   9.564  0.0426 -1.3235  0.4842
  114OSM   H11S11899   2.970   2.947   9.611 -0.0798  0.2301  2.4566
  114OSM   H11T11900   2.869   3.101   9.599 -0.2249 -1.4759  0.8463
  114OSM   C12S11901   2.909   3.001   9.413  0.6539 -0.0181 -0.3622
  114OSM   H12S11902   2.874   3.099   9.373 -1.2784  0.4254  2.1338
  114OSM   H12T11903   2.841   2.930   9.363 -0.2952  0.4338  0.2620
  114OSM   C13S11904   3.049   2.965   9.375 -0.1787  1.3717  0.1640
  114OSM   H13S11905   3.055   2.854   9.384  0.3880  1.1316 -2.3529
  114OSM   H13T11906   3.125   3.013   9.440  0.2778 -1.6154  1.9917
  114OSM   C14S11907   3.074   2.999   9.222 -0.0276  0.0043  0.2344
  114OSM   H14S11908   3.004   2.931   9.168  1.6792 -1.2036 -0.5462
  114OSM   H14T11909   3.173   2.960   9.192 -0.2635  0.6429 -1.4766
  114OSM   C15S11910   3.079   3.148   9.180  0.1259  0.1280 -0.1676
  114OSM   H15S11911   3.130   3.212   9.254 -0.2925  1.0215 -0.6403
  114OSM   H15T11912   2.973   3.177   9.159  0.2194 -1.5899 -3.7409
  114OSM   C16S11913   3.165   3.151   9.048 -0.0783 -0.2091 -0.2847
  114OSM   H16S11914   3.115   3.069   8.992  1.4874 -1.8218  0.5605
  114OSM   H16T11915   3.271   3.123   9.063 -0.7114 -1.8246  1.5023
  114OSM   C17S11916   3.157   3.294   8.981 -0.1072 -0.5889 -0.3059
  114OSM   H17S11917   3.187   3.376   9.049  0.1094 -1.3863  0.5923
  114OSM   H17T11918   3.049   3.298   8.953  0.0772 -2.8286 -1.5856
  114OSM   C18S11919   3.240   3.300   8.860 -1.4344 -0.1210 -0.0431
  114OSM   H18S11920   3.346   3.282   8.886 -1.0290  0.6210 -1.1316
  114OSM   H18T11921   3.232   3.403   8.819 -0.9513  1.0741  2.6492
  114OSM   H18U11922   3.213   3.219   8.788 -0.9736 -0.4684  0.1703
  114OSM    C1F11923   2.111   2.865  10.417 -0.3442 -0.3007 -0.9510
  114OSM     OF11924   2.091   2.982  10.440 -0.0008 -0.6456 -0.1011
  114OSM    C2F11925   1.994   2.775  10.387 -0.5689  0.1576  0.4665
  114OSM    H2F11926   1.908   2.820  10.442 -0.5770  1.6008 -0.6749
  114OSM    H2G11927   2.012   2.671  10.422  2.6086  0.2194 -0.7526
  114OSM    C3F11928   1.949   2.795  10.239  0.5587  0.5018 -0.2491
  114OSM    H3F11929   1.940   2.904  10.219  2.4789  0.3344 -2.4859
  114OSM    H3G11930   1.854   2.741  10.226  0.6593  0.2673 -0.0236
  114OSM    C4F11931   2.041   2.724  10.138 -0.1162  0.1120  0.0997
  114OSM    H4F11932   2.046   2.613  10.136 -1.6555 -0.0014  1.1482
  114OSM    H4G11933   2.138   2.779  10.144 -1.5782  2.9026 -0.0616
  114OSM    C5F11934   2.010   2.752   9.987  0.7268 -0.5037  0.1652
  114OSM    H5F11935   1.979   2.857   9.971  0.3807 -0.2607  2.2429
  114OSM    H5G11936   1.930   2.679   9.963  0.1265  0.4796 -0.9175
  114OSM    C6F11937   2.123   2.728   9.886 -0.3916  0.3669  0.0402
  114OSM    H6F11938   2.163   2.625   9.899  3.9877  1.5797 -1.8744
  114OSM    H6G11939   2.212   2.793   9.898  1.0124 -1.8060  2.1446
  114OSM    C7F11940   2.070   2.742   9.739  0.4007  0.6121 -0.0278
  114OSM    H7F11941   2.048   2.850   9.728  0.7195  0.4019 -4.4715
  114OSM    H7G11942   1.979   2.679   9.739  0.4500  0.4982  1.5941
  114OSM    C8F11943   2.164   2.691   9.629 -0.4706 -0.3464  0.1409
  114OSM    H8F11944   2.102   2.684   9.538 -0.8810  0.5376  0.3474
  114OSM    H8G11945   2.189   2.584   9.645 -1.6501 -0.6320  0.1062
  114OSM    C9F11946   2.288   2.780   9.604  0.0410  0.3312 -0.4858
  114OSM    H9F11947   2.310   2.845   9.689 -0.8893  1.3046 -0.9658
  114OSM   C10F11948   2.361   2.791   9.492 -0.0518  0.1796  0.1074
  114OSM   H10F11949   2.432   2.875   9.486  2.2642 -1.7483 -2.4654
  114OSM   C11F11950   2.346   2.723   9.361  0.8693 -0.1682  0.8889
  114OSM   H11F11951   2.255   2.770   9.317  1.6157  0.7414  0.2906
  114OSM   H11G11952   2.323   2.614   9.369  1.8572 -0.5130 -0.6117
  114OSM   C12F11953   2.461   2.747   9.254  0.5137  0.6024  0.2419
  114OSM   H12F11954   2.462   2.857   9.240  2.8552  1.0113  2.7889
  114OSM   H12G11955   2.432   2.703   9.157  0.7228  0.0114  0.4417
  114OSM   C13F11956   2.604   2.704   9.296 -0.5825  0.3859 -0.1854
  114OSM   H13F11957   2.604   2.606   9.349  2.6182  0.7706  0.7491
  114OSM   H13G11958   2.651   2.777   9.365 -0.1152  1.0448 -1.1837
  114OSM   C14F11959   2.693   2.661   9.175  0.2670 -0.5485 -0.9839
  114OSM   H14F11960   2.797   2.626   9.194  0.2691 -1.0204 -1.8535
  114OSM   H14G11961   2.690   2.759   9.122 -1.6496  0.8853  1.5140
  114OSM   C15F11962   2.632   2.557   9.084  0.4045 -0.2700  0.4379
  114OSM   H15F11963   2.528   2.561   9.045  0.7032 -0.5090 -0.4191
  114OSM   H15G11964   2.638   2.459   9.136  0.6666  0.4304  1.7607
  114OSM   C16F11965   2.714   2.548   8.955  1.2841  0.4438 -0.5007
  114OSM   H16F11966   2.690   2.453   8.902  1.6041  0.7260 -1.1546
  114OSM   H16G11967   2.820   2.543   8.986  1.1168  0.3934  0.0910
  114OSM   C17F11968   2.684   2.663   8.850  0.3184  0.2454 -0.7775
  114OSM   H17F11969   2.725   2.758   8.891 -1.1068  0.9937 -1.0318
  114OSM   H17G11970   2.574   2.670   8.859  0.4111  0.8931  0.0485
  114OSM   C18F11971   2.722   2.638   8.701  0.3831  0.7386 -0.7215
  114OSM   H18F11972   2.831   2.617   8.689  0.2820  0.9631 -2.2189
  114OSM   H18G11973   2.714   2.724   8.631  0.6476 -0.1178 -1.8404
  114OSM   H18H11974   2.656   2.557   8.663 -1.1279  0.8931  1.4066
  115OSM      N11975   4.600   1.873  10.851 -0.1725  0.4753 -0.9374
  115OSM    C1511976   4.659   1.973  10.939 -0.2130  0.2020 -0.2207
  115OSM   H15A11977   4.628   2.069  10.900 -0.1827 -0.3112 -1.5294
  115OSM   H15B11978   4.767   1.974  10.937 -0.1066  1.2075  1.9262
  115OSM   H15C11979   4.635   1.955  11.043 -2.5235 -0.3035 -0.7910
  115OSM    C1411980   4.632   1.734  10.901 -0.6304 -0.1753  0.0372
  115OSM   H14A11981   4.590   1.658  10.836 -1.2634  0.9317 -0.8736
  115OSM   H14B11982   4.606   1.710  11.003  1.5263 -0.9684  0.4594
  115OSM   H14C11983   4.738   1.719  10.889 -0.7885 -1.2689 -0.1192
  115OSM    C1311984   4.450   1.889  10.846  0.4020 -0.4996 -0.0744
  115OSM   H13A11985   4.427   1.990  10.817  1.0588 -0.6160 -1.0409
  115OSM   H13B11986   4.404   1.875  10.943  2.1598 -1.3357  0.6940
  115OSM   H13C11987   4.412   1.816  10.776  1.1892  0.4823 -1.5597
  115OSM    C1211988   4.652   1.897  10.706  0.5642  0.0784  0.3610
  115OSM   H12A11989   4.644   1.999  10.672  1.6389  0.5756  1.5393
  115OSM   H12B11990   4.582   1.844  10.643 -1.6129 -0.6365  3.2166
  115OSM    C1111991   4.795   1.838  10.662  0.1579  0.6380  0.2624
  115OSM   H11A11992   4.805   1.880  10.560 -1.4186 -0.4485 -0.3722
  115OSM   H11B11993   4.799   1.727  10.663 -2.6909  0.4519 -1.5947
  115OSM      P11994   4.983   2.012  10.711 -0.1309  0.1770 -0.0266
  115OSM    O1311995   4.888   2.123  10.677 -0.5295  0.2110 -0.4316
  115OSM    O1411996   5.078   2.044  10.825  0.2990 -0.5937  0.4104
  115OSM    O1111997   5.063   1.958  10.589 -0.5762 -0.7857  0.1488
  115OSM    O1211998   4.900   1.885  10.757  0.2909 -0.8037  0.5705
  115OSM    C1S11999   5.118   1.822  10.582  0.0001 -0.7674  0.2951
  115OSM    H1S12000   5.054   1.746  10.632 -0.8445 -0.8812 -0.9147
  115OSM    H1T12001   5.218   1.827  10.632  0.4407  0.9963 -0.6641
  115OSM     NF12002   5.157   1.614  10.447  0.2179  0.2644  0.1218
  115OSM    HNF12003   5.253   1.585  10.442  0.1629  0.2301 -1.8321
  115OSM    C2S12004   5.127   1.761  10.437  0.2197  0.0963 -0.8194
  115OSM    H2S12005   5.027   1.779  10.391 -0.0156 -0.2887 -0.4700
  115OSM    C3S12006   5.239   1.845  10.366 -0.0977  0.0909  0.0250
  115OSM    H3S12007   5.328   1.862  10.431 -0.6298  1.4236  0.4222
  115OSM     O312008   5.209   1.980  10.336 -0.7046  0.2517 -0.3243
  115OSM    HO312009   5.118   1.989  10.366 -0.6176 -1.4411  0.5321
  115OSM    C4S12010   5.289   1.776  10.240 -0.0050 -0.1991  0.2859
  115OSM    H4S12011   5.215   1.774  10.159 -1.4500  2.2667  1.4574
  115OSM    C5S12012   5.408   1.723  10.222 -1.1792 -0.2234  0.2184
  115OSM    H5S12013   5.488   1.744  10.293  0.4644  0.6617 -1.7868
  115OSM    C6S12014   5.459   1.660  10.097 -0.4167 -0.2038 -0.2864
  115OSM    H6S12015   5.482   1.554  10.117  2.4801  0.4826  0.4868
  115OSM    H6T12016   5.555   1.715  10.092 -1.0320  1.2563  2.2640
  115OSM    C7S12017   5.404   1.677   9.956  0.1946 -0.3647  0.0763
  115OSM    H7S12018   5.431   1.776   9.914 -2.3628  0.4630  0.2145
  115OSM    H7T12019   5.293   1.677   9.955  0.0551 -0.8053 -4.2861
  115OSM    C8S12020   5.449   1.576   9.848  0.0556  1.0246  0.2949
  115OSM    H8S12021   5.422   1.476   9.886  0.9405 -0.0361 -1.7028
  115OSM    H8T12022   5.560   1.580   9.843  0.2036 -1.8462 -0.4538
  115OSM    C9S12023   5.386   1.585   9.711 -0.6737 -0.1311  0.3223
  115OSM    H9S12024   5.463   1.566   9.633  1.0198  2.1863  1.2943
  115OSM    H9T12025   5.340   1.683   9.685 -1.0356 -0.5476 -0.6725
  115OSM   C10S12026   5.266   1.493   9.675  0.4216  0.2196 -0.2774
  115OSM   H10S12027   5.171   1.539   9.708  1.0800  0.2116  1.7461
  115OSM   H10T12028   5.291   1.398   9.726  2.7241  1.3380  0.8515
  115OSM   C11S12029   5.243   1.472   9.528  0.2794 -0.2727  0.7117
  115OSM   H11S12030   5.332   1.438   9.470  0.0747 -1.3692  1.0273
  115OSM   H11T12031   5.223   1.574   9.489  1.1684 -0.7091 -1.0124
  115OSM   C12S12032   5.127   1.382   9.489 -0.2523  0.3458  0.4643
  115OSM   H12S12033   5.034   1.421   9.536 -2.0117  0.3786 -2.7539
  115OSM   H12T12034   5.158   1.282   9.528  0.0663  0.1139 -0.3702
  115OSM   C13S12035   5.086   1.372   9.345  0.1517  0.4286  0.6640
  115OSM   H13S12036   5.174   1.340   9.285  0.2291  0.2305  0.8839
  115OSM   H13T12037   5.063   1.477   9.317  0.7786  0.4835  0.3255
  115OSM   C14S12038   4.967   1.281   9.307 -0.6436  0.4149  0.4390
  115OSM   H14S12039   4.873   1.332   9.335  0.3855  3.3270 -1.0298
  115OSM   H14T12040   4.984   1.199   9.380 -1.0449 -0.3583 -0.3138
  115OSM   C15S12041   4.979   1.224   9.165 -0.2282 -0.2769  0.3638
  115OSM   H15S12042   4.889   1.167   9.133  0.1683  0.4962 -2.4032
  115OSM   H15T12043   5.078   1.178   9.145 -0.5006 -0.2856 -1.0618
  115OSM   C16S12044   4.998   1.347   9.056  0.3953  0.6650 -0.6532
  115OSM   H16S12045   5.044   1.299   8.967  0.7024 -2.3905  1.0159
  115OSM   H16T12046   5.082   1.410   9.090 -0.5840  1.0235  1.2282
  115OSM   C17S12047   4.870   1.413   9.024 -0.1963 -0.0727  0.5544
  115OSM   H17S12048   4.839   1.459   9.121 -1.8395 -0.9110  0.4574
  115OSM   H17T12049   4.792   1.336   9.009 -0.7501  0.5508  0.1543
  115OSM   C18S12050   4.872   1.514   8.911 -0.4419 -0.3660 -0.2461
  115OSM   H18S12051   4.777   1.544   8.863  1.2958  1.5910 -2.7315
  115OSM   H18T12052   4.944   1.491   8.830  1.8125 -0.7593  1.7598
  115OSM   H18U12053   4.901   1.607   8.965 -0.9395  0.0997 -0.7639
  115OSM    C1F12054   5.055   1.532  10.496  0.3078 -0.0940  0.1668
  115OSM     OF12055   4.934   1.560  10.470 -0.3393  0.0018 -0.6071
  115OSM    C2F12056   5.094   1.415  10.579  0.0438 -0.0840 -0.3742
  115OSM    H2F12057   5.045   1.420  10.679  0.1861 -2.8788 -0.0888
  115OSM    H2G12058   5.205   1.419  10.590  0.4592  1.2621 -3.9377
  115OSM    C3F12059   5.062   1.276  10.522 -0.2255 -0.0886  0.4298
  115OSM    H3F12060   4.969   1.271  10.462 -0.5587 -0.1346  0.9427
  115OSM    H3G12061   5.054   1.197  10.600 -1.5730  0.6036  1.0294
  115OSM    C4F12062   5.178   1.236  10.424 -0.3424  0.5168  0.5832
  115OSM    H4F12063   5.161   1.129  10.398 -0.1634  0.6878 -0.2678
  115OSM    H4G12064   5.275   1.224  10.477 -0.2296 -1.8500 -0.0341
  115OSM    C5F12065   5.197   1.302  10.287  0.1701  0.1560 -0.5441
  115OSM    H5F12066   5.289   1.256  10.244  1.0049 -1.7203  2.9282
  115OSM    H5G12067   5.210   1.412  10.297  0.0378 -0.0367  2.8676
  115OSM    C6F12068   5.087   1.276  10.187  0.4872 -0.2545  0.0080
  115OSM    H6F12069   4.987   1.293  10.233 -0.4971 -2.0899 -1.3081
  115OSM    H6G12070   5.086   1.168  10.162 -1.1031 -0.1448 -0.4654
  115OSM    C7F12071   5.115   1.333  10.053 -0.0338  0.1655  1.2192
  115OSM    H7F12072   5.042   1.299   9.976  1.7101  2.1271 -1.4429
  115OSM    H7G12073   5.215   1.299  10.019 -1.1062 -0.4935 -1.4720
  115OSM    C8F12074   5.097   1.485  10.056 -0.3259 -0.1748 -0.0023
  115OSM    H8F12075   5.124   1.524   9.956 -1.4603  0.3320 -0.1320
  115OSM    H8G12076   5.171   1.534  10.122  1.3180 -1.5959 -0.7188
  115OSM    C9F12077   4.956   1.533  10.081  0.0036  1.3517  0.2654
  115OSM    H9F12078   4.924   1.538  10.186 -1.8686  0.4665 -0.2264
  115OSM   C10F12079   4.866   1.571   9.990 -0.7576 -0.2058 -0.2607
  115OSM   H10F12080   4.772   1.596  10.042  0.1832  1.7603  0.5974
  115OSM   C11F12081   4.876   1.568   9.841  0.1454  0.4066 -0.3178
  115OSM   H11F12082   4.925   1.474   9.808  1.1556  0.9437 -0.3725
  115OSM   H11G12083   4.945   1.645   9.802  0.7658 -0.0461 -0.1248
  115OSM   C12F12084   4.734   1.572   9.770 -0.0311  0.0113  0.2258
  115OSM   H12F12085   4.710   1.679   9.786  0.9860  0.3855 -0.5940
  115OSM   H12G12086   4.663   1.503   9.820 -0.6107  0.1258 -0.4152
  115OSM   C13F12087   4.742   1.558   9.622  0.7255  0.1788  0.1460
  115OSM   H13F12088   4.638   1.554   9.584  1.3097 -3.0666 -1.4043
  115OSM   H13G12089   4.779   1.460   9.585 -0.6094  0.5235 -2.2841
  115OSM   C14F12090   4.821   1.676   9.554 -0.1842 -0.2632 -0.4104
  115OSM   H14F12091   4.929   1.658   9.573 -0.3935 -2.1364 -0.8760
  115OSM   H14G12092   4.799   1.776   9.597 -0.9318 -0.3853 -0.4962
  115OSM   C15F12093   4.793   1.678   9.403 -0.0323  0.6180 -0.0188
  115OSM   H15F12094   4.684   1.698   9.399 -0.4538 -1.4578 -0.5359
  115OSM   H15G12095   4.810   1.577   9.359 -0.8182  1.7496 -3.1973
  115OSM   C16F12096   4.862   1.791   9.339 -0.2620  0.0753  0.0070
  115OSM   H16F12097   4.970   1.769   9.353  0.5112  1.7437 -2.5654
  115OSM   H16G12098   4.837   1.886   9.391  0.5569  1.6957 -2.3914
  115OSM   C17F12099   4.827   1.793   9.189 -0.3227  0.0656 -1.0732
  115OSM   H17F12100   4.845   1.691   9.148  0.5112  0.1463 -0.9095
  115OSM   H17G12101   4.884   1.870   9.134  0.0562 -0.3269 -1.2354
  115OSM   C18F12102   4.678   1.831   9.175  0.5546 -0.1796  0.8584
  115OSM   H18F12103   4.612   1.764   9.234 -0.0826  0.0667  0.4310
  115OSM   H18G12104   4.652   1.828   9.067  2.3459  2.7019  0.2261
  115OSM   H18H12105   4.681   1.936   9.210 -1.4299 -0.0898  0.8244
  116OSM      N12106   1.850   5.808  11.165 -0.4378  0.1366  0.1243
  116OSM    C1512107   1.833   5.749  11.300 -0.4726 -0.9445 -0.0281
  116OSM   H15A12108   1.739   5.697  11.309 -1.1532 -0.1018 -1.7762
  116OSM   H15B12109   1.827   5.829  11.373 -0.6838 -0.3261 -0.7051
  116OSM   H15C12110   1.918   5.684  11.314 -1.2024 -2.2931 -1.5364
  116OSM    C1412111   1.971   5.895  11.166  0.0653 -0.5357 -0.5097
  116OSM   H14A12112   1.949   5.978  11.232 -1.8855 -1.9187  0.6756
  116OSM   H14B12113   2.001   5.929  11.069 -2.0414 -1.6751 -1.6362
  116OSM   H14C12114   2.058   5.844  11.206  2.1450  1.1177 -2.6362
  116OSM    C1312115   1.887   5.708  11.062 -0.1707 -0.5141 -0.2020
  116OSM   H13A12116   1.884   5.762  10.968  1.6204 -0.3387 -0.2004
  116OSM   H13B12117   1.819   5.624  11.060  1.3898 -1.8260 -1.6713
  116OSM   H13C12118   1.981   5.655  11.074 -0.6291 -1.4504 -0.6164
  116OSM    C1212119   1.733   5.874  11.114 -0.0016 -0.2163  0.2885
  116OSM   H12A12120   1.701   5.948  11.186  1.6504  1.5261 -0.6536
  116OSM   H12B12121   1.650   5.808  11.094 -1.3765  0.6133  2.8072
  116OSM    C1112122   1.734   5.961  10.977  0.0770  0.8667 -0.5268
  116OSM   H11A12123   1.814   6.039  10.982  1.2350 -0.2226 -1.2905
  116OSM   H11B12124   1.636   6.012  10.979  1.4451  3.7083 -0.5190
  116OSM      P12125   1.648   5.785  10.803  0.1279  0.7198 -0.1729
  116OSM    O1312126   1.666   5.643  10.855  0.9080 -0.2945  0.4682
  116OSM    O1412127   1.511   5.848  10.821  0.1064 -0.2225  0.1382
  116OSM    O1112128   1.677   5.800  10.648 -0.0776  0.0626 -0.3438
  116OSM    O1212129   1.763   5.877  10.863  0.1998 -0.3187  0.2287
  116OSM    C1S12130   1.714   5.926  10.582 -0.2187  0.4163 -0.3889
  116OSM    H1S12131   1.819   5.944  10.615  0.2094 -1.1615 -0.8260
  116OSM    H1T12132   1.665   6.021  10.615  1.3521  1.6418 -1.4281
  116OSM     NF12133   1.811   5.993  10.365  0.1363 -0.9394  0.5654
  116OSM    HNF12134   1.776   6.086  10.356  2.5702  0.1364  1.4360
  116OSM    C2S12135   1.709   5.905  10.431 -0.6102  0.0465  0.2174
  116OSM    H2S12136   1.743   5.799  10.423 -2.3210 -0.6027  1.1387
  116OSM    C3S12137   1.572   5.920  10.370  0.4249 -0.4583 -0.6941
  116OSM    H3S12138   1.527   6.020  10.386 -0.4304 -0.7962 -0.8948
  116OSM     O312139   1.481   5.829  10.431 -0.3315  0.8166  0.1708
  116OSM    HO312140   1.539   5.781  10.491  1.8729 -1.5178 -3.4583
  116OSM    C4S12141   1.580   5.913  10.220  0.5948 -0.1448 -0.1065
  116OSM    H4S12142   1.622   6.004  10.174  0.8907  0.0426  0.5211
  116OSM    C5S12143   1.565   5.804  10.146 -0.8645 -0.3932  0.6205
  116OSM    H5S12144   1.540   5.712  10.202 -2.1719 -2.0179 -2.4016
  116OSM    C6S12145   1.577   5.788   9.993  0.3313  0.4740 -0.7069
  116OSM    H6S12146   1.598   5.886   9.946 -0.4295  1.2979  0.6195
  116OSM    H6T12147   1.493   5.727   9.954  1.9445 -0.7657 -2.4326
  116OSM    C7S12148   1.709   5.713   9.967  0.6786 -0.1352 -0.2488
  116OSM    H7S12149   1.699   5.614  10.017 -2.6538 -0.1313 -0.6546
  116OSM    H7T12150   1.791   5.763  10.022  0.1166  0.5216  0.0016
  116OSM    C8S12151   1.748   5.706   9.821 -0.0837 -0.3139 -0.2256
  116OSM    H8S12152   1.832   5.634   9.815  0.2436 -0.3070  2.6605
  116OSM    H8T12153   1.781   5.807   9.789  1.2382 -0.9307 -0.8827
  116OSM    C9S12154   1.636   5.677   9.716 -0.1097  0.7823  0.7074
  116OSM    H9S12155   1.554   5.751   9.706 -1.6546 -0.8376  0.8159
  116OSM    H9T12156   1.594   5.575   9.733  2.4432 -0.6773 -1.0633
  116OSM   C10S12157   1.696   5.667   9.572 -0.8620 -0.8243 -0.5548
  116OSM   H10S12158   1.628   5.623   9.495 -0.0789 -0.3018 -1.5668
  116OSM   H10T12159   1.778   5.594   9.591 -0.7001 -0.0960  1.8404
  116OSM   C11S12160   1.747   5.802   9.520  0.3513  0.0052 -0.2054
  116OSM   H11S12161   1.779   5.866   9.605  1.0890 -1.8319  0.9650
  116OSM   H11T12162   1.665   5.854   9.466  0.5633  1.0619  0.4533
  116OSM   C12S12163   1.861   5.775   9.420  0.6923  0.3313 -0.2193
  116OSM   H12S12164   1.948   5.713   9.452  0.8465  0.4941 -0.3209
  116OSM   H12T12165   1.906   5.874   9.399  0.4852  0.2527 -1.0559
  116OSM   C13S12166   1.816   5.731   9.280  1.0099  0.0657  1.1652
  116OSM   H13S12167   1.734   5.793   9.241  1.3156 -1.8736 -3.0578
  116OSM   H13T12168   1.785   5.625   9.294  1.8930 -0.4864 -0.7395
  116OSM   C14S12169   1.927   5.737   9.179 -0.6203 -0.3756 -0.5450
  116OSM   H14S12170   2.014   5.673   9.206 -1.5160 -1.4072 -0.0137
  116OSM   H14T12171   1.958   5.843   9.179 -0.4964 -0.4087 -0.1085
  116OSM   C15S12172   1.900   5.689   9.035 -0.3983  0.1335  0.1323
  116OSM   H15S12173   1.793   5.687   9.005 -0.3635  0.0756  0.0139
  116OSM   H15T12174   1.936   5.584   9.028 -2.0776 -0.4611  0.0071
  116OSM   C16S12175   1.983   5.768   8.934 -0.1567  0.1297  0.7807
  116OSM   H16S12176   1.976   5.877   8.952  0.7489  0.5179 -0.9409
  116OSM   H16T12177   1.938   5.742   8.835 -0.3703 -0.9091  1.1408
  116OSM   C17S12178   2.136   5.728   8.930 -0.0372  0.3864  0.0484
  116OSM   H17S12179   2.143   5.618   8.916  0.3137  0.3538  0.4825
  116OSM   H17T12180   2.176   5.744   9.032  3.0497 -2.0936 -0.6364
  116OSM   C18S12181   2.224   5.795   8.827  0.1854 -0.0753  0.0870
  116OSM   H18S12182   2.177   5.784   8.727  1.0455  0.3778 -0.3847
  116OSM   H18T12183   2.325   5.750   8.839  1.3202  2.2740 -0.1211
  116OSM   H18U12184   2.242   5.904   8.839  1.4072  0.2931 -3.6597
  116OSM    C1F12185   1.939   5.971  10.364 -0.2370  0.5284  0.7358
  116OSM     OF12186   1.980   5.860  10.404 -0.9838 -0.0813 -0.2279
  116OSM    C2F12187   2.031   6.082  10.324 -0.0467 -0.4296  0.2648
  116OSM    H2F12188   2.115   6.079  10.397  0.4698 -0.6285 -0.3237
  116OSM    H2G12189   1.979   6.179  10.318  0.3660 -0.2743 -1.2939
  116OSM    C3F12190   2.097   6.053  10.189 -0.6072 -0.7453  0.1250
  116OSM    H3F12191   2.147   5.954  10.193  0.2051 -0.3629 -0.3859
  116OSM    H3G12192   2.162   6.138  10.163 -0.9739 -0.8852 -1.3325
  116OSM    C4F12193   1.993   6.053  10.075  0.0044  0.0720 -0.4895
  116OSM    H4F12194   1.926   6.142  10.075 -1.3786 -0.9308 -1.1225
  116OSM    H4G12195   1.927   5.967  10.098  0.4304  0.2505  1.6057
  116OSM    C5F12196   2.057   6.043   9.943 -0.2945  0.2309  1.0112
  116OSM    H5F12197   2.120   5.954   9.923 -1.6233 -0.0689 -2.3874
  116OSM    H5G12198   2.120   6.135   9.948  0.0491 -0.0420  1.9738
  116OSM    C6F12199   1.954   6.042   9.829 -0.7270  0.3081  0.5820
  116OSM    H6F12200   1.850   6.040   9.867 -1.8372  0.3724 -2.1656
  116OSM    H6G12201   1.958   5.954   9.760 -0.4648  0.6931  0.0992
  116OSM    C7F12202   1.965   6.157   9.728  0.2290  0.4557  0.5038
  116OSM    H7F12203   1.916   6.243   9.778  2.1808  0.4336  2.6689
  116OSM    H7G12204   1.911   6.143   9.632  0.9034  0.5009  0.1112
  116OSM    C8F12205   2.102   6.175   9.663  0.3918 -0.8518 -0.3140
  116OSM    H8F12206   2.177   6.206   9.739 -1.2811 -1.8636  1.8414
  116OSM    H8G12207   2.103   6.255   9.586 -0.7824 -1.4624 -0.9807
  116OSM    C9F12208   2.149   6.056   9.583 -0.2949  0.1867 -0.2626
  116OSM    H9F12209   2.102   5.960   9.608  0.2130 -0.1762 -0.6786
  116OSM   C10F12210   2.227   6.056   9.475 -0.0628  0.2790  0.8002
  116OSM   H10F12211   2.230   5.965   9.413 -0.4174  2.2981 -2.4428
  116OSM   C11F12212   2.292   6.175   9.401 -0.0592  0.3245 -0.0316
  116OSM   H11F12213   2.399   6.161   9.376  0.3454  1.4468  1.0000
  116OSM   H11G12214   2.294   6.255   9.478 -3.2283 -0.0249  0.5703
  116OSM   C12F12215   2.211   6.234   9.281  0.7388 -0.4171  0.5091
  116OSM   H12F12216   2.112   6.276   9.309  0.5328 -1.0925  0.8116
  116OSM   H12G12217   2.195   6.163   9.197 -2.4846 -0.2797  0.8746
  116OSM   C13F12218   2.298   6.351   9.233 -0.3564  0.0865 -0.8981
  116OSM   H13F12219   2.387   6.297   9.196 -0.5058 -1.2471  0.6075
  116OSM   H13G12220   2.312   6.427   9.312 -1.9536 -0.6534  0.1481
  116OSM   C14F12221   2.242   6.432   9.116 -0.0059 -1.2382 -0.1237
  116OSM   H14F12222   2.145   6.481   9.143 -0.5214  1.3556 -5.3969
  116OSM   H14G12223   2.220   6.366   9.029 -0.7294 -2.0016  0.6076
  116OSM   C15F12224   2.347   6.540   9.077 -0.5698 -0.0031  0.4339
  116OSM   H15F12225   2.441   6.485   9.052  0.4824  1.7194  0.3975
  116OSM   H15G12226   2.378   6.596   9.168  0.0568  0.9808 -0.3586
  116OSM   C16F12227   2.304   6.647   8.973 -0.1480  0.1217 -0.0282
  116OSM   H16F12228   2.213   6.698   9.011 -0.2676 -0.0674 -0.0564
  116OSM   H16G12229   2.277   6.588   8.882  0.5705 -1.0636  0.5083
  116OSM   C17F12230   2.415   6.752   8.939 -0.2241  0.4974  0.8010
  116OSM   H17F12231   2.498   6.687   8.905 -1.5700 -1.7626  1.6615
  116OSM   H17G12232   2.443   6.812   9.028 -0.8922  1.3036  0.4844
  116OSM   C18F12233   2.377   6.835   8.817 -0.0350  0.2745 -0.0178
  116OSM   H18F12234   2.463   6.895   8.781 -0.4370  0.4047 -0.7589
  116OSM   H18G12235   2.299   6.911   8.838 -0.9521 -0.5951 -0.1739
  116OSM   H18H12236   2.356   6.775   8.726 -1.7895  1.5895 -0.5329
  117OSM      N12237   6.760   6.484  10.749  0.4022 -0.7317  0.7276
  117OSM    C1512238   6.665   6.575  10.680 -0.2143 -0.2508 -0.4829
  117OSM   H15A12239   6.622   6.530  10.591 -0.9354  0.1347 -0.3390
  117OSM   H15B12240   6.707   6.674  10.668 -0.3070  0.0462  1.3237
  117OSM   H15C12241   6.581   6.592  10.745  0.4937 -2.2074  1.0509
  117OSM    C1412242   6.690   6.359  10.781  0.8645 -0.9218 -0.2907
  117OSM   H14A12243   6.626   6.337  10.697  0.9424  1.6334 -1.0849
  117OSM   H14B12244   6.631   6.370  10.871 -0.9030 -0.5365 -1.4383
  117OSM   H14C12245   6.764   6.287  10.812  1.6652  0.3275  0.7976
  117OSM    C1312246   6.866   6.462  10.645  0.1869  0.2298  0.6015
  117OSM   H13A12247   6.832   6.398  10.565 -0.6589 -0.7951  1.7303
  117OSM   H13B12248   6.951   6.415  10.694  0.5916 -0.1375 -0.4168
  117OSM   H13C12249   6.900   6.552  10.597 -1.3002  0.5138  0.0477
  117OSM    C1212250   6.833   6.545  10.868  0.9503 -0.9216 -0.4462
  117OSM   H12A12251   6.891   6.627  10.828 -1.4260  0.0466 -2.1099
  117OSM   H12B12252   6.912   6.474  10.886  1.6100  0.0514  0.6553
  117OSM    C1112253   6.752   6.573  11.000  0.0764  0.0305 -0.4809
  117OSM   H11A12254   6.831   6.602  11.073  0.0471  0.5153 -0.6448
  117OSM   H11B12255   6.707   6.481  11.045 -0.4050 -0.4903 -1.9608
  117OSM      P12256   6.678   6.830  10.966  0.3082 -0.2206  0.0608
  117OSM    O1312257   6.592   6.890  11.070  0.0363 -0.2709  0.3460
  117OSM    O1412258   6.820   6.861  10.972  0.5305 -0.2370  0.1537
  117OSM    O1112259   6.627   6.861  10.815 -0.1796 -0.1616 -0.8843
  117OSM    O1212260   6.652   6.675  10.980 -0.5937 -0.5505 -0.3734
  117OSM    C1S12261   6.678   6.972  10.740 -0.1535  0.2137  0.3137
  117OSM    H1S12262   6.789   6.972  10.741 -0.0895  0.3610 -1.7378
  117OSM    H1T12263   6.635   7.065  10.782 -2.5141 -1.0108  0.7681
  117OSM     NF12264   6.690   7.080  10.521 -0.6099 -0.6359 -0.1818
  117OSM    HNF12265   6.638   7.163  10.504  0.6790  0.6705  1.8000
  117OSM    C2S12266   6.628   6.973  10.592 -0.1355  0.3034  0.3658
  117OSM    H2S12267   6.645   6.878  10.536 -2.7051  0.7478 -1.3265
  117OSM    C3S12268   6.473   6.988  10.590 -0.4434  0.0550  0.3185
  117OSM    H3S12269   6.455   7.092  10.624  0.9625  0.2894  0.4087
  117OSM     O312270   6.393   6.896  10.670 -0.0784  0.2636 -0.2762
  117OSM    HO312271   6.453   6.831  10.707  0.8932  0.5872 -1.2298
  117OSM    C4S12272   6.434   6.972  10.449 -0.5806 -0.2795 -0.2648
  117OSM    H4S12273   6.434   6.869  10.411 -0.8386  0.5261 -2.5836
  117OSM    C5S12274   6.392   7.069  10.368 -0.4656 -0.1479  0.2692
  117OSM    H5S12275   6.399   7.173  10.403  0.2081  0.3057 -1.1375
  117OSM    C6S12276   6.346   7.067  10.226 -0.2157 -0.1171  0.8918
  117OSM    H6S12277   6.247   7.116  10.215 -1.3901 -2.4796  0.1113
  117OSM    H6T12278   6.323   6.965  10.188 -0.6290  1.8616 -5.3031
  117OSM    C7S12279   6.443   7.128  10.118  0.1540  0.1538  0.0110
  117OSM    H7S12280   6.551   7.108  10.136  0.4208 -0.6152 -2.1902
  117OSM    H7T12281   6.436   7.236  10.141  1.0312  0.3136 -0.4415
  117OSM    C8S12282   6.398   7.100   9.968 -0.4220  0.5378 -0.3515
  117OSM    H8S12283   6.293   7.136   9.958 -1.0237 -0.4440  1.8254
  117OSM    H8T12284   6.387   6.990   9.961 -0.4722  0.4658  0.7070
  117OSM    C9S12285   6.494   7.154   9.861  0.3689  0.3475  0.3235
  117OSM    H9S12286   6.594   7.105   9.866  0.2559  0.1084  0.2650
  117OSM    H9T12287   6.514   7.262   9.877  0.1732  0.4940 -0.3600
  117OSM   C10S12288   6.436   7.122   9.721 -0.1467 -0.0319  0.2878
  117OSM   H10S12289   6.333   7.164   9.719  0.1160  0.8476  2.3048
  117OSM   H10T12290   6.418   7.013   9.721  0.6475 -0.1926 -1.2396
  117OSM   C11S12291   6.516   7.174   9.600  0.0086  0.2742  0.2863
  117OSM   H11S12292   6.616   7.128   9.581  0.0065  0.7591 -0.9484
  117OSM   H11T12293   6.539   7.282   9.612 -0.7825  0.6548 -1.3842
  117OSM   C12S12294   6.427   7.165   9.471 -0.0872  0.0843  0.2996
  117OSM   H12S12295   6.333   7.219   9.494  1.7850  2.3476  3.2436
  117OSM   H12T12296   6.401   7.058   9.457  3.0949 -0.6343 -1.0122
  117OSM   C13S12297   6.502   7.214   9.345 -0.4232 -0.5815 -0.5941
  117OSM   H13S12298   6.593   7.152   9.329  0.5876 -0.2692  3.1272
  117OSM   H13T12299   6.538   7.319   9.351  0.6675 -1.0138  1.0839
  117OSM   C14S12300   6.424   7.198   9.212  0.5255  0.7582 -0.0098
  117OSM   H14S12301   6.321   7.239   9.223  0.1335  0.0676 -0.9865
  117OSM   H14T12302   6.405   7.090   9.201 -0.6479  0.5733  2.9188
  117OSM   C15S12303   6.493   7.264   9.097  0.2267  0.1550  0.4794
  117OSM   H15S12304   6.502   7.373   9.115  0.6054  0.0412  1.0153
  117OSM   H15T12305   6.437   7.247   9.002  1.1506  0.6030 -0.1620
  117OSM   C16S12306   6.635   7.207   9.064 -0.3066 -0.0308 -0.5359
  117OSM   H16S12307   6.623   7.097   9.059  0.7633 -0.3102  1.6590
  117OSM   H16T12308   6.712   7.216   9.144  1.5008 -5.4782 -1.2570
  117OSM   C17S12309   6.693   7.256   8.933  0.1105 -0.6974  0.1921
  117OSM   H17S12310   6.699   7.367   8.937 -0.8537 -0.6442  0.2971
  117OSM   H17T12311   6.613   7.237   8.858  1.9969 -0.5809 -1.9638
  117OSM   C18S12312   6.827   7.193   8.897  0.2391 -0.4631  0.2363
  117OSM   H18S12313   6.873   7.225   8.801 -1.1677 -1.8859 -0.9717
  117OSM   H18T12314   6.829   7.082   8.895 -0.4674 -0.4692 -0.8243
  117OSM   H18U12315   6.894   7.232   8.976  0.1178  0.3589 -0.0518
  117OSM    C1F12316   6.815   7.074  10.470 -0.1245 -0.1743 -0.1292
  117OSM     OF12317   6.892   6.988  10.504  0.0744 -0.6007 -0.0919
  117OSM    C2F12318   6.856   7.186  10.377 -0.2443 -0.4034  0.0828
  117OSM    H2F12319   6.961   7.211  10.406 -0.2217 -0.0010 -0.3338
  117OSM    H2G12320   6.789   7.272  10.398 -1.4501 -1.6198  1.4277
  117OSM    C3F12321   6.858   7.137  10.238 -0.2766  0.3734 -0.0442
  117OSM    H3F12322   6.759   7.099  10.207  0.2364  0.5660 -2.0472
  117OSM    H3G12323   6.940   7.065  10.216  1.0040  2.0051 -0.8079
  117OSM    C4F12324   6.893   7.239  10.136  0.2213 -0.0138  0.7167
  117OSM    H4F12325   7.003   7.252  10.143  0.1857  0.0635  1.1497
  117OSM    H4G12326   6.849   7.339  10.155  0.0830  0.2221 -0.7350
  117OSM    C5F12327   6.850   7.189   9.993 -0.2787 -0.0148 -0.3160
  117OSM    H5F12328   6.739   7.181   9.997 -0.3640 -0.1802 -2.1783
  117OSM    H5G12329   6.899   7.091   9.975 -1.5476 -0.9303  0.9456
  117OSM    C6F12330   6.883   7.285   9.875 -0.2328  0.0872  0.3190
  117OSM    H6F12331   6.987   7.320   9.891 -0.4752  0.4066  1.2769
  117OSM    H6G12332   6.824   7.379   9.884 -0.9835 -0.1128 -1.8056
  117OSM    C7F12333   6.873   7.213   9.735  0.2662 -0.2391 -0.0564
  117OSM    H7F12334   6.764   7.196   9.725  0.4658 -1.9280  0.3871
  117OSM    H7G12335   6.937   7.122   9.741  0.6956  0.1261  1.2547
  117OSM    C8F12336   6.906   7.302   9.616 -0.0349  0.6050  0.5539
  117OSM    H8F12337   6.846   7.395   9.626 -1.7851 -0.2424 -1.3059
  117OSM    H8G12338   6.870   7.249   9.525  0.3089  1.0280  0.1647
  117OSM    C9F12339   7.053   7.331   9.598  0.8032 -0.0968 -0.0730
  117OSM    H9F12340   7.094   7.377   9.688 -1.8186  0.5132  0.9068
  117OSM   C10F12341   7.133   7.297   9.497  0.1817  0.5470  0.8225
  117OSM   H10F12342   7.235   7.337   9.508  0.3416  1.4020 -2.6296
  117OSM   C11F12343   7.094   7.226   9.369 -0.7139 -0.0786 -0.1756
  117OSM   H11F12344   7.007   7.158   9.380  0.3333 -1.3534  0.4009
  117OSM   H11G12345   7.176   7.156   9.344 -1.5787 -0.6632 -1.4520
  117OSM   C12F12346   7.067   7.319   9.256 -0.2090  0.5607  0.0654
  117OSM   H12F12347   7.027   7.261   9.170  0.4403 -0.3101  0.3319
  117OSM   H12G12348   7.159   7.370   9.220  0.5889 -0.5401  0.4553
  117OSM   C13F12349   6.965   7.425   9.276  0.0260 -0.7175 -0.3863
  117OSM   H13F12350   6.995   7.493   9.359  1.1213 -2.1954  0.4782
  117OSM   H13G12351   6.876   7.367   9.307 -0.5457  0.9786  1.3382
  117OSM   C14F12352   6.932   7.502   9.150  0.2483 -0.5925  0.7477
  117OSM   H14F12353   6.853   7.568   9.190  2.1361  0.4790  2.9283
  117OSM   H14G12354   6.886   7.425   9.083  0.1558  0.1995 -0.1136
  117OSM   C15F12355   7.042   7.580   9.092 -0.0188 -0.5295 -0.1190
  117OSM   H15F12356   7.136   7.520   9.087 -0.3743 -1.0168 -1.1120
  117OSM   H15G12357   7.076   7.671   9.146 -0.3294 -1.1535  1.1768
  117OSM   C16F12358   7.004   7.600   8.946  0.3720  0.8855 -0.2875
  117OSM   H16F12359   6.894   7.611   8.935  0.0209 -0.7874  1.1982
  117OSM   H16G12360   7.037   7.514   8.885 -0.8812 -0.6837  1.1431
  117OSM   C17F12361   7.058   7.722   8.887 -0.2694 -0.2619  0.2954
  117OSM   H17F12362   7.166   7.699   8.900 -0.4195 -1.0240  0.2302
  117OSM   H17G12363   7.040   7.813   8.948  0.3506  0.1634 -0.1420
  117OSM   C18F12364   7.032   7.760   8.742 -0.1648 -0.1141 -0.3924
  117OSM   H18F12365   6.926   7.742   8.713 -0.7075  0.7547  0.9303
  117OSM   H18G12366   7.094   7.695   8.676 -1.8057 -1.8060 -0.3577
  117OSM   H18H12367   7.057   7.868   8.726 -1.3453 -0.0433 -2.0846
  118OSM      N12368   6.666   1.294  11.310  0.7360 -0.5916  0.2365
  118OSM    C1512369   6.527   1.246  11.262  0.0915 -0.3740 -0.0630
  118OSM   H15A12370   6.469   1.223  11.350  0.8200 -0.5922  0.3761
  118OSM   H15B12371   6.542   1.155  11.207  1.7530  0.2057 -0.6322
  118OSM   H15C12372   6.485   1.317  11.192 -1.8989 -0.0688  1.3450
  118OSM    C1412373   6.651   1.425  11.379 -0.3388 -0.1683 -0.0040
  118OSM   H14A12374   6.592   1.412  11.468 -0.2841 -1.5018 -0.1513
  118OSM   H14B12375   6.603   1.500  11.318  0.5608  0.4353  0.0103
  118OSM   H14C12376   6.748   1.458  11.415  0.6564  0.2073 -2.7598
  118OSM    C1312377   6.722   1.200  11.407 -0.6712  0.1556  0.0146
  118OSM   H13A12378   6.718   1.096  11.379 -1.1836  0.2232 -0.1668
  118OSM   H13B12379   6.671   1.201  11.502  1.6364 -0.8482  1.3599
  118OSM   H13C12380   6.819   1.234  11.441  0.0252 -1.1931 -0.5775
  118OSM    C1212381   6.754   1.303  11.190  0.0475 -0.9088  0.5152
  118OSM   H12A12382   6.763   1.210  11.136  1.1835 -1.2974  1.3176
  118OSM   H12B12383   6.847   1.345  11.225 -1.2325  2.3198  0.3342
  118OSM    C1112384   6.722   1.417  11.084  0.8709 -0.3509 -0.5935
  118OSM   H11A12385   6.810   1.441  11.020  0.0513 -0.4274 -1.7720
  118OSM   H11B12386   6.694   1.510  11.138 -2.3847  0.0324 -2.6541
  118OSM      P12387   6.596   1.257  10.905  0.0016 -0.0987 -0.0436
  118OSM    O1312388   6.716   1.169  10.929  1.0643  0.2563  0.2836
  118OSM    O1412389   6.471   1.191  10.936 -0.1069  0.0495 -0.4313
  118OSM    O1112390   6.593   1.316  10.759 -0.1273  0.0382  0.0783
  118OSM    O1212391   6.611   1.382  10.994 -0.1984 -0.5183  0.0884
  118OSM    C1S12392   6.698   1.388  10.699 -0.0634 -1.1661 -0.0400
  118OSM    H1S12393   6.794   1.333  10.705  0.6244 -0.3728 -2.6384
  118OSM    H1T12394   6.727   1.482  10.751 -1.2509 -1.6805  1.6476
  118OSM     NF12395   6.786   1.449  10.479  0.0654  0.0196 -0.2037
  118OSM    HNF12396   6.814   1.541  10.450 -0.4492 -0.3481 -2.0261
  118OSM    C2S12397   6.661   1.430  10.551 -0.6265 -0.0726 -1.0285
  118OSM    H2S12398   6.611   1.337  10.514  0.4905 -1.8049  1.4955
  118OSM    C3S12399   6.554   1.540  10.564 -0.2139 -1.1848  0.2801
  118OSM    H3S12400   6.605   1.622  10.619  0.8364 -1.6340  0.0040
  118OSM     O312401   6.446   1.511  10.650 -0.1125 -0.3056 -0.3499
  118OSM    HO312402   6.468   1.425  10.688  0.1930 -0.2160 -0.3197
  118OSM    C4S12403   6.513   1.575  10.429 -0.3752  0.3727  0.4168
  118OSM    H4S12404   6.580   1.641  10.372  0.1202 -1.2484 -0.9302
  118OSM    C5S12405   6.408   1.537  10.363  0.5328  1.0827  0.5218
  118OSM    H5S12406   6.323   1.492  10.417 -0.2123 -0.4594 -1.7771
  118OSM    C6S12407   6.364   1.580  10.228 -0.1085 -0.0798 -1.0185
  118OSM    H6S12408   6.261   1.620  10.236  0.2582  0.5162  1.9408
  118OSM    H6T12409   6.359   1.493  10.159  0.8858 -0.5924 -0.4635
  118OSM    C7S12410   6.456   1.674  10.150  0.0668  0.3994  0.2276
  118OSM    H7S12411   6.554   1.621  10.144 -0.3804 -0.4790  0.6659
  118OSM    H7T12412   6.461   1.772  10.202  2.5113  1.1946 -1.2857
  118OSM    C8S12413   6.406   1.720  10.016  0.5057 -0.3997 -0.1737
  118OSM    H8S12414   6.431   1.826   9.995 -1.1755 -0.1025 -0.8123
  118OSM    H8T12415   6.295   1.720  10.009  0.5855 -1.7799 -2.0472
  118OSM    C9S12416   6.451   1.635   9.894 -0.2999  0.3418 -0.4796
  118OSM    H9S12417   6.425   1.528   9.906  1.7368 -0.3445 -1.6965
  118OSM    H9T12418   6.562   1.640   9.889 -0.2007 -2.1019 -2.3500
  118OSM   C10S12419   6.420   1.702   9.760 -0.2508 -0.4562 -0.1383
  118OSM   H10S12420   6.463   1.804   9.767  0.6305 -0.8248 -0.1323
  118OSM   H10T12421   6.309   1.707   9.764 -0.2500 -1.0781  1.0019
  118OSM   C11S12422   6.478   1.631   9.640 -0.4872  0.7143  0.0644
  118OSM   H11S12423   6.443   1.526   9.633  4.1450 -0.8840 -3.3135
  118OSM   H11T12424   6.589   1.631   9.645 -0.3275 -3.7398  0.7627
  118OSM   C12S12425   6.439   1.713   9.517 -0.7055  0.6262 -0.4655
  118OSM   H12S12426   6.465   1.820   9.522  0.7174  0.3164 -0.7968
  118OSM   H12T12427   6.329   1.703   9.506 -0.5417 -1.1193 -0.9009
  118OSM   C13S12428   6.507   1.663   9.383  0.3431  0.1278  0.6617
  118OSM   H13S12429   6.525   1.554   9.389  0.8223  0.0140 -1.6314
  118OSM   H13T12430   6.609   1.707   9.382 -0.5780  2.3975  0.7189
  118OSM   C14S12431   6.432   1.726   9.265 -0.9820  0.1492  1.0417
  118OSM   H14S12432   6.418   1.834   9.285 -1.9372 -0.0706  1.6331
  118OSM   H14T12433   6.331   1.680   9.255 -0.8455 -0.2480  1.4586
  118OSM   C15S12434   6.514   1.709   9.132  0.1497 -0.1142 -0.0641
  118OSM   H15S12435   6.532   1.599   9.127 -0.9465 -0.3147  0.0587
  118OSM   H15T12436   6.611   1.763   9.135  0.3848 -0.4372 -1.2751
  118OSM   C16S12437   6.431   1.748   9.012  0.4693 -0.0037 -0.6005
  118OSM   H16S12438   6.403   1.856   9.011 -1.9550 -0.5767 -0.8154
  118OSM   H16T12439   6.340   1.685   9.021  0.6630 -0.4467 -1.5796
  118OSM   C17S12440   6.505   1.705   8.885  0.0888  0.4840  0.2580
  118OSM   H17S12441   6.441   1.683   8.797  0.1379  3.7848 -0.7430
  118OSM   H17T12442   6.558   1.609   8.905 -0.1961 -0.2742 -2.2178
  118OSM   C18S12443   6.609   1.801   8.837 -0.2214  0.3535  0.2168
  118OSM   H18S12444   6.642   1.771   8.735  0.4079 -1.7287  0.9899
  118OSM   H18T12445   6.707   1.807   8.888  0.4049 -0.0777 -0.8934
  118OSM   H18U12446   6.564   1.902   8.824 -0.7138  0.0094 -0.8578
  118OSM    C1F12447   6.865   1.345  10.447  0.1508  1.1776  0.8110
  118OSM     OF12448   6.844   1.228  10.477 -0.3338 -0.0683 -0.3336
  118OSM    C2F12449   6.979   1.380  10.356  0.5328  0.1066  0.0271
  118OSM    H2F12450   7.053   1.426  10.425  0.9129  3.0414 -2.1218
  118OSM    H2G12451   6.966   1.464  10.285 -1.7941  2.0954  2.5710
  118OSM    C3F12452   7.035   1.251  10.295 -0.0439 -0.5133  0.4305
  118OSM    H3F12453   6.962   1.203  10.227 -0.5930  0.0037  0.6448
  118OSM    H3G12454   7.061   1.191  10.385  0.9195 -0.0315  0.4953
  118OSM    C4F12455   7.168   1.273  10.223  0.0767  0.3449  0.0466
  118OSM    H4F12456   7.229   1.180  10.226  1.9137  1.4936 -0.3023
  118OSM    H4G12457   7.230   1.355  10.266 -1.1282  1.4120 -0.1972
  118OSM    C5F12458   7.151   1.303  10.076 -0.3892 -0.7178  0.4911
  118OSM    H5F12459   7.099   1.401  10.070 -0.9018 -0.9261  1.3637
  118OSM    H5G12460   7.108   1.220  10.015 -0.1344 -0.1009 -0.5566
  118OSM    C6F12461   7.297   1.324  10.019 -0.2137  0.4760  0.0334
  118OSM    H6F12462   7.365   1.237  10.033  0.3530  0.6902 -1.2622
  118OSM    H6G12463   7.344   1.413  10.067  0.0502  0.3152  0.0758
  118OSM    C7F12464   7.297   1.350   9.874 -0.1257 -0.3342 -0.6880
  118OSM    H7F12465   7.213   1.295   9.826 -1.1223 -0.0205  0.5992
  118OSM    H7G12466   7.393   1.303   9.844  0.3638 -0.7901  1.4025
  118OSM    C8F12467   7.297   1.497   9.835  0.0185  0.3072  0.9757
  118OSM    H8F12468   7.382   1.547   9.887 -0.1094 -0.0967  1.5859
  118OSM    H8G12469   7.212   1.551   9.883 -0.1717  0.3929  0.5460
  118OSM    C9F12470   7.323   1.520   9.683 -0.5496 -0.2271  0.0934
  118OSM    H9F12471   7.427   1.523   9.649 -0.8152 -0.6109 -0.8017
  118OSM   C10F12472   7.229   1.539   9.591  0.0387  0.2022 -0.4556
  118OSM   H10F12473   7.247   1.572   9.487 -0.1027 -0.5114 -0.7095
  118OSM   C11F12474   7.079   1.540   9.624 -0.3400 -0.2887 -0.5406
  118OSM   H11F12475   7.035   1.642   9.622 -0.1637 -0.2256 -2.4564
  118OSM   H11G12476   7.052   1.500   9.725  1.0848 -0.6470 -0.2849
  118OSM   C12F12477   7.006   1.456   9.525  0.1324 -0.4581  0.9415
  118OSM   H12F12478   7.041   1.351   9.527 -1.6122 -1.0642  2.8702
  118OSM   H12G12479   7.036   1.507   9.431  0.1181 -2.0411  0.0452
  118OSM   C13F12480   6.853   1.449   9.534  0.9084  0.2122 -0.2359
  118OSM   H13F12481   6.828   1.364   9.467  0.5112 -0.5302  0.8272
  118OSM   H13G12482   6.810   1.540   9.486 -3.4577 -1.5512 -0.1614
  118OSM   C14F12483   6.784   1.421   9.668  0.0976  0.6673  0.7428
  118OSM   H14F12484   6.675   1.414   9.652  0.4794 -1.0374 -1.6577
  118OSM   H14G12485   6.817   1.507   9.731 -0.2304  0.5779  1.0365
  118OSM   C15F12486   6.842   1.287   9.729 -0.5683  0.3561  0.7279
  118OSM   H15F12487   6.947   1.301   9.763 -1.0862  0.9475  2.1998
  118OSM   H15G12488   6.832   1.198   9.663 -1.0953  0.2416  0.9616
  118OSM   C16F12489   6.778   1.236   9.857  0.0637  0.3837  0.1369
  118OSM   H16F12490   6.820   1.138   9.888  0.2958  0.2317 -0.6369
  118OSM   H16G12491   6.671   1.214   9.843  0.4472 -1.3146 -0.2916
  118OSM   C17F12492   6.783   1.342   9.962 -0.6285  0.2459 -0.3522
  118OSM   H17F12493   6.738   1.433   9.915  2.8734  1.7243 -1.1529
  118OSM   H17G12494   6.890   1.371   9.973 -0.7449  0.7963 -0.6101
  118OSM   C18F12495   6.711   1.312  10.091  0.6988 -0.1993 -0.1872
  118OSM   H18F12496   6.766   1.232  10.145 -0.9506 -0.7256  0.8237
  118OSM   H18G12497   6.605   1.282  10.075  0.8163 -0.0649 -1.2250
  118OSM   H18H12498   6.704   1.397  10.162 -1.7092 -1.4153  1.1849
  119OSM      N12499   0.921   0.848  11.287 -0.4086  0.2019  0.4629
  119OSM    C1512500   1.064   0.885  11.262  0.0078 -0.0868  0.3678
  119OSM   H15A12501   1.107   0.791  11.230 -1.7677 -0.7659 -0.1746
  119OSM   H15B12502   1.102   0.923  11.356 -2.1178 -0.2790  1.3648
  119OSM   H15C12503   1.083   0.957  11.184 -0.1339  0.2187  0.6175
  119OSM    C1412504   0.909   0.756  11.409 -0.1131 -0.3960 -0.0837
  119OSM   H14A12505   0.941   0.809  11.497 -0.3183 -0.2397 -0.1002
  119OSM   H14B12506   0.965   0.665  11.399  0.4502 -0.3308  1.9611
  119OSM   H14C12507   0.805   0.733  11.430 -0.2255  1.0363  1.1092
  119OSM    C1312508   0.848   0.969  11.330 -0.0610 -0.1339 -0.2984
  119OSM   H13A12509   0.744   0.945  11.344  0.3087 -1.5293  0.1779
  119OSM   H13B12510   0.860   1.041  11.250  0.8321 -0.2020 -0.2455
  119OSM   H13C12511   0.883   1.008  11.425  0.5264  1.1040 -1.0028
  119OSM    C1212512   0.858   0.779  11.166  0.1966  0.4908 -0.0529
  119OSM   H12A12513   0.756   0.754  11.191  0.5437 -1.1178 -0.1215
  119OSM   H12B12514   0.902   0.681  11.160  0.4250  0.6037 -0.2407
  119OSM    C1112515   0.857   0.856  11.032  0.2777  0.0914  0.3684
  119OSM   H11A12516   0.805   0.791  10.959 -1.9235  1.7355  0.3500
  119OSM   H11B12517   0.959   0.891  11.004  0.5525  0.0598  1.3033
  119OSM      P12518   0.632   0.991  10.987 -0.0336 -0.0580  0.0162
  119OSM    O1312519   0.551   0.886  11.058 -0.2753  0.2492 -0.1480
  119OSM    O1412520   0.582   1.129  11.004  0.1326  0.4573 -0.0439
  119OSM    O1112521   0.659   0.953  10.837  0.0806  0.3758 -0.1443
  119OSM    O1212522   0.776   0.980  11.046  0.0610  0.0944  0.4224
  119OSM    C1S12523   0.579   0.852  10.778 -0.1619 -0.0573 -0.1147
  119OSM    H1S12524   0.472   0.867  10.804 -0.1767  0.5773 -0.5211
  119OSM    H1T12525   0.614   0.753  10.815  2.9432  0.9042 -0.1895
  119OSM     NF12526   0.536   0.736  10.565  0.0666  0.0732 -0.3880
  119OSM    HNF12527   0.591   0.656  10.547 -0.5400 -0.0960 -1.5498
  119OSM    C2S12528   0.609   0.850  10.629  0.1301  0.0262  0.5116
  119OSM    H2S12529   0.560   0.944  10.595  0.1487 -0.3045 -0.4678
  119OSM    C3S12530   0.760   0.849  10.590  0.0943  0.0396  0.0071
  119OSM    H3S12531   0.802   0.748  10.608 -0.0455 -0.2745 -1.3028
  119OSM     O312532   0.853   0.917  10.670 -0.6839 -0.3007  0.3715
  119OSM    HO312533   0.799   0.923  10.750 -0.5594  1.0284  0.3702
  119OSM    C4S12534   0.771   0.886  10.448  0.0618  0.0840  0.3740
  119OSM    H4S12535   0.712   0.811  10.391 -1.5277  0.4104  1.5180
  119OSM    C5S12536   0.820   0.999  10.391 -0.3905 -0.2931 -0.0519
  119OSM    H5S12537   0.887   1.059  10.454  0.5963 -2.0309  0.6156
  119OSM    C6S12538   0.813   1.037  10.250 -0.9116  0.5237 -0.1237
  119OSM    H6S12539   0.903   1.017  10.190 -1.4635 -0.1593 -0.7411
  119OSM    H6T12540   0.805   1.147  10.241  2.0043  0.8332  0.1254
  119OSM    C7S12541   0.704   0.963  10.169 -0.4554  0.2183  0.7954
  119OSM    H7S12542   0.609   1.004  10.209 -0.0890  1.8502  0.0994
  119OSM    H7T12543   0.717   0.854  10.182 -0.2970  0.1412  0.0354
  119OSM    C8S12544   0.711   0.986  10.015 -0.0241  0.2630  0.1371
  119OSM    H8S12545   0.734   1.093   9.996 -1.4374  1.7297  5.0192
  119OSM    H8T12546   0.617   0.951   9.967 -1.0227 -1.3905  3.0268
  119OSM    C9S12547   0.824   0.900   9.953 -0.3641 -0.3617  0.1092
  119OSM    H9S12548   0.809   0.795   9.988 -0.9354 -0.4278 -0.3215
  119OSM    H9T12549   0.925   0.935   9.982  0.2728 -2.4200  0.5265
  119OSM   C10S12550   0.823   0.878   9.797  1.1104 -0.6222  0.0606
  119OSM   H10S12551   0.731   0.818   9.780  1.8118 -1.5823 -0.4641
  119OSM   H10T12552   0.900   0.802   9.770  0.2794 -1.2717 -0.5531
  119OSM   C11S12553   0.816   1.002   9.705 -0.0404 -0.1556 -0.2485
  119OSM   H11S12554   0.884   1.083   9.736 -0.2508 -0.4717  1.0978
  119OSM   H11T12555   0.711   1.037   9.705  0.1566  0.5045  1.3936
  119OSM   C12S12556   0.846   0.961   9.564 -0.2431  0.8040  0.5881
  119OSM   H12S12557   0.751   0.913   9.532  0.2850 -0.1322  0.3773
  119OSM   H12T12558   0.917   0.875   9.567 -0.9998  0.1918  1.4702
  119OSM   C13S12559   0.895   1.075   9.475  0.4983  0.2239  0.1463
  119OSM   H13S12560   0.983   1.120   9.526  1.8097  0.8927 -2.4872
  119OSM   H13T12561   0.813   1.148   9.460 -2.0233 -2.4168  0.2863
  119OSM   C14S12562   0.948   1.045   9.331 -0.1125  0.1593 -0.3682
  119OSM   H14S12563   0.868   0.991   9.275 -2.3336  2.4058  0.4743
  119OSM   H14T12564   1.041   0.984   9.336  0.5359  1.1848  0.3891
  119OSM   C15S12565   0.966   1.175   9.258 -1.0661  0.8521 -0.0229
  119OSM   H15S12566   1.043   1.236   9.310  1.9199 -1.6221 -1.2600
  119OSM   H15T12567   0.879   1.245   9.258 -0.1017  2.0850 -0.9067
  119OSM   C16S12568   1.012   1.148   9.116 -0.2102  0.0844  0.6848
  119OSM   H16S12569   0.930   1.095   9.063  1.0642 -1.2178 -0.0937
  119OSM   H16T12570   1.105   1.087   9.116  1.3500  2.3340  0.0617
  119OSM   C17S12571   1.043   1.284   9.039 -0.1570  0.1675  0.1984
  119OSM   H17S12572   1.095   1.359   9.103 -1.1588  1.5154 -0.5020
  119OSM   H17T12573   0.943   1.329   9.021  0.3538  0.8816 -0.9955
  119OSM   C18S12574   1.123   1.264   8.904 -0.0138  0.7169  0.0527
  119OSM   H18S12575   1.073   1.192   8.835  2.0362 -0.8165  0.0682
  119OSM   H18T12576   1.230   1.234   8.910  0.0401  0.9714  0.3701
  119OSM   H18U12577   1.132   1.361   8.853  1.4758  1.6632  1.9794
  119OSM    C1F12578   0.402   0.743  10.544 -0.9598  0.1144 -0.5172
  119OSM     OF12579   0.334   0.837  10.574 -0.2861  0.1623  0.1299
  119OSM    C2F12580   0.338   0.620  10.468 -0.0446  0.0655 -0.5249
  119OSM    H2F12581   0.275   0.563  10.540  1.1747  0.8083  1.1874
  119OSM    H2G12582   0.420   0.560  10.423  0.4157  0.2247  0.0937
  119OSM    C3F12583   0.244   0.684  10.364  0.1242 -0.0633 -0.5106
  119OSM    H3F12584   0.175   0.757  10.412  0.5649  0.0916 -0.1086
  119OSM    H3G12585   0.206   0.603  10.297 -0.1245 -0.9270  0.6321
  119OSM    C4F12586   0.317   0.776  10.258  0.1263 -0.2199  0.4016
  119OSM    H4F12587   0.379   0.699  10.206 -2.9934 -2.2207 -0.7015
  119OSM    H4G12588   0.390   0.849  10.297 -0.9135  0.1585  1.7031
  119OSM    C5F12589   0.224   0.836  10.150  0.3140 -0.2616 -0.4508
  119OSM    H5F12590   0.158   0.917  10.188  0.1872 -1.1742  1.3457
  119OSM    H5G12591   0.158   0.753  10.118  0.4316 -0.6245  0.2521
  119OSM    C6F12592   0.294   0.873  10.018  0.2296  0.3612  0.0856
  119OSM    H6F12593   0.324   0.778   9.970 -0.2946  0.9086 -1.3889
  119OSM    H6G12594   0.390   0.929  10.027  1.4402 -1.2304 -1.8775
  119OSM    C7F12595   0.204   0.950   9.911 -0.2465  0.1464 -0.0311
  119OSM    H7F12596   0.157   1.044   9.949 -1.3884  1.7419 -4.7094
  119OSM    H7G12597   0.123   0.886   9.872 -0.8763  1.4971 -1.0552
  119OSM    C8F12598   0.290   1.004   9.797 -0.9819  0.3288  0.3065
  119OSM    H8F12599   0.367   1.075   9.836 -1.3097  0.4674  0.7001
  119OSM    H8G12600   0.222   1.069   9.738  1.7014  1.7318 -1.4989
  119OSM    C9F12601   0.354   0.898   9.707  0.1542  0.5144 -0.6744
  119OSM    H9F12602   0.405   0.820   9.765  4.0560  2.2133 -1.4867
  119OSM   C10F12603   0.351   0.871   9.574  0.6058  0.2258  0.1916
  119OSM   H10F12604   0.413   0.796   9.523 -1.3387 -0.0555 -1.9386
  119OSM   C11F12605   0.272   0.953   9.473 -0.7810  0.6875 -0.8262
  119OSM   H11F12606   0.166   0.963   9.505 -0.2785  2.8160  0.3695
  119OSM   H11G12607   0.257   0.890   9.383 -3.2530 -2.5749  1.6107
  119OSM   C12F12608   0.343   1.085   9.425 -0.3223  0.4540 -0.1435
  119OSM   H12F12609   0.339   1.162   9.505  0.2181 -2.1115  2.5455
  119OSM   H12G12610   0.277   1.124   9.345  0.8729  0.2628 -1.2627
  119OSM   C13F12611   0.484   1.055   9.369  0.7330  0.0574  0.1815
  119OSM   H13F12612   0.477   0.972   9.296  2.5300  1.3904 -1.6200
  119OSM   H13G12613   0.558   1.036   9.450  1.5669 -0.2229 -0.6339
  119OSM   C14F12614   0.551   1.174   9.294  0.0300  0.0327  0.4927
  119OSM   H14F12615   0.640   1.148   9.232 -1.4951 -0.1768 -1.7532
  119OSM   H14G12616   0.578   1.257   9.363 -0.1433  2.1002 -1.7956
  119OSM   C15F12617   0.461   1.229   9.175  0.5402  0.6697  0.4184
  119OSM   H15F12618   0.380   1.288   9.221  0.7056  1.2888 -0.0549
  119OSM   H15G12619   0.419   1.146   9.115 -1.5317  2.4567 -0.7492
  119OSM   C16F12620   0.536   1.307   9.069  0.6139  0.3910 -0.8230
  119OSM   H16F12621   0.606   1.236   9.019 -1.2993 -1.1725 -1.3934
  119OSM   H16G12622   0.591   1.386   9.126 -2.4248  0.4624  2.3623
  119OSM   C17F12623   0.456   1.377   8.961 -0.6061  0.8729  0.7627
  119OSM   H17F12624   0.534   1.442   8.915  1.8274 -1.4538  1.3049
  119OSM   H17G12625   0.365   1.422   9.007 -0.1148  1.5669  1.0775
  119OSM   C18F12626   0.394   1.280   8.860  0.2266  0.5412  0.8426
  119OSM   H18F12627   0.342   1.335   8.778  2.9992  0.5614 -1.0313
  119OSM   H18G12628   0.315   1.212   8.899  0.4592 -0.8456 -0.9329
  119OSM   H18H12629   0.474   1.216   8.817 -1.0584 -0.7611  0.2901
  120OSM      N12630   1.324   4.101  10.686 -0.4845  0.1595 -0.1947
  120OSM    C1512631   1.404   4.217  10.638 -0.4004 -0.7693 -0.0761
  120OSM   H15A12632   1.458   4.271  10.714 -1.3454  1.4571 -0.9168
  120OSM   H15B12633   1.342   4.280  10.577 -1.6294 -4.5308 -3.1467
  120OSM   H15C12634   1.488   4.181  10.580  0.9342  1.0757  0.6171
  120OSM    C1412635   1.237   4.136  10.803 -0.1677  0.4384  0.3148
  120OSM   H14A12636   1.171   4.217  10.776 -2.0190 -1.1498 -0.1530
  120OSM   H14B12637   1.300   4.166  10.886 -0.5488  0.8712  0.4523
  120OSM   H14C12638   1.177   4.057  10.844  0.3959  1.0849  2.5143
  120OSM    C1312639   1.230   4.070  10.564  0.6897  0.3224 -0.3823
  120OSM   H13A12640   1.145   4.136  10.558  0.5349  0.1021 -0.6133
  120OSM   H13B12641   1.179   3.977  10.580  0.4787  0.8517  2.7044
  120OSM   H13C12642   1.272   4.082  10.465 -1.0702  2.7421 -0.9237
  120OSM    C1212643   1.411   3.979  10.711  0.8933  1.3622  0.0756
  120OSM   H12A12644   1.355   3.887  10.716  0.9394  1.3870  1.4238
  120OSM   H12B12645   1.466   3.988  10.803  0.3610  1.4371  0.3907
  120OSM    C1112646   1.510   3.955  10.593 -0.3994  0.2886 -0.0493
  120OSM   H11A12647   1.601   4.009  10.625  0.9238 -0.1238 -2.7514
  120OSM   H11B12648   1.484   3.991  10.491 -1.1718 -0.5183 -0.1497
  120OSM      P12649   1.446   3.699  10.562  0.5485 -0.1744  0.3358
  120OSM    O1312650   1.511   3.569  10.561  0.1279  0.2091 -0.3064
  120OSM    O1412651   1.328   3.701  10.655 -0.4010  0.0484  0.1868
  120OSM    O1112652   1.394   3.736  10.414 -0.8775 -0.0154 -0.4050
  120OSM    O1212653   1.551   3.813  10.593 -0.8903 -0.5367  0.0474
  120OSM    C1S12654   1.488   3.717  10.316  0.6077 -0.2034  0.3725
  120OSM    H1S12655   1.514   3.609  10.312 -3.0403 -1.2410  1.3038
  120OSM    H1T12656   1.579   3.778  10.333 -0.5952  1.5491  0.7469
  120OSM     NF12657   1.556   3.762  10.085 -0.0764  0.1996  0.2421
  120OSM    HNF12658   1.604   3.833  10.034  1.7784 -0.4429  1.0137
  120OSM    C2S12659   1.450   3.785  10.180 -0.4979  0.3265 -0.0950
  120OSM    H2S12660   1.365   3.726  10.139  0.1583 -0.4959 -0.2967
  120OSM    C3S12661   1.410   3.937  10.207 -0.1224  0.0573 -0.1871
  120OSM    H3S12662   1.488   3.994  10.261 -1.0550  0.4984  0.7443
  120OSM     O312663   1.294   3.948  10.282  0.0431 -0.0188 -0.8027
  120OSM    HO312664   1.261   3.860  10.300 -1.3357  0.6173 -0.0120
  120OSM    C4S12665   1.401   4.015  10.067 -0.4364 -0.0389  0.2248
  120OSM    H4S12666   1.473   4.097  10.053  1.3358 -1.5344  0.1206
  120OSM    C5S12667   1.315   4.002   9.963  0.1686  0.3180  0.0381
  120OSM    H5S12668   1.235   3.926   9.972  0.5532 -0.1035 -0.0515
  120OSM    C6S12669   1.316   4.078   9.824 -0.1184  0.0042  0.4630
  120OSM    H6S12670   1.219   4.129   9.806  0.8069  1.6249 -0.1561
  120OSM    H6T12671   1.309   3.996   9.749  0.3294 -0.0040  0.4285
  120OSM    C7S12672   1.425   4.181   9.798  0.0019 -0.0673 -0.0424
  120OSM    H7S12673   1.532   4.149   9.801  0.1751  0.1761 -2.2024
  120OSM    H7T12674   1.413   4.259   9.876  0.6064  0.5419 -0.5466
  120OSM    C8S12675   1.393   4.261   9.667 -0.2509 -0.5629 -0.8526
  120OSM    H8S12676   1.301   4.323   9.662 -0.3281 -0.7298 -1.8007
  120OSM    H8T12677   1.377   4.187   9.586 -1.9158 -0.2724 -0.8242
  120OSM    C9S12678   1.516   4.340   9.625 -0.4682 -0.0809  0.2225
  120OSM    H9S12679   1.599   4.268   9.609  0.1125  0.7049 -0.3706
  120OSM    H9T12680   1.558   4.406   9.704 -1.5188 -0.1669  0.8646
  120OSM   C10S12681   1.492   4.403   9.484 -0.0460 -0.6247 -1.1093
  120OSM   H10S12682   1.435   4.497   9.497 -2.3225 -2.0453 -0.1603
  120OSM   H10T12683   1.427   4.332   9.427  0.2032 -2.6070  0.9137
  120OSM   C11S12684   1.623   4.430   9.405  0.1092  0.2956  0.6252
  120OSM   H11S12685   1.671   4.331   9.390 -0.4426  0.3032 -1.4518
  120OSM   H11T12686   1.696   4.494   9.459  2.4212  0.1418 -2.0762
  120OSM   C12S12687   1.592   4.485   9.267 -0.7238 -0.0383  0.0212
  120OSM   H12S12688   1.590   4.596   9.270 -0.3128 -0.0288  0.0767
  120OSM   H12T12689   1.487   4.463   9.239 -0.3817 -0.4168 -1.0273
  120OSM   C13S12690   1.681   4.433   9.151  0.0158 -0.1914  0.6758
  120OSM   H13S12691   1.664   4.325   9.129  0.3881 -0.5777  2.1351
  120OSM   H13T12692   1.782   4.426   9.198  0.0196 -2.5735  0.4419
  120OSM   C14S12693   1.715   4.522   9.033  0.4854  0.4655  0.2327
  120OSM   H14S12694   1.735   4.625   9.069  1.2125 -0.2318  1.9191
  120OSM   H14T12695   1.627   4.536   8.967 -0.2260 -1.2489  0.7481
  120OSM   C15S12696   1.827   4.473   8.942  0.0832  0.8018 -0.2650
  120OSM   H15S12697   1.796   4.371   8.912 -1.3519  1.1874 -0.1774
  120OSM   H15T12698   1.915   4.452   9.006 -2.2326 -3.0313  2.0411
  120OSM   C16S12699   1.854   4.564   8.821  0.4487  0.7023  0.3893
  120OSM   H16S12700   1.873   4.666   8.860 -0.5632  0.2530  2.1725
  120OSM   H16T12701   1.770   4.580   8.749  0.9005  0.8376 -0.1145
  120OSM   C17S12702   1.967   4.521   8.717 -0.3222  0.4505 -0.7045
  120OSM   H17S12703   1.944   4.418   8.682  1.7842  0.3327 -1.9073
  120OSM   H17T12704   2.067   4.510   8.765 -0.3308 -2.7301 -1.1534
  120OSM   C18S12705   1.972   4.602   8.588  0.4358  0.3913  0.5296
  120OSM   H18S12706   2.047   4.559   8.519  1.0753 -0.6782  1.8484
  120OSM   H18T12707   1.976   4.712   8.607 -0.8461  0.5347  0.0576
  120OSM   H18U12708   1.877   4.588   8.532  0.2351  1.5233  0.5548
  120OSM    C1F12709   1.588   3.639  10.036  0.0833 -0.0424 -0.5031
  120OSM     OF12710   1.509   3.547  10.048  0.1365  0.0042  0.0763
  120OSM    C2F12711   1.729   3.623   9.979  0.0532 -0.4886  0.2231
  120OSM    H2F12712   1.787   3.560  10.050 -3.5092 -2.3609  1.7178
  120OSM    H2G12713   1.774   3.723   9.958 -2.8561  1.2581  1.6549
  120OSM    C3F12714   1.713   3.553   9.838 -0.0741 -0.8386 -0.6486
  120OSM    H3F12715   1.677   3.452   9.866 -0.2001 -0.3113  1.3080
  120OSM    H3G12716   1.816   3.536   9.801  0.5122 -0.5526  0.7785
  120OSM    C4F12717   1.633   3.628   9.736  0.5891  0.1692 -0.5564
  120OSM    H4F12718   1.681   3.726   9.714 -0.2326  0.7235  0.0843
  120OSM    H4G12719   1.527   3.642   9.764 -0.4379 -3.2509 -2.1195
  120OSM    C5F12720   1.628   3.549   9.609 -0.2487  0.1216 -0.2412
  120OSM    H5F12721   1.592   3.448   9.637 -2.3245  1.5982  3.0177
  120OSM    H5G12722   1.734   3.543   9.575  0.8010  1.8524  2.3404
  120OSM    C6F12723   1.544   3.617   9.500 -0.7733  0.0484  0.7877
  120OSM    H6F12724   1.435   3.605   9.519 -1.3367 -0.6790 -2.2938
  120OSM    H6G12725   1.557   3.551   9.411  2.9467  1.0984  0.3681
  120OSM    C7F12726   1.586   3.765   9.463  0.2859  0.1599  0.2885
  120OSM    H7F12727   1.693   3.773   9.494 -0.1625  0.1833  1.9103
  120OSM    H7G12728   1.526   3.826   9.533  0.4170 -1.9929  2.3885
  120OSM    C8F12729   1.573   3.823   9.313 -0.2631  0.3579  0.3529
  120OSM    H8F12730   1.632   3.757   9.246 -0.7918  1.6795 -1.4658
  120OSM    H8G12731   1.614   3.925   9.320 -0.4483  0.3908  1.0877
  120OSM    C9F12732   1.432   3.828   9.252 -0.5977 -0.3592 -0.1366
  120OSM    H9F12733   1.396   3.736   9.203 -1.2253  0.1682 -0.6940
  120OSM   C10F12734   1.356   3.940   9.244  0.4896  0.8494 -0.3136
  120OSM   H10F12735   1.265   3.942   9.184 -0.4138  1.6043  1.0233
  120OSM   C11F12736   1.395   4.082   9.293  0.0592 -1.0715 -0.0515
  120OSM   H11F12737   1.503   4.104   9.306 -0.1645 -0.4753  0.9011
  120OSM   H11G12738   1.343   4.103   9.388 -0.3646 -1.5531 -0.1693
  120OSM   C12F12739   1.326   4.187   9.203  0.0852  0.0314  0.3438
  120OSM   H12F12740   1.331   4.290   9.245  0.1813  1.5959 -3.1494
  120OSM   H12G12741   1.219   4.157   9.193  0.2784  0.0182 -2.9926
  120OSM   C13F12742   1.394   4.187   9.066 -0.0408  0.3103  0.4032
  120OSM   H13F12743   1.374   4.087   9.020  1.8415  0.5999 -1.1759
  120OSM   H13G12744   1.503   4.193   9.086  0.3759 -0.9025 -1.2722
  120OSM   C14F12745   1.365   4.311   8.973  0.3298 -0.0079  0.6058
  120OSM   H14F12746   1.363   4.404   9.034 -2.2928  0.0346  0.5736
  120OSM   H14G12747   1.260   4.301   8.938  0.6182  1.9147 -0.9879
  120OSM   C15F12748   1.454   4.331   8.850  0.0868 -0.3221  0.6075
  120OSM   H15F12749   1.555   4.362   8.884  0.8216 -0.8780 -0.9475
  120OSM   H15G12750   1.407   4.409   8.786  0.2073 -0.1711  0.7035
  120OSM   C16F12751   1.470   4.196   8.769 -0.5976  0.3941 -0.0938
  120OSM   H16F12752   1.366   4.177   8.735 -0.4874  0.7693 -0.6514
  120OSM   H16G12753   1.515   4.119   8.836 -0.5987  1.8983  1.7276
  120OSM   C17F12754   1.569   4.216   8.647 -0.5952 -0.5413 -0.4288
  120OSM   H17F12755   1.605   4.115   8.615 -0.3700 -0.0986 -1.6380
  120OSM   H17G12756   1.666   4.259   8.680 -0.0329 -1.2918 -1.0690
  120OSM   C18F12757   1.519   4.284   8.520 -0.4560 -0.3190 -0.0118
  120OSM   H18F12758   1.597   4.282   8.441 -1.4435  1.9513 -1.1438
  120OSM   H18G12759   1.488   4.389   8.543 -3.3920  0.0259 -4.3885
  120OSM   H18H12760   1.431   4.236   8.472  0.2044 -3.0486  1.3432
  121OSM      N12761   6.185   0.134  11.055 -0.1190 -0.6170 -0.8589
  121OSM    C1512762   6.288   0.165  10.954 -0.8630 -0.5872 -0.6246
  121OSM   H15A12763   6.386   0.131  10.983  0.0455  0.5702 -2.2172
  121OSM   H15B12764   6.311   0.270  10.949  0.4379 -0.6262  2.3480
  121OSM   H15C12765   6.272   0.111  10.862  0.3224  0.7043 -1.6202
  121OSM    C1412766   6.166  -0.009  11.064 -0.1987  0.2959 -0.5172
  121OSM   H14A12767   6.148  -0.060  10.971  0.9949 -2.2906  0.5540
  121OSM   H14B12768   6.080  -0.026  11.126 -0.9230  0.1368 -1.5483
  121OSM   H14C12769   6.254  -0.053  11.109 -0.0639  0.4417 -0.6371
  121OSM    C1312770   6.233   0.183  11.184  0.2421  0.3532  0.0810
  121OSM   H13A12771   6.164   0.150  11.260  0.4200 -1.2533 -0.4218
  121OSM   H13B12772   6.239   0.291  11.190 -1.8981  0.5311 -0.1996
  121OSM   H13C12773   6.323   0.133  11.218  0.3542  0.9437  0.6963
  121OSM    C1212774   6.049   0.206  11.031 -0.0343  0.3523 -0.8239
  121OSM   H12A12775   6.045   0.217  10.924  3.9757  1.1211 -1.0424
  121OSM   H12B12776   6.068   0.308  11.060 -0.7734  0.1884  0.2869
  121OSM    C1112777   5.926   0.157  11.105 -0.9373 -0.3989  0.0837
  121OSM   H11A12778   5.844   0.231  11.089  0.7798  1.4822 -0.3382
  121OSM   H11B12779   5.938   0.154  11.216 -1.9354 -2.5948  0.1924
  121OSM      P12780   5.784   0.009  10.949 -0.1527  0.0541 -0.1895
  121OSM    O1312781   5.777  -0.128  10.892 -0.0356  0.4335 -0.5761
  121OSM    O1412782   5.661   0.070  10.993  0.1987  0.3069  0.3639
  121OSM    O1112783   5.843   0.104  10.842  0.5954  0.3956  0.8852
  121OSM    O1212784   5.884   0.022  11.069 -0.4976  0.0663  0.8725
  121OSM    C1S12785   5.952   0.051  10.754 -0.3798  0.2869  0.3037
  121OSM    H1S12786   5.922  -0.046  10.710 -0.7185  0.5538 -0.0720
  121OSM    H1T12787   6.043   0.042  10.816 -0.0056 -1.2500 -0.4251
  121OSM     NF12788   6.076   0.075  10.541  0.0469 -0.3464 -0.2573
  121OSM    HNF12789   6.174   0.081  10.560  0.1074 -0.2891 -0.5887
  121OSM    C2S12790   5.982   0.144  10.633  0.1047 -0.1896  0.1388
  121OSM    H2S12791   5.881   0.151  10.587 -1.5319 -0.5013  3.3298
  121OSM    C3S12792   6.029   0.283  10.689 -0.3943 -0.2995 -0.6323
  121OSM    H3S12793   6.126   0.264  10.741 -0.3212  0.4840 -0.4806
  121OSM     O312794   5.941   0.340  10.785  0.1422  0.1337  0.2438
  121OSM    HO312795   5.886   0.268  10.815 -0.0959 -0.1635 -0.8541
  121OSM    C4S12796   6.063   0.380  10.583  0.1712  0.2619  0.1092
  121OSM    H4S12797   6.022   0.353  10.484 -1.8086  0.8458  0.7078
  121OSM    C5S12798   6.135   0.496  10.590  0.2291  0.4186  0.2077
  121OSM    H5S12799   6.167   0.530  10.690 -1.0288 -0.1239  0.8224
  121OSM    C6S12800   6.164   0.591  10.483  0.2813 -0.3884  0.3568
  121OSM    H6S12801   6.273   0.608  10.478  0.0498  2.7334  2.7095
  121OSM    H6T12802   6.123   0.691  10.508  1.7130 -0.2339  2.2476
  121OSM    C7S12803   6.116   0.560  10.342 -0.3923 -0.0282  0.4591
  121OSM    H7S12804   6.005   0.560  10.329 -0.2989 -1.8081 -0.7648
  121OSM    H7T12805   6.142   0.457  10.308 -0.9534  0.4223 -1.4482
  121OSM    C8S12806   6.176   0.657  10.228  0.3760 -0.3931  0.3072
  121OSM    H8S12807   6.286   0.658  10.239  0.5795 -0.3666 -1.4866
  121OSM    H8T12808   6.146   0.764  10.228 -0.6944 -0.6354  2.6034
  121OSM    C9S12809   6.131   0.595  10.092 -0.3200 -0.5063 -0.8366
  121OSM    H9S12810   6.020   0.600  10.086 -0.4471 -0.7276  0.8488
  121OSM    H9T12811   6.160   0.487  10.099  1.9809  0.0467 -1.0045
  121OSM   C10S12812   6.210   0.668   9.975  0.0689  0.0126 -0.9016
  121OSM   H10S12813   6.318   0.667   9.998 -0.6181  0.1488  3.1982
  121OSM   H10T12814   6.182   0.776   9.978  2.8109  0.9287  4.2450
  121OSM   C11S12815   6.170   0.634   9.834  0.4473  0.8521 -0.8963
  121OSM   H11S12816   6.067   0.674   9.823  0.5831  1.8320  0.9484
  121OSM   H11T12817   6.179   0.524   9.823  0.5194  0.8371 -0.6848
  121OSM   C12S12818   6.274   0.686   9.728 -0.0078 -0.5527 -0.1393
  121OSM   H12S12819   6.369   0.631   9.748  1.5277  2.2068  0.6422
  121OSM   H12T12820   6.302   0.792   9.745  1.5811 -1.0329  0.4135
  121OSM   C13S12821   6.214   0.673   9.587  0.0772 -0.1102 -0.1789
  121OSM   H13S12822   6.111   0.713   9.591  0.3664  0.5606  0.9480
  121OSM   H13T12823   6.198   0.565   9.564  0.6696 -0.3178  0.3449
  121OSM   C14S12824   6.291   0.748   9.474  0.1031 -0.2650 -0.0389
  121OSM   H14S12825   6.394   0.708   9.463  0.8331  1.0537  1.6170
  121OSM   H14T12826   6.300   0.857   9.496 -1.5972 -0.2664  0.8338
  121OSM   C15S12827   6.218   0.711   9.347  0.7588  0.1710  0.3801
  121OSM   H15S12828   6.111   0.734   9.365  0.8841 -0.5291  2.1687
  121OSM   H15T12829   6.224   0.600   9.341 -3.5415 -0.1686 -0.3773
  121OSM   C16S12830   6.266   0.793   9.223  0.4612  0.8795 -0.0785
  121OSM   H16S12831   6.369   0.763   9.196  1.3216 -0.2354  3.8422
  121OSM   H16T12832   6.263   0.899   9.258 -1.7193  1.3374 -1.4329
  121OSM   C17S12833   6.185   0.802   9.087  0.0425  0.3851 -0.5442
  121OSM   H17S12834   6.219   0.887   9.024  0.1903  0.9904  0.3385
  121OSM   H17T12835   6.078   0.818   9.112  0.2008  0.8187 -0.1351
  121OSM   C18S12836   6.207   0.679   9.003 -0.7740  0.1062  0.0199
  121OSM   H18S12837   6.191   0.589   9.067 -0.5696 -0.6333 -0.9415
  121OSM   H18T12838   6.311   0.674   8.964  0.1680 -1.7511  2.4642
  121OSM   H18U12839   6.137   0.676   8.917 -2.4022  1.6800  1.2121
  121OSM    C1F12840   6.033  -0.017  10.458  0.2194  0.2262  0.4880
  121OSM     OF12841   5.913  -0.049  10.454  0.6991 -0.2885  0.1552
  121OSM    C2F12842   6.126  -0.074  10.360 -0.1294 -0.0402  0.9185
  121OSM    H2F12843   6.123  -0.185  10.353 -2.2888  0.0693 -1.8891
  121OSM    H2G12844   6.232  -0.051  10.383 -0.1829 -0.4086  1.5593
  121OSM    C3F12845   6.095  -0.036  10.213 -0.8932 -0.0751  0.3203
  121OSM    H3F12846   6.105   0.075  10.202  0.5266 -0.2295 -0.2047
  121OSM    H3G12847   5.990  -0.065  10.194 -1.3977  0.8850  1.4956
  121OSM    C4F12848   6.177  -0.095  10.097  0.7367  0.6684  0.0884
  121OSM    H4F12849   6.163  -0.205  10.088 -1.0841  0.9127 -0.5888
  121OSM    H4G12850   6.285  -0.082  10.118  0.7883 -1.6734  1.6275
  121OSM    C5F12851   6.125  -0.027   9.967 -0.2302  0.2206  0.2678
  121OSM    H5F12852   6.137   0.080   9.990  1.3415 -0.0822  0.9837
  121OSM    H5G12853   6.018  -0.055   9.954 -0.3968  0.1560  1.6341
  121OSM    C6F12854   6.193  -0.068   9.841 -0.5275  0.5880 -0.1950
  121OSM    H6F12855   6.184  -0.178   9.827  3.0356  0.1716 -0.0419
  121OSM    H6G12856   6.299  -0.051   9.869 -0.8650 -0.7973  2.2362
  121OSM    C7F12857   6.142   0.008   9.718 -0.8203  1.0408 -0.6805
  121OSM    H7F12858   6.142   0.115   9.749 -0.6862  1.0127 -0.5849
  121OSM    H7G12859   6.036  -0.006   9.686 -0.7307  1.0154 -0.9667
  121OSM    C8F12860   6.245  -0.008   9.601 -0.4601 -1.3293  0.9456
  121OSM    H8F12861   6.350  -0.005   9.636  0.1862  2.5443 -0.8320
  121OSM    H8G12862   6.244   0.079   9.532  0.7597 -1.9004  0.1843
  121OSM    C9F12863   6.223  -0.135   9.524  0.6406  0.1814 -0.0422
  121OSM    H9F12864   6.192  -0.219   9.588 -1.4245 -0.4542 -1.7505
  121OSM   C10F12865   6.213  -0.144   9.385 -0.0599  0.3644 -0.2317
  121OSM   H10F12866   6.183  -0.242   9.345 -0.3536  0.3975 -0.0964
  121OSM   C11F12867   6.219  -0.034   9.285 -0.5800 -0.0049 -0.1168
  121OSM   H11F12868   6.245  -0.091   9.192  0.7178  0.1687  0.1238
  121OSM   H11G12869   6.298   0.038   9.313  0.1756 -0.8578 -0.0020
  121OSM   C12F12870   6.090   0.046   9.260 -0.3088  0.2978  0.3833
  121OSM   H12F12871   6.033   0.062   9.354 -0.6130 -1.3955  0.5230
  121OSM   H12G12872   6.029  -0.023   9.198  3.1241 -0.3178 -2.6557
  121OSM   C13F12873   6.133   0.179   9.189 -0.7857  0.3031  0.1647
  121OSM   H13F12874   6.209   0.154   9.112 -2.2338 -0.9002 -0.9505
  121OSM   H13G12875   6.183   0.251   9.256  0.2980 -0.1503 -0.1324
  121OSM   C14F12876   6.023   0.245   9.111 -0.1210  0.0553 -0.1695
  121OSM   H14F12877   6.056   0.345   9.075 -2.0029  0.2041 -1.6253
  121OSM   H14G12878   5.939   0.255   9.182 -0.1463 -0.3025 -0.1449
  121OSM   C15F12879   6.006   0.178   8.973  0.2437 -0.4260 -0.0844
  121OSM   H15F12880   5.984   0.071   8.992 -1.5291  0.1236  1.2993
  121OSM   H15G12881   6.099   0.188   8.913 -0.1094  1.1991 -0.4087
  121OSM   C16F12882   5.886   0.231   8.889  0.4358 -0.7054 -0.1496
  121OSM   H16F12883   5.914   0.338   8.884 -2.2942  0.1204  0.4932
  121OSM   H16G12884   5.793   0.234   8.950  0.5578  0.8713 -0.0023
  121OSM   C17F12885   5.867   0.167   8.751 -0.3598 -0.0340 -0.1567
  121OSM   H17F12886   5.965   0.155   8.700  0.4960  0.2514  1.3588
  121OSM   H17G12887   5.807   0.237   8.689  1.2621  0.8506 -0.7998
  121OSM   C18F12888   5.794   0.040   8.760  0.0671  0.6939 -0.8430
  121OSM   H18F12889   5.692   0.055   8.803  1.2893 -0.5636  2.9051
  121OSM   H18G12890   5.856  -0.023   8.827  0.1939 -0.0262 -1.6306
  121OSM   H18H12891   5.794  -0.010   8.661  2.0831 -0.6205 -0.2401
  122OSM      N12892   0.597   5.221  10.883 -0.4301 -0.1532 -0.5571
  122OSM    C1512893   0.722   5.269  10.950 -0.4554 -0.1557 -0.5045
  122OSM   H15A12894   0.811   5.226  10.907  0.1244 -0.1101  0.6227
  122OSM   H15B12895   0.735   5.263  11.057  1.6112  0.3780 -0.6960
  122OSM   H15C12896   0.731   5.370  10.913  2.4656 -0.8176 -1.8793
  122OSM    C1412897   0.588   5.072  10.904 -0.0528 -0.1952 -0.6613
  122OSM   H14A12898   0.667   5.026  10.845 -0.7010 -0.6005 -1.2207
  122OSM   H14B12899   0.490   5.037  10.875  0.2062 -0.6370 -1.0172
  122OSM   H14C12900   0.599   5.038  11.006  1.7683  0.7032 -0.5109
  122OSM    C1312901   0.486   5.285  10.952 -0.4145 -0.7747 -0.0244
  122OSM   H13A12902   0.465   5.233  11.044  0.6537 -1.4362 -0.1355
  122OSM   H13B12903   0.394   5.291  10.896  0.5724 -0.8706 -1.7209
  122OSM   H13C12904   0.518   5.383  10.982 -0.8839 -0.7622  0.4503
  122OSM    C1212905   0.601   5.265  10.736 -0.1227 -0.9579  0.5818
  122OSM   H12A12906   0.597   5.372  10.727 -0.8005 -1.0574 -0.4860
  122OSM   H12B12907   0.516   5.227  10.681  1.6358 -2.7805 -1.0231
  122OSM    C1112908   0.724   5.210  10.651  0.3607 -0.2419  0.6363
  122OSM   H11A12909   0.818   5.260  10.683  0.1759 -0.0235  0.8499
  122OSM   H11B12910   0.714   5.255  10.550  1.3667  0.7709  0.9730
  122OSM      P12911   0.656   4.976  10.560 -0.3676 -0.4959 -0.2126
  122OSM    O1312912   0.663   4.849  10.631 -0.1857  0.4022  0.5484
  122OSM    O1412913   0.525   5.047  10.542 -0.4330 -0.0958  0.3863
  122OSM    O1112914   0.735   4.975  10.422  0.1421 -0.3118 -0.9016
  122OSM    O1212915   0.745   5.068  10.651  0.3036 -0.2015  0.8329
  122OSM    C1S12916   0.878   5.008  10.413  0.3586  0.4994 -0.1024
  122OSM    H1S12917   0.938   4.928  10.461  1.8006  0.4850 -1.8407
  122OSM    H1T12918   0.891   5.108  10.460 -0.7881  1.4379 -1.6950
  122OSM     NF12919   1.063   5.058  10.268  0.1354  0.7698 -0.1521
  122OSM    HNF12920   1.098   5.151  10.259  4.2172 -0.1015  3.4422
  122OSM    C2S12921   0.921   5.025  10.266 -0.6228 -0.5116 -0.3920
  122OSM    H2S12922   0.899   4.931  10.212 -0.5259 -0.5746 -0.3210
  122OSM    C3S12923   0.829   5.140  10.211  0.2076  0.0086  0.1647
  122OSM    H3S12924   0.844   5.231  10.273  2.3831 -1.2656  1.6258
  122OSM     O312925   0.691   5.116  10.206 -0.4600  0.0130 -0.1438
  122OSM    HO312926   0.680   5.053  10.279 -1.1426  0.7455  0.4029
  122OSM    C4S12927   0.860   5.173  10.070  0.1155 -0.7087 -0.3977
  122OSM    H4S12928   0.846   5.087  10.003  1.6507 -1.0156 -0.3820
  122OSM    C5S12929   0.899   5.290  10.017  0.5002 -0.0664  0.3979
  122OSM    H5S12930   0.911   5.375  10.086 -0.9304 -0.0844  0.7023
  122OSM    C6S12931   0.935   5.303   9.873  0.0388 -0.2949 -0.1933
  122OSM    H6S12932   0.934   5.205   9.821 -1.1381 -0.0545 -0.6443
  122OSM    H6T12933   1.040   5.341   9.877 -0.5689  1.6612 -1.2530
  122OSM    C7S12934   0.843   5.396   9.787  0.5298  0.4808  0.1070
  122OSM    H7S12935   0.827   5.487   9.850 -0.9773  1.0849 -1.0870
  122OSM    H7T12936   0.744   5.351   9.766  0.2165  0.9733  0.4967
  122OSM    C8S12937   0.907   5.439   9.660 -0.6734 -0.1656 -0.3628
  122OSM    H8S12938   1.017   5.448   9.672 -0.8634 -0.1213  1.7695
  122OSM    H8T12939   0.859   5.531   9.620 -0.8773 -0.4138 -0.6905
  122OSM    C9S12940   0.901   5.343   9.542  0.2358  0.3476 -0.1758
  122OSM    H9S12941   0.797   5.309   9.527 -0.6364  2.9960 -0.7516
  122OSM    H9T12942   0.959   5.256   9.580  0.2619  0.8204  0.8956
  122OSM   C10S12943   0.975   5.402   9.419  0.2813  0.4898 -0.4610
  122OSM   H10S12944   1.079   5.427   9.449 -0.8231  1.6437  2.9534
  122OSM   H10T12945   0.921   5.493   9.385 -0.8106  0.1509  0.2862
  122OSM   C11S12946   0.949   5.304   9.298  0.7620 -0.2616  0.7812
  122OSM   H11S12947   0.840   5.283   9.296  0.3700  1.2710  2.7322
  122OSM   H11T12948   0.999   5.206   9.314 -0.6157 -1.5960 -2.3273
  122OSM   C12S12949   0.994   5.359   9.167 -0.6487 -0.8145  1.0852
  122OSM   H12S12950   1.103   5.382   9.169 -0.9666  0.8908  0.1742
  122OSM   H12T12951   0.951   5.459   9.145 -0.2127 -1.1738 -1.9329
  122OSM   C13S12952   0.973   5.262   9.051 -0.1685  0.4497  0.1670
  122OSM   H13S12953   0.869   5.260   9.012  0.1251 -0.6810 -0.6224
  122OSM   H13T12954   0.982   5.160   9.094 -2.1434  0.2340  0.1503
  122OSM   C14S12955   1.073   5.275   8.934  0.3944  0.1370  0.5636
  122OSM   H14S12956   1.171   5.279   8.985  1.0728 -0.2329 -0.6633
  122OSM   H14T12957   1.048   5.369   8.879  0.8802  0.7009  1.2899
  122OSM   C15S12958   1.075   5.163   8.830  0.1040  0.1257 -0.5240
  122OSM   H15S12959   1.069   5.071   8.891  0.6663  0.7155  0.4446
  122OSM   H15T12960   1.174   5.169   8.778 -0.7132  0.0127 -2.1461
  122OSM   C16S12961   0.955   5.180   8.744  0.7735  0.0549  0.8674
  122OSM   H16S12962   0.940   5.279   8.697  1.0300 -0.2997  0.0196
  122OSM   H16T12963   0.865   5.165   8.807  0.9963 -1.5304  0.8459
  122OSM   C17S12964   0.958   5.070   8.639  0.5337  0.8655  0.0680
  122OSM   H17S12965   0.933   4.972   8.685  2.2615  0.4255  0.1220
  122OSM   H17T12966   1.063   5.060   8.605  0.5293 -1.3361  0.5595
  122OSM   C18S12967   0.870   5.086   8.518  0.0963 -0.3449  0.1188
  122OSM   H18S12968   0.764   5.055   8.528 -0.3238  0.0629 -2.5353
  122OSM   H18T12969   0.907   5.026   8.432  0.5489 -2.4049  1.6503
  122OSM   H18U12970   0.873   5.192   8.485  0.5739  0.4215  2.3914
  122OSM    C1F12971   1.146   4.956  10.278  0.8236 -0.1429  0.0980
  122OSM     OF12972   1.105   4.842  10.280 -0.3754 -0.4128 -0.4770
  122OSM    C2F12973   1.288   4.982  10.267  0.3751  0.4171 -0.1792
  122OSM    H2F12974   1.335   4.934  10.355 -2.2921  0.0814  1.1664
  122OSM    H2G12975   1.304   5.092  10.270  0.5595  0.3857  0.0046
  122OSM    C3F12976   1.347   4.921  10.142  0.7402 -0.3503 -0.3011
  122OSM    H3F12977   1.346   4.812  10.163  2.4737 -0.5092 -0.8716
  122OSM    H3G12978   1.456   4.944  10.138  0.6404  0.2217  0.0967
  122OSM    C4F12979   1.274   4.949  10.011 -0.2002  0.0631 -0.9112
  122OSM    H4F12980   1.224   5.048  10.008 -2.2620 -0.9516 -3.5609
  122OSM    H4G12981   1.191   4.876  10.020  1.3662 -1.6493  0.5739
  122OSM    C5F12982   1.346   4.909   9.883 -1.1416 -0.0270 -0.3930
  122OSM    H5F12983   1.395   4.812   9.905  0.4530  0.5437 -1.2241
  122OSM    H5G12984   1.431   4.981   9.881  0.1543 -1.4964 -1.9368
  122OSM    C6F12985   1.271   4.899   9.747  0.2644  0.4619 -0.1441
  122OSM    H6F12986   1.203   4.984   9.728 -1.1202 -1.0363 -2.2486
  122OSM    H6G12987   1.203   4.814   9.770  0.0776  1.3761  3.2107
  122OSM    C7F12988   1.365   4.845   9.638  0.0021 -0.0912  0.6970
  122OSM    H7F12989   1.424   4.759   9.676 -0.5921 -0.9694 -0.2774
  122OSM    H7G12990   1.427   4.932   9.611 -2.4451  1.0535 -1.7253
  122OSM    C8F12991   1.302   4.794   9.509 -0.4429 -0.2885  0.5113
  122OSM    H8F12992   1.249   4.700   9.535  0.0235 -1.3168 -2.0404
  122OSM    H8G12993   1.382   4.770   9.436  0.4107  1.7786  0.6764
  122OSM    C9F12994   1.198   4.882   9.445  0.6290 -0.1048 -0.2734
  122OSM    H9F12995   1.117   4.902   9.516  0.7971  0.1664 -0.1563
  122OSM   C10F12996   1.205   4.930   9.321 -0.2378  0.3702 -0.2280
  122OSM   H10F12997   1.114   4.982   9.287 -1.3430 -0.5984  1.1655
  122OSM   C11F12998   1.319   4.916   9.218 -0.3918  0.2906  0.6176
  122OSM   H11F12999   1.414   4.887   9.267 -0.0933  1.8411  0.9825
  122OSM   H11G13000   1.334   5.017   9.175 -2.7501  1.1166  1.6033
  122OSM   C12F13001   1.292   4.817   9.101 -0.0375  0.4488  0.4670
  122OSM   H12F13002   1.214   4.857   9.033 -0.1269  0.9415  0.8537
  122OSM   H12G13003   1.266   4.723   9.154  1.4347  0.2385  0.8515
  122OSM   C13F13004   1.411   4.791   9.004 -0.7341  0.2532 -0.4052
  122OSM   H13F13005   1.393   4.707   8.934 -0.1457  0.0605 -0.3336
  122OSM   H13G13006   1.504   4.775   9.063 -2.4917 -1.1538  2.2119
  122OSM   C14F13007   1.426   4.917   8.911 -0.3694 -0.5870  0.5722
  122OSM   H14F13008   1.440   5.009   8.972 -1.3520  1.9583 -2.7906
  122OSM   H14G13009   1.330   4.940   8.861 -1.2297  0.2256  2.4630
  122OSM   C15F13010   1.543   4.924   8.807  0.0830 -0.0689  0.9716
  122OSM   H15F13011   1.567   4.834   8.746  1.0014 -0.0525  1.3015
  122OSM   H15G13012   1.639   4.946   8.859  0.6586  0.6576 -0.3425
  122OSM   C16F13013   1.507   5.039   8.719  0.3562 -0.5318 -0.3364
  122OSM   H16F13014   1.591   5.085   8.663  0.6818  2.2576  2.2098
  122OSM   H16G13015   1.464   5.123   8.779 -0.7777 -2.6425  1.9960
  122OSM   C17F13016   1.400   5.007   8.620  0.1517  0.1437 -0.5121
  122OSM   H17F13017   1.312   4.962   8.671  0.5399 -0.2655 -0.1965
  122OSM   H17G13018   1.438   4.928   8.551  3.8148 -0.3410  1.8018
  122OSM   C18F13019   1.348   5.134   8.539 -0.0843 -0.0840  0.1802
  122OSM   H18F13020   1.260   5.103   8.479 -0.1042 -1.7672  1.0007
  122OSM   H18G13021   1.420   5.178   8.468 -2.5957  1.2994 -1.6375
  122OSM   H18H13022   1.317   5.214   8.610  0.4356  2.0605 -1.9199
  123OSM      N13023   2.709   3.559   5.703  0.1778  0.1444  0.5446
  123OSM    C1513024   2.837   3.510   5.643 -0.7992  0.8092 -0.2077
  123OSM   H15A13025   2.821   3.433   5.568  0.9919 -1.3349  1.4575
  123OSM   H15B13026   2.908   3.475   5.716 -0.3656  1.1087 -0.4805
  123OSM   H15C13027   2.891   3.590   5.594  0.3687  0.9280  1.2153
  123OSM    C1413028   2.629   3.649   5.619 -0.1366 -0.3320  0.0441
  123OSM   H14A13029   2.537   3.680   5.668  0.5272  4.6476 -1.2919
  123OSM   H14B13030   2.607   3.608   5.522  3.2780  1.2572 -1.5631
  123OSM   H14C13031   2.696   3.731   5.599  2.2778 -2.0277  0.7133
  123OSM    C1313032   2.621   3.438   5.726 -0.3593 -0.1053 -0.0080
  123OSM   H13A13033   2.665   3.363   5.789  1.0479  0.5808 -0.1290
  123OSM   H13B13034   2.583   3.394   5.636  1.3070 -2.0814  0.1828
  123OSM   H13C13035   2.532   3.480   5.771 -0.0169  0.3911  0.2121
  123OSM    C1213036   2.740   3.625   5.840 -0.1683  0.7277  0.3951
  123OSM   H12A13037   2.646   3.626   5.893  0.0694  0.6173  0.8207
  123OSM   H12B13038   2.776   3.726   5.829 -0.9922  1.0407  0.5086
  123OSM    C1113039   2.835   3.565   5.946 -0.5649  0.0131  0.1069
  123OSM   H11A13040   2.786   3.474   5.988  0.1821 -1.3541 -1.8102
  123OSM   H11B13041   2.847   3.647   6.020 -0.3983  0.4420 -0.3927
  123OSM      P13042   3.080   3.644   5.895  0.7986  0.2151  0.1844
  123OSM    O1313043   3.200   3.579   5.841  0.4475  0.7808  0.2909
  123OSM    O1413044   3.037   3.771   5.826 -0.4402  0.1461 -0.1238
  123OSM    O1113045   3.110   3.664   6.049 -0.1477 -0.4329  0.1107
  123OSM    O1213046   2.972   3.534   5.894  0.5018  0.6537 -0.2823
  123OSM    C1S13047   3.087   3.792   6.106 -0.0902 -0.1514  0.0565
  123OSM    H1S13048   2.988   3.836   6.082  0.2838  0.7728  0.1619
  123OSM    H1T13049   3.166   3.866   6.082 -0.6040  1.0757  1.9649
  123OSM     NF13050   3.048   3.913   6.311 -0.0811  0.1503  0.2494
  123OSM    HNF13051   3.119   3.968   6.353 -1.0017  1.4647  0.1269
  123OSM    C2S13052   3.085   3.786   6.259  0.4191 -0.5241 -0.3627
  123OSM    H2S13053   3.011   3.712   6.298 -1.0541  0.9211 -0.3353
  123OSM    C3S13054   3.217   3.737   6.317 -0.8707  0.1238 -0.6443
  123OSM    H3S13055   3.292   3.817   6.299  0.8830 -0.7622  2.1118
  123OSM     O313056   3.279   3.626   6.247 -0.3606  0.4692  0.0650
  123OSM    HO313057   3.217   3.611   6.174  1.2305  1.4660 -1.5647
  123OSM    C4S13058   3.217   3.726   6.468 -0.5184  0.3919  0.1671
  123OSM    H4S13059   3.258   3.816   6.518  2.0672 -1.2526  1.1976
  123OSM    C5S13060   3.174   3.623   6.542  0.4328  0.1179  0.3601
  123OSM    H5S13061   3.122   3.543   6.488  0.6166  0.1771  0.0944
  123OSM    C6S13062   3.185   3.609   6.692 -0.2750 -0.2947  0.0440
  123OSM    H6S13063   3.260   3.530   6.709 -1.0969 -1.2364 -0.5967
  123OSM    H6T13064   3.084   3.581   6.729 -0.2842  0.2175  0.4206
  123OSM    C7S13065   3.232   3.733   6.765 -0.0503 -0.3627 -0.2294
  123OSM    H7S13066   3.151   3.807   6.750  1.5009  1.0949 -1.9741
  123OSM    H7T13067   3.322   3.782   6.721  0.6828 -2.3749 -1.1326
  123OSM    C8S13068   3.249   3.694   6.911 -0.7468  0.3521  0.5014
  123OSM    H8S13069   3.320   3.610   6.914  0.8993  1.6514 -0.5905
  123OSM    H8T13070   3.145   3.665   6.940 -0.8981  0.3726 -0.0115
  123OSM    C9S13071   3.294   3.805   6.999  0.4031 -0.3613  0.2718
  123OSM    H9S13072   3.231   3.896   6.985 -0.6762 -1.1198  0.1375
  123OSM    H9T13073   3.397   3.838   6.972 -0.0572 -0.3738 -1.6157
  123OSM   C10S13074   3.272   3.775   7.152 -0.2629 -0.6863  0.1499
  123OSM   H10S13075   3.335   3.685   7.168 -0.6171 -0.7201  1.5295
  123OSM   H10T13076   3.167   3.743   7.168 -1.6933  1.9985 -2.7878
  123OSM   C11S13077   3.325   3.883   7.242 -0.1280 -0.5974  0.3442
  123OSM   H11S13078   3.290   3.984   7.212  2.7775  1.0868  2.1584
  123OSM   H11T13079   3.435   3.886   7.229 -0.3036  1.3420 -1.1882
  123OSM   C12S13080   3.285   3.859   7.384 -0.8715 -0.1833 -0.5160
  123OSM   H12S13081   3.321   3.757   7.409 -2.0174 -0.2965  0.8214
  123OSM   H12T13082   3.176   3.838   7.383 -1.0435  0.6590 -0.9201
  123OSM   C13S13083   3.338   3.956   7.489  0.7754 -0.6920  0.2900
  123OSM   H13S13084   3.292   4.057   7.484  0.1613 -0.7047  3.6901
  123OSM   H13T13085   3.448   3.962   7.477  0.8798  0.1693  1.5638
  123OSM   C14S13086   3.313   3.904   7.632 -0.1712 -0.3031 -0.2974
  123OSM   H14S13087   3.382   3.820   7.654 -0.9206 -0.9979 -0.5690
  123OSM   H14T13088   3.211   3.862   7.621 -1.2545  2.0285  0.2514
  123OSM   C15S13089   3.343   4.004   7.748 -0.0475  0.3801 -0.5423
  123OSM   H15S13090   3.292   4.102   7.740 -1.4200 -0.3596 -1.2138
  123OSM   H15T13091   3.453   4.021   7.746 -0.0256  0.2092 -2.1134
  123OSM   C16S13092   3.306   3.954   7.891 -0.7030 -0.6599  0.1194
  123OSM   H16S13093   3.361   3.860   7.916 -2.4957 -1.8663 -0.3180
  123OSM   H16T13094   3.197   3.939   7.903 -0.8214  0.6854  0.9629
  123OSM   C17S13095   3.358   4.055   7.992  0.1745  0.4187  0.2875
  123OSM   H17S13096   3.303   4.149   7.970 -0.9549 -0.7116 -2.1734
  123OSM   H17T13097   3.465   4.074   7.971 -0.2583  2.2117 -0.4273
  123OSM   C18S13098   3.342   4.020   8.138  0.4692 -0.5953  0.3982
  123OSM   H18S13099   3.428   3.950   8.145  1.3013  0.3478 -0.1969
  123OSM   H18T13100   3.241   3.976   8.155 -0.1194  0.7703  0.4947
  123OSM   H18U13101   3.360   4.105   8.206 -1.2117 -0.1111  0.2840
  123OSM    C1F13102   2.927   3.964   6.300 -0.4027 -0.0645  0.7366
  123OSM     OF13103   2.839   3.909   6.238  0.3514 -0.1541 -0.1782
  123OSM    C2F13104   2.919   4.093   6.373 -0.6088 -0.5838  0.4943
  123OSM    H2F13105   2.967   4.173   6.313 -0.0034  0.3172  2.1041
  123OSM    H2G13106   2.962   4.084   6.475 -1.3216 -2.6882  0.6649
  123OSM    C3F13107   2.778   4.134   6.404  0.0711  0.5126  0.0521
  123OSM    H3F13108   2.731   4.065   6.477  1.4339 -0.1614  0.3311
  123OSM    H3G13109   2.722   4.130   6.308 -2.0448  2.1690  1.1243
  123OSM    C4F13110   2.764   4.283   6.437  0.1367  0.1987  0.4332
  123OSM    H4F13111   2.659   4.318   6.444  0.3928  1.1757 -0.3690
  123OSM    H4G13112   2.800   4.330   6.343 -0.0830 -2.1831 -0.9137
  123OSM    C5F13113   2.851   4.335   6.550 -0.8914 -0.1603 -0.2385
  123OSM    H5F13114   2.847   4.446   6.557  2.0365  0.0778 -0.9170
  123OSM    H5G13115   2.956   4.319   6.516 -0.8812  1.6080 -1.1340
  123OSM    C6F13116   2.827   4.281   6.688 -0.6547  0.2907 -0.8358
  123OSM    H6F13117   2.912   4.311   6.754 -1.1923  0.2485 -0.1133
  123OSM    H6G13118   2.824   4.170   6.697  0.5411  0.2740 -0.3838
  123OSM    C7F13119   2.706   4.358   6.752 -0.1376  0.7980 -0.3445
  123OSM    H7F13120   2.609   4.322   6.713  1.0542 -0.9507 -1.8711
  123OSM    H7G13121   2.723   4.467   6.735 -0.4824  1.2338  1.7675
  123OSM    C8F13122   2.710   4.341   6.912 -0.0536  0.5190 -0.6778
  123OSM    H8F13123   2.813   4.375   6.935  0.3966 -0.2185 -1.5280
  123OSM    H8G13124   2.705   4.232   6.933  0.7518  0.9271  2.1179
  123OSM    C9F13125   2.597   4.397   6.981  0.1308  0.0311 -0.0944
  123OSM    H9F13126   2.528   4.435   6.904 -0.6608 -1.0695  0.0538
  123OSM   C10F13127   2.578   4.414   7.117 -0.8537 -0.7449 -0.0467
  123OSM   H10F13128   2.486   4.469   7.141 -0.1239  1.3918 -1.8214
  123OSM   C11F13129   2.678   4.374   7.228  0.8593 -0.6426  0.6972
  123OSM   H11F13130   2.704   4.468   7.282 -1.3879  0.4706 -0.0414
  123OSM   H11G13131   2.771   4.332   7.183  1.0168 -0.0661  0.4776
  123OSM   C12F13132   2.618   4.274   7.333 -0.5652 -0.6312 -0.7172
  123OSM   H12F13133   2.713   4.254   7.386  0.7598  3.3830 -1.2999
  123OSM   H12G13134   2.562   4.185   7.296 -2.6850 -0.6231  2.0457
  123OSM   C13F13135   2.522   4.354   7.431 -0.0128 -0.0571 -0.3480
  123OSM   H13F13136   2.417   4.345   7.397  0.2552 -2.6182 -0.7319
  123OSM   H13G13137   2.563   4.457   7.438  2.4540 -0.9996  0.2482
  123OSM   C14F13138   2.542   4.303   7.576 -0.5662 -0.1863  0.0111
  123OSM   H14F13139   2.488   4.364   7.652 -1.0163 -1.2926  0.6046
  123OSM   H14G13140   2.647   4.305   7.613  0.0645 -3.1941 -1.2746
  123OSM   C15F13141   2.499   4.157   7.592  0.4861  0.3837 -0.1192
  123OSM   H15F13142   2.552   4.105   7.510  0.4593  1.3377 -0.7550
  123OSM   H15G13143   2.389   4.154   7.577  0.4707  0.8479 -0.1353
  123OSM   C16F13144   2.547   4.089   7.719  0.7143  0.5250 -0.1498
  123OSM   H16F13145   2.487   4.127   7.805  0.5905  0.7544 -0.3389
  123OSM   H16G13146   2.650   4.122   7.742  1.6152 -2.2264  0.1652
  123OSM   C17F13147   2.546   3.936   7.712 -0.0656  0.6078 -0.2018
  123OSM   H17F13148   2.629   3.915   7.641 -0.5567  0.9029 -0.8725
  123OSM   H17G13149   2.451   3.906   7.662 -1.0452 -0.0610  1.9492
  123OSM   C18F13150   2.573   3.877   7.849  0.0814  0.1481  0.0461
  123OSM   H18F13151   2.478   3.865   7.906 -0.6656 -0.1773 -1.2248
  123OSM   H18G13152   2.651   3.927   7.910 -1.3328 -0.8538  2.8613
  123OSM   H18H13153   2.603   3.774   7.823  0.2044  0.2645 -0.2752
  124OSM      N13154   5.468   0.598   6.010 -0.2267  0.6562 -0.4601
  124OSM    C1513155   5.421   0.551   5.872  0.5294  0.4710 -0.1157
  124OSM   H15A13156   5.384   0.635   5.814 -0.4162  0.6936  0.7806
  124OSM   H15B13157   5.329   0.495   5.877  1.6755 -2.1682 -3.8764
  124OSM   H15C13158   5.489   0.483   5.823 -0.0050  0.4628 -0.8599
  124OSM    C1413159   5.593   0.673   5.975 -0.1389  0.5185  1.0887
  124OSM   H14A13160   5.564   0.733   5.889 -1.3569 -0.7575  0.5658
  124OSM   H14B13161   5.671   0.607   5.941 -1.2597 -0.2485 -0.0842
  124OSM   H14C13162   5.614   0.737   6.060 -1.0887 -0.3781  2.0281
  124OSM    C1313163   5.356   0.676   6.072 -0.2459  0.5183  0.5057
  124OSM   H13A13164   5.334   0.761   6.008 -0.2545 -1.2393 -1.9833
  124OSM   H13B13165   5.378   0.707   6.173  0.6029 -0.8052  0.7464
  124OSM   H13C13166   5.268   0.614   6.083 -0.8101  1.2045 -0.0155
  124OSM    C1213167   5.511   0.483   6.107 -0.4453 -0.2614 -0.2144
  124OSM   H12A13168   5.595   0.430   6.064  0.2170 -1.9991  2.8680
  124OSM   H12B13169   5.434   0.407   6.109  0.0863 -0.8134 -0.2232
  124OSM    C1113170   5.556   0.525   6.256  0.7277 -0.5438  0.1198
  124OSM   H11A13171   5.592   0.435   6.310 -1.0962 -1.6909 -0.5169
  124OSM   H11B13172   5.468   0.562   6.312  0.3043 -0.6387 -0.4756
  124OSM      P13173   5.805   0.611   6.261  0.1976  0.3416  0.2717
  124OSM    O1313174   5.843   0.501   6.175  0.1120 -0.2025  0.1471
  124OSM    O1413175   5.876   0.735   6.234 -0.1373 -0.0600 -0.6849
  124OSM    O1113176   5.819   0.566   6.407  0.0707 -0.3319  0.0368
  124OSM    O1213177   5.648   0.632   6.248 -0.3800 -0.1251 -0.1891
  124OSM    C1S13178   5.771   0.657   6.509  0.1660  0.0084 -1.0324
  124OSM    H1S13179   5.660   0.660   6.510  0.1650  1.1511  0.7266
  124OSM    H1T13180   5.808   0.762   6.502  0.2675  0.0022 -0.6375
  124OSM     NF13181   5.774   0.692   6.757 -0.2239  0.4750 -0.9983
  124OSM    HNF13182   5.833   0.769   6.781  0.4639 -0.6620  1.2356
  124OSM    C2S13183   5.810   0.601   6.650  0.4621  0.1691  0.6957
  124OSM    H2S13184   5.755   0.505   6.658 -0.0767  0.3773 -0.3621
  124OSM    C3S13185   5.965   0.574   6.660  0.0138  0.1735 -0.0466
  124OSM    H3S13186   6.026   0.661   6.626  0.1565 -0.7430 -2.3551
  124OSM     O313187   5.999   0.472   6.573 -0.0066  0.5168 -0.4707
  124OSM    HO313188   5.931   0.473   6.505  1.0047 -0.0083 -1.5284
  124OSM    C4S13189   5.992   0.524   6.795  0.2818  0.5895 -0.1525
  124OSM    H4S13190   5.966   0.419   6.813  1.9686  0.0064 -0.9431
  124OSM    C5S13191   6.068   0.591   6.892 -0.2297 -0.3250 -0.0316
  124OSM    H5S13192   6.112   0.690   6.874  1.3480 -0.8359  0.8128
  124OSM    C6S13193   6.070   0.535   7.028 -0.4200 -0.0585 -0.0882
  124OSM    H6S13194   6.157   0.467   7.038 -0.9526 -0.5234  1.7864
  124OSM    H6T13195   5.986   0.468   7.054  0.1331 -1.2012 -1.1238
  124OSM    C7S13196   6.068   0.647   7.145  0.1552  0.2233  0.8832
  124OSM    H7S13197   6.005   0.734   7.117 -0.1172 -0.3531 -0.3715
  124OSM    H7T13198   6.170   0.688   7.160  0.2811  0.3587 -0.2792
  124OSM    C8S13199   6.023   0.584   7.278 -0.2437 -0.4167 -0.0923
  124OSM    H8S13200   6.088   0.501   7.313  3.7916  2.0741 -0.9342
  124OSM    H8T13201   5.921   0.545   7.263 -1.7273  3.2179 -0.5888
  124OSM    C9S13202   6.000   0.687   7.394 -0.5205 -0.3374 -0.4751
  124OSM    H9S13203   5.933   0.770   7.363 -1.0277  0.2424  1.9126
  124OSM    H9T13204   6.100   0.731   7.416 -0.9250  1.5767 -2.1643
  124OSM   C10S13205   5.970   0.608   7.515  0.1298 -0.3934 -0.5308
  124OSM   H10S13206   6.037   0.521   7.507 -0.0362 -0.5100 -0.6499
  124OSM   H10T13207   5.867   0.566   7.515 -0.2691  0.4981 -2.0626
  124OSM   C11S13208   5.998   0.668   7.653 -0.0084 -0.8858  0.1810
  124OSM   H11S13209   5.938   0.761   7.667 -0.8157 -1.0880 -1.6212
  124OSM   H11T13210   6.105   0.691   7.668  0.2025 -0.9518 -1.0783
  124OSM   C12S13211   5.967   0.563   7.759  0.7878  0.7327  0.1994
  124OSM   H12S13212   6.002   0.470   7.711  2.5913  0.4955  1.8501
  124OSM   H12T13213   5.857   0.550   7.767  0.7339  0.2184 -1.0595
  124OSM   C13S13214   6.037   0.589   7.892 -0.2464  0.6536  0.6859
  124OSM   H13S13215   5.995   0.678   7.942 -1.8098  0.2970  0.0607
  124OSM   H13T13216   6.143   0.609   7.865 -0.5722  0.2338 -1.0191
  124OSM   C14S13217   6.022   0.472   8.001 -1.3362 -0.3611  0.4310
  124OSM   H14S13218   6.056   0.382   7.946 -0.8958  1.9763 -3.6192
  124OSM   H14T13219   5.916   0.459   8.033 -1.1328 -3.2793  0.1493
  124OSM   C15S13220   6.107   0.509   8.118  1.3415 -0.2842 -0.6220
  124OSM   H15S13221   6.096   0.618   8.137 -1.9232 -0.4667 -0.9851
  124OSM   H15T13222   6.215   0.506   8.091  1.4563  0.9951 -0.3577
  124OSM   C16S13223   6.086   0.437   8.259  0.3017 -0.0699  0.3211
  124OSM   H16S13224   6.164   0.475   8.329  0.4514 -1.3632  0.9002
  124OSM   H16T13225   6.120   0.333   8.240 -1.3218 -0.6750  0.5046
  124OSM   C17S13226   5.962   0.450   8.326  0.1814 -0.4392 -0.0695
  124OSM   H17S13227   5.874   0.404   8.275  0.3991 -0.6487 -0.2596
  124OSM   H17T13228   5.943   0.559   8.331 -0.9123 -0.6411  0.4843
  124OSM   C18S13229   5.960   0.395   8.476 -0.5570  0.5128 -0.1077
  124OSM   H18S13230   5.979   0.285   8.473  1.2676  0.8183 -0.5926
  124OSM   H18T13231   5.858   0.415   8.515 -0.5009 -0.2108  0.4431
  124OSM   H18U13232   6.042   0.446   8.531 -0.8537 -0.5161  1.3510
  124OSM    C1F13233   5.653   0.699   6.812 -0.0822  0.5081  0.8111
  124OSM     OF13234   5.560   0.649   6.753 -0.0060 -0.1567  0.5012
  124OSM    C2F13235   5.635   0.762   6.950  0.1909  0.1286  0.8655
  124OSM    H2F13236   5.560   0.843   6.938 -1.7703 -1.5476  1.2445
  124OSM    H2G13237   5.733   0.811   6.967  0.3966 -0.4840  1.4650
  124OSM    C3F13238   5.597   0.650   7.054  0.0566  0.2594 -0.2409
  124OSM    H3F13239   5.673   0.573   7.031  1.7823  2.5240 -2.6891
  124OSM    H3G13240   5.495   0.612   7.033  0.9224 -3.1831  1.2336
  124OSM    C4F13241   5.599   0.716   7.193 -0.1929  0.3933  0.2988
  124OSM    H4F13242   5.518   0.791   7.183 -1.3789 -0.9537 -0.7550
  124OSM    H4G13243   5.692   0.772   7.215 -1.1041  1.1195  2.6966
  124OSM    C5F13244   5.572   0.616   7.308 -0.1759  0.1031 -0.0213
  124OSM    H5F13245   5.633   0.523   7.301 -0.3302 -0.0942  1.1394
  124OSM    H5G13246   5.470   0.583   7.280 -0.7225  1.1962  0.6621
  124OSM    C6F13247   5.581   0.686   7.443  0.9644 -0.1697  0.4172
  124OSM    H6F13248   5.512   0.773   7.448 -0.5883 -1.4252  2.2439
  124OSM    H6G13249   5.681   0.734   7.447  2.7475 -3.1432 -2.8066
  124OSM    C7F13250   5.550   0.593   7.565  0.4315  0.1573 -0.6218
  124OSM    H7F13251   5.614   0.504   7.553  1.2629  0.2929  2.0719
  124OSM    H7G13252   5.442   0.566   7.559  0.2598  0.6269  0.2207
  124OSM    C8F13253   5.580   0.660   7.703 -0.2801 -0.7706  0.7378
  124OSM    H8F13254   5.523   0.754   7.721  0.9369  0.5001 -1.5971
  124OSM    H8G13255   5.691   0.669   7.710 -0.3882  1.0329  0.6071
  124OSM    C9F13256   5.529   0.568   7.808  0.3292  0.6610 -0.4723
  124OSM    H9F13257   5.449   0.500   7.775  0.3537 -0.4119  1.5642
  124OSM   C10F13258   5.569   0.558   7.935 -0.8316  0.3393 -0.2729
  124OSM   H10F13259   5.531   0.474   7.995 -0.0013  1.0504  1.3367
  124OSM   C11F13260   5.688   0.636   7.992 -0.3167 -0.0549 -0.2764
  124OSM   H11F13261   5.760   0.657   7.910 -0.8798 -1.0658 -1.0412
  124OSM   H11G13262   5.740   0.565   8.060  1.6231  1.3347 -0.2258
  124OSM   C12F13263   5.662   0.777   8.059 -0.0832  0.2532 -0.0176
  124OSM   H12F13264   5.621   0.846   7.983  1.1049 -1.3909 -2.2547
  124OSM   H12G13265   5.765   0.816   8.077 -0.4571  1.3771 -0.2168
  124OSM   C13F13266   5.580   0.780   8.188 -0.1649  0.2701 -0.0772
  124OSM   H13F13267   5.472   0.783   8.160 -0.6249 -1.9807  1.2466
  124OSM   H13G13268   5.600   0.879   8.235 -1.7241  0.9947 -0.8466
  124OSM   C14F13269   5.593   0.663   8.295  1.0229 -0.2378  0.0962
  124OSM   H14F13270   5.700   0.646   8.319  1.0888  1.2852  1.0077
  124OSM   H14G13271   5.566   0.568   8.244 -0.4170  0.2501 -0.0927
  124OSM   C15F13272   5.515   0.675   8.433  0.8192  0.5409 -0.0539
  124OSM   H15F13273   5.540   0.771   8.484 -0.6012 -0.2879  2.3077
  124OSM   H15G13274   5.545   0.588   8.494 -0.8731 -0.2973 -0.3541
  124OSM   C16F13275   5.360   0.675   8.424 -0.4074 -0.6842  0.5286
  124OSM   H16F13276   5.321   0.593   8.360  1.3227 -0.1429 -1.3393
  124OSM   H16G13277   5.325   0.772   8.381 -1.9348 -2.0838 -1.5694
  124OSM   C17F13278   5.299   0.634   8.559  0.4594  0.4087 -0.0605
  124OSM   H17F13279   5.338   0.705   8.636  0.9595  1.4615 -1.2503
  124OSM   H17G13280   5.325   0.528   8.580  2.4571  0.4876 -1.8233
  124OSM   C18F13281   5.147   0.637   8.574 -0.2649 -0.5850 -0.5506
  124OSM   H18F13282   5.100   0.737   8.558 -1.6546 -0.9479  0.9875
  124OSM   H18G13283   5.112   0.595   8.671  0.5675  1.1352  0.5455
  124OSM   H18H13284   5.102   0.578   8.492 -0.2358  1.3238 -2.0082
  125OSM      N13285   5.532   3.582   5.848 -0.3210 -0.3095  0.7211
  125OSM    C1513286   5.458   3.451   5.850 -0.3942  0.3054 -0.2125
  125OSM   H15A13287   5.368   3.465   5.792  0.8327  1.5892 -1.9319
  125OSM   H15B13288   5.432   3.408   5.945 -0.8610  0.3944 -0.2945
  125OSM   H15C13289   5.507   3.367   5.802 -2.0183 -0.2293 -1.0212
  125OSM    C1413290   5.585   3.601   5.706 -0.7095  0.0103  0.2250
  125OSM   H14A13291   5.659   3.524   5.694 -0.1242  0.2018  2.1814
  125OSM   H14B13292   5.631   3.698   5.694 -1.2094  0.6001  2.5648
  125OSM   H14C13293   5.500   3.592   5.640 -0.1904  0.4539 -0.5097
  125OSM    C1313294   5.438   3.690   5.872  0.4732  0.5895  0.2071
  125OSM   H13A13295   5.353   3.679   5.806  1.4808  0.5355 -1.1227
  125OSM   H13B13296   5.473   3.790   5.851 -0.1058  0.6594 -0.4630
  125OSM   H13C13297   5.404   3.693   5.975  0.9326  1.1449  0.3491
  125OSM    C1213298   5.653   3.585   5.948 -0.0505  0.0299  0.2581
  125OSM   H12A13299   5.722   3.660   5.912 -1.2374 -0.0537 -2.4983
  125OSM   H12B13300   5.694   3.486   5.950 -0.8125 -0.2915  0.5329
  125OSM    C1113301   5.631   3.627   6.094  0.3244 -0.1364 -0.0797
  125OSM   H11A13302   5.586   3.728   6.094  0.7052  0.0407 -0.7961
  125OSM   H11B13303   5.723   3.633   6.156 -0.3403 -2.6713  1.2765
  125OSM      P13304   5.573   3.391   6.195 -0.2905 -0.3505  0.0625
  125OSM    O1313305   5.457   3.308   6.156  0.0269 -0.8926  0.4291
  125OSM    O1413306   5.706   3.366   6.133 -0.1383 -0.4499 -0.4843
  125OSM    O1113307   5.592   3.384   6.347 -0.2306  0.2448  0.5606
  125OSM    O1213308   5.539   3.542   6.166 -0.7271  0.4686 -0.1517
  125OSM    C1S13309   5.496   3.302   6.422 -0.1601 -0.5180  0.8872
  125OSM    H1S13310   5.519   3.194   6.405 -0.5939 -0.2393 -1.9570
  125OSM    H1T13311   5.389   3.323   6.399  0.4824  1.6518 -0.3532
  125OSM     NF13312   5.451   3.225   6.653  0.5330  0.4849 -0.5138
  125OSM    HNF13313   5.363   3.242   6.696 -0.5698 -1.4900 -1.8541
  125OSM    C2S13314   5.510   3.329   6.571  0.3314  0.7073 -0.3572
  125OSM    H2S13315   5.621   3.325   6.573  0.5547  1.3725 -3.8503
  125OSM    C3S13316   5.459   3.478   6.605 -0.6834 -0.8661  0.1836
  125OSM    H3S13317   5.359   3.503   6.564 -1.2359 -0.0674  1.9101
  125OSM     O313318   5.549   3.585   6.545  0.2525  0.2491  0.6578
  125OSM    HO313319   5.598   3.533   6.481 -1.5725 -0.1900 -0.4737
  125OSM    C4S13320   5.445   3.498   6.756  0.0626 -0.1771  0.1899
  125OSM    H4S13321   5.343   3.469   6.786  0.0002  1.5148  1.7433
  125OSM    C5S13322   5.540   3.545   6.838  0.8074  0.5948  0.3230
  125OSM    H5S13323   5.634   3.587   6.801  0.9940  2.2556  2.4671
  125OSM    C6S13324   5.528   3.576   6.987  0.1392  0.5240 -0.3105
  125OSM    H6S13325   5.573   3.673   7.018  1.8237 -0.3381  0.0531
  125OSM    H6T13326   5.577   3.497   7.047  0.5055  2.8420  2.6311
  125OSM    C7S13327   5.379   3.566   7.047  0.1875  0.3682 -0.1597
  125OSM    H7S13328   5.319   3.479   7.014  0.2570 -0.3813  1.5724
  125OSM    H7T13329   5.338   3.664   7.016 -1.3364 -0.2156 -0.0610
  125OSM    C8S13330   5.385   3.578   7.199 -0.1648 -0.0563 -0.1031
  125OSM    H8S13331   5.454   3.506   7.248  0.1747  1.7416  2.2104
  125OSM    H8T13332   5.285   3.553   7.239  0.2718 -1.1396  0.3556
  125OSM    C9S13333   5.414   3.718   7.253 -0.4090 -0.1068  0.5785
  125OSM    H9S13334   5.337   3.782   7.206  0.2760  1.2559  1.2630
  125OSM    H9T13335   5.510   3.761   7.218 -1.4616  1.7866 -0.1177
  125OSM   C10S13336   5.408   3.736   7.406  0.7592  0.4184 -0.0677
  125OSM   H10S13337   5.444   3.840   7.415  1.2574  0.3919 -1.6035
  125OSM   H10T13338   5.469   3.664   7.464  0.6535  0.6714  0.3623
  125OSM   C11S13339   5.269   3.704   7.477  0.3427 -0.9313  0.0668
  125OSM   H11S13340   5.242   3.600   7.452  2.4163 -0.9795 -2.4192
  125OSM   H11T13341   5.196   3.763   7.417  1.8994  1.2046  0.1394
  125OSM   C12S13342   5.255   3.732   7.629  0.3171 -0.0125  0.3960
  125OSM   H12S13343   5.286   3.837   7.650 -2.8581  0.6934  2.1381
  125OSM   H12T13344   5.319   3.662   7.687  0.4195  0.2724  0.6340
  125OSM   C13S13345   5.104   3.711   7.683 -0.4494 -0.1894  0.2749
  125OSM   H13S13346   5.084   3.602   7.687 -1.7013  0.0419  0.6143
  125OSM   H13T13347   5.036   3.747   7.604  1.6152  1.2598 -0.9521
  125OSM   C14S13348   5.079   3.765   7.821 -0.2778  0.0068  0.3134
  125OSM   H14S13349   4.977   3.741   7.859 -0.7436  3.3621  1.5544
  125OSM   H14T13350   5.098   3.875   7.825  0.4711 -0.1307  0.9218
  125OSM   C15S13351   5.146   3.696   7.936  0.0550  0.0684 -0.1869
  125OSM   H15S13352   5.257   3.683   7.934  0.2134  0.5635  2.4030
  125OSM   H15T13353   5.108   3.592   7.949  0.1947 -0.1678 -1.4741
  125OSM   C16S13354   5.138   3.763   8.073  0.5691 -0.2022  0.0389
  125OSM   H16S13355   5.185   3.863   8.074  0.8053 -0.2967  1.4397
  125OSM   H16T13356   5.197   3.700   8.144  1.7691  2.2324  1.3307
  125OSM   C17S13357   4.998   3.765   8.129  0.5791 -0.2083  0.1251
  125OSM   H17S13358   4.954   3.664   8.135  0.4320 -0.1884 -0.5554
  125OSM   H17T13359   4.942   3.812   8.046 -1.6096 -2.3806  0.2817
  125OSM   C18S13360   4.980   3.836   8.265  0.2105  0.1280 -0.7194
  125OSM   H18S13361   5.029   3.790   8.353 -2.0742  0.5604  0.8529
  125OSM   H18T13362   4.874   3.839   8.298  0.1240 -0.6400 -0.8868
  125OSM   H18U13363   5.012   3.940   8.245 -2.2586  0.9293 -0.8135
  125OSM    C1F13364   5.507   3.103   6.668  0.4512 -0.8167 -0.0026
  125OSM     OF13365   5.618   3.080   6.627  0.1626  0.8065  0.4209
  125OSM    C2F13366   5.433   2.998   6.743  0.4362 -0.9008 -0.1526
  125OSM    H2F13367   5.418   2.906   6.683  0.6277  0.2187 -1.9799
  125OSM    H2G13368   5.328   3.034   6.749  0.8945  0.7178 -1.2729
  125OSM    C3F13369   5.500   2.951   6.877  0.4169  0.5908 -0.4289
  125OSM    H3F13370   5.610   2.943   6.865  0.2704 -2.2962 -0.4797
  125OSM    H3G13371   5.473   2.846   6.899  2.8668 -0.0703 -0.3080
  125OSM    C4F13372   5.472   3.040   7.001  0.1207 -0.2919  0.4788
  125OSM    H4F13373   5.361   3.031   7.001  0.1394 -1.1311 -1.4353
  125OSM    H4G13374   5.493   3.146   6.976 -0.0580  0.1006  1.8995
  125OSM    C5F13375   5.540   2.994   7.126  0.6770 -0.2989  0.5478
  125OSM    H5F13376   5.651   3.007   7.118  0.3674  1.5199 -2.4613
  125OSM    H5G13377   5.519   2.886   7.136 -0.1665 -0.4392 -2.1148
  125OSM    C6F13378   5.482   3.066   7.253 -0.2323  0.0855 -0.2330
  125OSM    H6F13379   5.379   3.029   7.269 -0.0788 -0.4726 -0.5039
  125OSM    H6G13380   5.497   3.176   7.244  3.5631 -0.4246 -2.1325
  125OSM    C7F13381   5.565   3.022   7.373  0.4818 -0.1144  0.2438
  125OSM    H7F13382   5.645   3.096   7.391 -0.0978  0.0284  2.5700
  125OSM    H7G13383   5.617   2.924   7.365  0.2492 -0.3227  1.1549
  125OSM    C8F13384   5.473   2.995   7.499 -0.6951 -0.7316 -0.8800
  125OSM    H8F13385   5.548   2.939   7.560 -0.8563 -1.7979 -1.6331
  125OSM    H8G13386   5.386   2.931   7.473 -2.4097  0.4727  1.4993
  125OSM    C9F13387   5.437   3.124   7.569  0.0606  0.3765 -0.3445
  125OSM    H9F13388   5.451   3.214   7.508  2.7010  0.9144  0.9265
  125OSM   C10F13389   5.417   3.146   7.701 -0.5770 -0.7374  0.5766
  125OSM   H10F13390   5.393   3.250   7.729 -0.6139 -0.6722  0.3058
  125OSM   C11F13391   5.417   3.037   7.805  0.3249 -0.0945 -0.0433
  125OSM   H11F13392   5.474   3.068   7.895  0.5927 -0.7722  0.0297
  125OSM   H11G13393   5.467   2.939   7.789  3.7725  1.1062  2.1079
  125OSM   C12F13394   5.270   2.996   7.840  0.5560 -0.4795  0.2572
  125OSM   H12F13395   5.242   2.938   7.749 -0.5447  0.8297 -0.2782
  125OSM   H12G13396   5.201   3.083   7.840  0.1515 -0.7994  0.5746
  125OSM   C13F13397   5.250   2.910   7.959  0.2697  0.7161  0.1379
  125OSM   H13F13398   5.319   2.822   7.966 -0.8447 -0.5213 -2.8857
  125OSM   H13G13399   5.151   2.867   7.934  1.4932 -2.2745 -0.1023
  125OSM   C14F13400   5.246   2.990   8.095 -0.4266  0.2272 -0.7942
  125OSM   H14F13401   5.338   3.052   8.101  0.4116 -1.0635  0.3744
  125OSM   H14G13402   5.256   2.922   8.183 -0.5609 -0.1944 -1.0992
  125OSM   C15F13403   5.132   3.094   8.123  0.2375  0.4248  0.5766
  125OSM   H15F13404   5.038   3.041   8.148 -0.4408  1.6376  0.6465
  125OSM   H15G13405   5.104   3.141   8.026  0.0023 -0.9684 -0.0678
  125OSM   C16F13406   5.160   3.211   8.216  0.2577 -0.0222  0.2325
  125OSM   H16F13407   5.242   3.280   8.187  1.3072 -0.3491  2.2516
  125OSM   H16G13408   5.181   3.153   8.308 -0.1206 -0.4503  0.0546
  125OSM   C17F13409   5.031   3.295   8.238  1.4246  0.5186 -0.1347
  125OSM   H17F13410   5.014   3.372   8.160 -0.5671 -1.4285 -1.7398
  125OSM   H17G13411   5.056   3.353   8.330  0.7598 -2.4211  2.0396
  125OSM   C18F13412   4.901   3.218   8.271 -0.0356 -0.1489  0.0217
  125OSM   H18F13413   4.880   3.154   8.183  0.5905 -0.1976 -0.0960
  125OSM   H18G13414   4.814   3.279   8.304  0.5215 -0.1937  1.6636
  125OSM   H18H13415   4.916   3.155   8.361  1.3622 -1.0048 -0.7773
  126OSM      N13416   2.084   2.273   6.524  0.2755  0.0229 -0.2406
  126OSM    C1513417   2.148   2.139   6.575  0.5445 -0.1359  0.1793
  126OSM   H15A13418   2.250   2.139   6.610  0.7430  0.4395 -0.3923
  126OSM   H15B13419   2.162   2.077   6.488  1.5172 -2.4265  1.8245
  126OSM   H15C13420   2.079   2.101   6.650  0.3628  1.9278  1.1213
  126OSM    C1413421   2.152   2.315   6.396  0.3822  0.4211  0.2209
  126OSM   H14A13422   2.108   2.261   6.313 -0.4973 -0.6749  1.3489
  126OSM   H14B13423   2.255   2.281   6.387 -0.0949 -0.7924 -1.1172
  126OSM   H14C13424   2.144   2.420   6.376  1.0379  0.7525  1.5642
  126OSM    C1313425   1.943   2.237   6.493  0.1075 -0.6012 -1.2592
  126OSM   H13A13426   1.898   2.199   6.583  2.8874 -0.2037  0.4249
  126OSM   H13B13427   1.936   2.159   6.419 -1.7035 -0.2852 -1.4600
  126OSM   H13C13428   1.893   2.330   6.467 -0.7427 -0.8282 -0.4773
  126OSM    C1213429   2.083   2.379   6.632  0.0414  0.1424  0.3043
  126OSM   H12A13430   2.183   2.391   6.672  0.6530 -2.1270 -0.3843
  126OSM   H12B13431   2.018   2.346   6.712  0.0583 -2.5986 -0.6804
  126OSM    C1113432   2.038   2.518   6.589 -0.6290  0.5979 -0.4618
  126OSM   H11A13433   2.020   2.585   6.676  1.3524  0.1408  0.3458
  126OSM   H11B13434   1.944   2.503   6.531 -0.0457  1.0654 -1.5758
  126OSM      P13435   2.239   2.682   6.529  0.7216 -0.5739  0.1582
  126OSM    O1313436   2.358   2.655   6.449 -0.6609 -0.1570  0.6180
  126OSM    O1413437   2.182   2.819   6.504 -0.1758 -0.1235 -0.5107
  126OSM    O1113438   2.257   2.653   6.684 -0.2991  0.1596  0.3117
  126OSM    O1213439   2.131   2.578   6.499  0.0917  0.4530  0.2344
  126OSM    C1S13440   2.367   2.725   6.754 -0.0299 -0.3336  0.1150
  126OSM    H1S13441   2.340   2.830   6.775 -0.4918 -0.6752  1.3499
  126OSM    H1T13442   2.457   2.740   6.690  1.6432 -1.8532  1.9687
  126OSM     NF13443   2.515   2.749   6.942 -0.5727 -0.3973 -0.5244
  126OSM    HNF13444   2.607   2.714   6.928 -0.3175  0.2495 -0.5175
  126OSM    C2S13445   2.409   2.667   6.891 -0.3503  0.1177  0.1103
  126OSM    H2S13446   2.321   2.675   6.958 -1.1537 -2.6035 -0.5375
  126OSM    C3S13447   2.456   2.520   6.876  0.1858  0.6116  0.1565
  126OSM    H3S13448   2.545   2.526   6.809  0.7824  1.7002  1.0198
  126OSM     O313449   2.351   2.434   6.822  0.4900  0.1179  0.2461
  126OSM    HO313450   2.283   2.498   6.802  0.2500 -0.0572  0.4843
  126OSM    C4S13451   2.504   2.473   7.017 -0.0387 -0.4744 -0.7383
  126OSM    H4S13452   2.611   2.481   7.039 -0.2990  0.3527  0.2936
  126OSM    C5S13453   2.427   2.427   7.117 -0.5057  0.0232 -0.0810
  126OSM    H5S13454   2.317   2.427   7.106 -0.7984 -3.1319  1.5628
  126OSM    C6S13455   2.469   2.382   7.255 -0.0436 -0.4897  0.4478
  126OSM    H6S13456   2.541   2.299   7.235 -1.6264 -1.4158 -1.8775
  126OSM    H6T13457   2.390   2.342   7.321 -0.8635  0.1618 -0.1258
  126OSM    C7S13458   2.523   2.494   7.345  0.5044 -0.1868 -0.4309
  126OSM    H7S13459   2.433   2.560   7.350 -0.7439 -1.8805  1.0759
  126OSM    H7T13460   2.608   2.558   7.314  0.5421  0.8812  1.6523
  126OSM    C8S13461   2.555   2.447   7.482  1.1913 -0.0797  0.7852
  126OSM    H8S13462   2.644   2.383   7.469  1.2876  0.0936  0.5734
  126OSM    H8T13463   2.473   2.386   7.525  0.2368 -0.3267 -1.2535
  126OSM    C9S13464   2.580   2.560   7.579  0.2820 -0.5407 -0.4857
  126OSM    H9S13465   2.489   2.624   7.582 -1.5956 -3.0086 -0.8057
  126OSM    H9T13466   2.663   2.619   7.537  0.9410 -0.4355  0.9035
  126OSM   C10S13467   2.615   2.507   7.717 -0.3465 -0.7414 -0.0462
  126OSM   H10S13468   2.711   2.452   7.713 -0.1482 -0.3272 -1.4204
  126OSM   H10T13469   2.535   2.436   7.749  0.8140 -3.1634 -2.2282
  126OSM   C11S13470   2.622   2.608   7.827 -0.6652  0.0865 -0.4829
  126OSM   H11S13471   2.527   2.666   7.829  0.0667  1.2900  0.5057
  126OSM   H11T13472   2.707   2.677   7.807 -0.0155  0.5798  3.3211
  126OSM   C12S13473   2.646   2.552   7.967 -0.1883 -0.2942  0.5349
  126OSM   H12S13474   2.729   2.480   7.955  1.5504  1.4335  1.5612
  126OSM   H12T13475   2.554   2.498   7.997 -0.0442 -0.1571  1.2418
  126OSM   C13S13476   2.682   2.662   8.073 -0.6132 -0.4975 -0.4525
  126OSM   H13S13477   2.589   2.723   8.085 -0.1736  0.5529 -2.0286
  126OSM   H13T13478   2.763   2.730   8.039  1.6378 -1.3393  2.7857
  126OSM   C14S13479   2.730   2.602   8.209  0.0637 -0.6832  0.3877
  126OSM   H14S13480   2.812   2.530   8.191  0.5726  0.1024 -0.5136
  126OSM   H14T13481   2.650   2.543   8.258 -0.6730  0.4805  0.6334
  126OSM   C15S13482   2.794   2.704   8.302 -0.1062  0.1923  0.3044
  126OSM   H15S13483   2.890   2.740   8.259  1.0011 -0.9799  1.6849
  126OSM   H15T13484   2.819   2.659   8.400  2.0066  1.0097  0.1902
  126OSM   C16S13485   2.701   2.825   8.338  0.5059  0.0419 -0.4669
  126OSM   H16S13486   2.701   2.892   8.250  0.8637 -0.9784 -1.2548
  126OSM   H16T13487   2.745   2.881   8.424 -0.8914 -0.4836  0.6267
  126OSM   C17S13488   2.562   2.790   8.385 -0.2592 -0.2294  0.0229
  126OSM   H17S13489   2.564   2.721   8.472 -1.1193 -2.7352 -1.8149
  126OSM   H17T13490   2.505   2.728   8.312 -0.0593 -1.7904  1.1422
  126OSM   C18S13491   2.485   2.914   8.400  0.3931 -0.5993 -0.2594
  126OSM   H18S13492   2.483   2.967   8.303  1.1234  0.3499  0.2303
  126OSM   H18T13493   2.529   3.002   8.452 -3.7862  1.0689  0.8752
  126OSM   H18U13494   2.381   2.892   8.433  0.2768  1.1258  0.6568
  126OSM    C1F13495   2.509   2.869   6.988 -0.2998 -0.3630 -0.7883
  126OSM     OF13496   2.397   2.924   6.992 -0.5034  0.3729 -0.4749
  126OSM    C2F13497   2.644   2.930   7.032 -0.3162 -0.3556 -0.0511
  126OSM    H2F13498   2.672   3.019   6.972 -0.7013 -0.3651 -0.2482
  126OSM    H2G13499   2.724   2.854   7.017 -0.9626 -1.5763  2.2266
  126OSM    C3F13500   2.650   2.967   7.183 -0.0776 -0.0515 -0.2980
  126OSM    H3F13501   2.605   3.068   7.196 -0.1974  0.0349 -1.2633
  126OSM    H3G13502   2.755   2.977   7.218  0.0743  0.2614 -0.8199
  126OSM    C4F13503   2.586   2.863   7.277 -0.4367  0.5822 -0.1468
  126OSM    H4F13504   2.654   2.775   7.287  1.3028  1.8309 -0.4543
  126OSM    H4G13505   2.490   2.836   7.228 -0.6387  0.4657  0.3145
  126OSM    C5F13506   2.549   2.923   7.414  0.1620 -0.5428  0.1221
  126OSM    H5F13507   2.502   2.846   7.479  0.2912 -0.1346  0.7132
  126OSM    H5G13508   2.475   3.005   7.412  0.1874 -0.5269 -1.9641
  126OSM    C6F13509   2.677   2.978   7.475  0.1974  0.1620  1.2705
  126OSM    H6F13510   2.674   3.084   7.443  0.9569 -0.2201 -0.1794
  126OSM    H6G13511   2.762   2.920   7.431 -0.9519 -0.6639  0.0800
  126OSM    C7F13512   2.665   2.977   7.631 -1.0418 -0.9624  0.7793
  126OSM    H7F13513   2.651   2.871   7.661 -1.9783  0.0313  4.2755
  126OSM    H7G13514   2.572   3.035   7.651 -1.8591 -1.6164 -0.8914
  126OSM    C8F13515   2.786   3.049   7.698  1.0024 -0.3098 -0.7818
  126OSM    H8F13516   2.866   3.058   7.621  2.1295 -0.5707  0.3263
  126OSM    H8G13517   2.828   2.991   7.783  0.5183  0.9239  0.3355
  126OSM    C9F13518   2.742   3.180   7.756  0.2267 -0.6320  0.7332
  126OSM    H9F13519   2.748   3.263   7.684 -1.6851 -0.3559  0.8542
  126OSM   C10F13520   2.719   3.213   7.886  0.0003 -0.2272 -0.1332
  126OSM   H10F13521   2.703   3.320   7.909 -0.3340 -0.1665 -0.6284
  126OSM   C11F13522   2.724   3.115   8.007 -0.6728 -0.2928  0.1252
  126OSM   H11F13523   2.736   3.010   7.973  0.8746 -0.7211  1.8743
  126OSM   H11G13524   2.638   3.124   8.077  0.6206 -1.1755  1.9057
  126OSM   C12F13525   2.849   3.136   8.098 -0.0243 -0.1778 -0.2940
  126OSM   H12F13526   2.839   3.085   8.196  1.7761  1.8232  1.0116
  126OSM   H12G13527   2.853   3.246   8.110 -3.8849  0.0865 -0.2065
  126OSM   C13F13528   2.979   3.087   8.030 -0.3536  0.3520  0.3520
  126OSM   H13F13529   2.998   3.150   7.941  0.7929 -0.9909 -0.4023
  126OSM   H13G13530   2.975   2.982   7.992 -1.3916 -0.0091  1.3830
  126OSM   C14F13531   3.110   3.087   8.114  0.0428 -0.5134 -0.3717
  126OSM   H14F13532   3.200   3.076   8.050 -0.2884  0.5571 -1.0350
  126OSM   H14G13533   3.096   2.994   8.173 -0.0594 -1.3937 -1.7262
  126OSM   C15F13534   3.128   3.210   8.207  0.4450  0.2011  0.7770
  126OSM   H15F13535   3.042   3.211   8.278 -0.4130 -0.3804 -0.2173
  126OSM   H15G13536   3.116   3.303   8.148  0.7267  1.0941  2.1001
  126OSM   C16F13537   3.252   3.218   8.296 -0.5662 -0.0891  0.3542
  126OSM   H16F13538   3.251   3.301   8.370  1.1464  0.4163 -0.1322
  126OSM   H16G13539   3.333   3.241   8.224 -1.1328 -0.1291 -0.3012
  126OSM   C17F13540   3.291   3.080   8.374  0.6435  0.1142  0.8474
  126OSM   H17F13541   3.392   3.083   8.420  0.4953 -1.4095  1.3071
  126OSM   H17G13542   3.300   3.010   8.289 -0.8353  1.7113 -0.7095
  126OSM   C18F13543   3.189   3.024   8.479  0.1104  0.2657  0.0515
  126OSM   H18F13544   3.228   2.932   8.528  0.8744  0.5069 -0.0933
  126OSM   H18G13545   3.095   3.006   8.423  0.4777 -0.7525 -0.2641
  126OSM   H18H13546   3.180   3.095   8.564 -2.5950 -1.5865  1.4645
  127OSM      N13547   2.565   1.205   5.905  0.1776  0.1514  0.1647
  127OSM    C1513548   2.615   1.072   5.856 -0.1894  0.5127  0.7003
  127OSM   H15A13549   2.599   1.075   5.749 -0.8762 -0.9240  0.7497
  127OSM   H15B13550   2.555   0.991   5.895 -0.8682 -0.1602 -1.5570
  127OSM   H15C13551   2.718   1.055   5.884 -0.7010 -3.7639  0.6386
  127OSM    C1413552   2.647   1.310   5.840 -0.1090 -0.3123 -0.0721
  127OSM   H14A13553   2.649   1.298   5.733 -0.1420  0.8534 -0.2147
  127OSM   H14B13554   2.749   1.306   5.873 -0.1371  0.7561  0.1701
  127OSM   H14C13555   2.607   1.406   5.871 -0.4251 -0.3081 -0.4836
  127OSM    C1313556   2.431   1.221   5.846  0.9613  0.0842  0.5706
  127OSM   H13A13557   2.424   1.199   5.740 -2.2032 -2.6269  1.1841
  127OSM   H13B13558   2.392   1.320   5.865  3.1227  0.6673  2.4251
  127OSM   H13C13559   2.359   1.157   5.894  2.7390  0.0440  3.4025
  127OSM    C1213560   2.557   1.202   6.052  0.3935 -0.1993  0.5785
  127OSM   H12A13561   2.476   1.135   6.078 -2.3428  1.9998 -1.6716
  127OSM   H12B13562   2.531   1.300   6.088 -0.3191  0.3859 -1.3990
  127OSM    C1113563   2.693   1.176   6.131 -0.4121 -0.4403 -0.0553
  127OSM   H11A13564   2.738   1.082   6.091 -1.7140  0.4959 -4.1658
  127OSM   H11B13565   2.667   1.168   6.239  0.2461  0.3681  0.1804
  127OSM      P13566   2.790   1.410   6.205 -0.2257  0.0190  0.2672
  127OSM    O1313567   2.894   1.500   6.159  0.6395 -0.5314  0.1113
  127OSM    O1413568   2.656   1.472   6.201  0.3194 -0.5207 -0.0770
  127OSM    O1113569   2.831   1.350   6.348 -0.0186 -0.3386  0.4722
  127OSM    O1213570   2.788   1.278   6.113  0.3046 -0.3324  0.0811
  127OSM    C1S13571   2.740   1.345   6.456  0.0257 -0.8163 -1.2547
  127OSM    H1S13572   2.664   1.265   6.442 -0.1648 -0.5587 -1.7579
  127OSM    H1T13573   2.693   1.446   6.458 -1.7216 -1.5162 -3.2145
  127OSM     NF13574   2.712   1.334   6.700 -0.4596 -0.0967  0.1711
  127OSM    HNF13575   2.729   1.410   6.763  0.7683  0.6845 -1.0446
  127OSM    C2S13576   2.811   1.328   6.590  0.4051 -0.7323  0.3860
  127OSM    H2S13577   2.853   1.225   6.597 -1.7982 -1.7304 -0.3682
  127OSM    C3S13578   2.933   1.427   6.608  0.6769  0.0164 -1.3367
  127OSM    H3S13579   2.885   1.525   6.626 -2.7371 -2.0677  2.4770
  127OSM     O313580   3.016   1.460   6.494 -0.1755  0.4214  0.1333
  127OSM    HO313581   2.957   1.428   6.426  0.9762  0.4965 -0.9432
  127OSM    C4S13582   3.029   1.399   6.724 -0.5220 -0.6364  0.3716
  127OSM    H4S13583   3.000   1.440   6.822 -0.2728  0.4914 -0.0195
  127OSM    C5S13584   3.146   1.332   6.714 -0.1222  0.4451  0.2737
  127OSM    H5S13585   3.185   1.303   6.616  3.1229 -2.8773  2.2704
  127OSM    C6S13586   3.242   1.301   6.827  0.8274 -0.1111 -0.0698
  127OSM    H6S13587   3.238   1.198   6.869  1.5089  0.9539  2.8774
  127OSM    H6T13588   3.206   1.355   6.918  1.4970 -1.2300  0.8973
  127OSM    C7S13589   3.388   1.330   6.796 -0.5115 -0.3945  0.1436
  127OSM    H7S13590   3.423   1.424   6.749  0.4243  0.3682  2.2304
  127OSM    H7T13591   3.403   1.252   6.718 -1.6567 -2.0114  1.4745
  127OSM    C8S13592   3.494   1.309   6.914  0.1173  0.1754 -0.1080
  127OSM    H8S13593   3.484   1.402   6.975 -0.3057 -0.3764  0.6842
  127OSM    H8T13594   3.593   1.300   6.866  0.6428 -0.8561  1.1216
  127OSM    C9S13595   3.475   1.186   6.999 -0.2730  0.5147  0.4263
  127OSM    H9S13596   3.506   1.103   6.932 -0.5474  1.1807 -0.5476
  127OSM    H9T13597   3.370   1.178   7.032 -0.8192  3.1472 -0.4802
  127OSM   C10S13598   3.569   1.180   7.124 -0.4326  0.2129 -0.2561
  127OSM   H10S13599   3.552   1.244   7.213  3.2958 -2.2864  2.5786
  127OSM   H10T13600   3.671   1.209   7.091  0.0280 -0.5939  0.4093
  127OSM   C11S13601   3.574   1.036   7.187 -0.3905 -0.0843 -0.8793
  127OSM   H11S13602   3.616   0.960   7.118 -0.3923 -0.7370 -0.1679
  127OSM   H11T13603   3.478   1.004   7.233  0.3520 -1.2641 -0.0891
  127OSM   C12S13604   3.665   1.039   7.302  0.4521 -0.2226  0.1923
  127OSM   H12S13605   3.625   1.124   7.361 -1.1769  1.3427 -2.9301
  127OSM   H12T13606   3.768   1.056   7.262  0.5739 -0.7165  0.2990
  127OSM   C13S13607   3.670   0.912   7.371 -0.0498  0.5665 -0.0070
  127OSM   H13S13608   3.672   0.825   7.303 -1.1324  0.7620 -0.2996
  127OSM   H13T13609   3.580   0.896   7.434  0.1181 -0.6215 -0.0415
  127OSM   C14S13610   3.786   0.888   7.471 -0.6089 -0.1688 -0.2260
  127OSM   H14S13611   3.808   0.976   7.536  2.6991  0.6751 -2.2421
  127OSM   H14T13612   3.877   0.900   7.409 -0.6322  4.1470  0.2396
  127OSM   C15S13613   3.782   0.761   7.554 -0.1145  0.0812 -0.4191
  127OSM   H15S13614   3.755   0.685   7.478  1.2880  0.3109 -1.1869
  127OSM   H15T13615   3.690   0.749   7.616 -0.8261  1.7153 -1.0897
  127OSM   C16S13616   3.910   0.722   7.630 -0.0164 -0.1407 -0.1870
  127OSM   H16S13617   3.993   0.773   7.578  0.7228 -0.4471  0.6620
  127OSM   H16T13618   3.925   0.612   7.632  2.1855  0.1303  1.1975
  127OSM   C17S13619   3.921   0.763   7.781  0.9195 -0.1950  0.6586
  127OSM   H17S13620   3.829   0.732   7.835 -1.2270  0.1255 -2.5482
  127OSM   H17T13621   3.923   0.873   7.796 -1.1736 -0.2380  1.6922
  127OSM   C18S13622   4.046   0.700   7.840 -0.4217 -0.0250  0.6032
  127OSM   H18S13623   4.135   0.734   7.783  0.3299 -0.1743  1.6652
  127OSM   H18T13624   4.046   0.589   7.840 -0.4889 -0.0908 -1.9140
  127OSM   H18U13625   4.055   0.718   7.949 -0.4489 -0.9280  0.7626
  127OSM    C1F13626   2.624   1.236   6.727  0.7875  0.1638 -0.2211
  127OSM     OF13627   2.598   1.138   6.655 -1.1993 -0.3001  0.5866
  127OSM    C2F13628   2.545   1.260   6.851  0.1922 -0.0461  0.2812
  127OSM    H2F13629   2.436   1.238   6.840 -0.3227  0.6051  3.2428
  127OSM    H2G13630   2.557   1.366   6.881  1.3575  0.0419 -0.4428
  127OSM    C3F13631   2.604   1.171   6.967 -0.1108  0.3873  0.2134
  127OSM    H3F13632   2.585   1.063   6.949  1.9867 -0.1698  1.1073
  127OSM    H3G13633   2.556   1.204   7.062 -1.0084 -0.2542 -0.0028
  127OSM    C4F13634   2.753   1.170   6.981  0.1302 -0.5674  0.1160
  127OSM    H4F13635   2.771   1.278   6.999  3.0395 -0.9026 -0.3843
  127OSM    H4G13636   2.808   1.137   6.891  1.6790  3.9038 -0.8353
  127OSM    C5F13637   2.805   1.080   7.092 -0.6465 -0.4840  0.2002
  127OSM    H5F13638   2.810   0.976   7.054 -0.7326 -0.8208  1.1052
  127OSM    H5G13639   2.738   1.075   7.180 -0.8882 -2.4119 -0.0687
  127OSM    C6F13640   2.942   1.117   7.143 -0.2283  0.4024 -0.0827
  127OSM    H6F13641   2.941   1.209   7.205  1.6369 -0.5117  1.4070
  127OSM    H6G13642   3.020   1.134   7.066  1.8644 -0.9969  1.6074
  127OSM    C7F13643   2.973   1.011   7.259  0.3678  0.1226 -0.2704
  127OSM    H7F13644   2.951   0.905   7.234  0.6864  0.2755 -1.2580
  127OSM    H7G13645   2.902   1.046   7.336  0.0055  1.4504 -1.1785
  127OSM    C8F13646   3.110   1.016   7.334  1.0338  0.2657  0.1992
  127OSM    H8F13647   3.188   0.996   7.258  0.9321 -1.2297  0.4638
  127OSM    H8G13648   3.107   0.932   7.407  0.5225  0.6935  0.6807
  127OSM    C9F13649   3.155   1.147   7.392  0.2138 -0.6332  0.4783
  127OSM    H9F13650   3.224   1.215   7.338 -0.7845  1.2154  1.4418
  127OSM   C10F13651   3.116   1.182   7.513  0.1380 -0.1767 -0.1813
  127OSM   H10F13652   3.162   1.271   7.559 -0.9274  1.1555 -1.6125
  127OSM   C11F13653   3.015   1.106   7.604 -0.1305 -0.2567  0.4713
  127OSM   H11F13654   2.959   1.036   7.539 -0.8235 -0.8474  1.6668
  127OSM   H11G13655   2.936   1.181   7.626  1.1620  2.1075 -2.2774
  127OSM   C12F13656   3.083   1.028   7.717 -0.4426  0.5296 -0.5946
  127OSM   H12F13657   3.139   1.099   7.783  3.0164 -1.6701 -0.8982
  127OSM   H12G13658   3.155   0.949   7.686 -0.5184  0.2761 -0.1352
  127OSM   C13F13659   2.984   0.962   7.817  0.5147 -0.4742 -0.2121
  127OSM   H13F13660   2.914   0.907   7.751  1.2839 -0.8132 -0.7602
  127OSM   H13G13661   2.938   1.042   7.879  0.8922  0.9387 -1.6890
  127OSM   C14F13662   3.029   0.860   7.926 -0.0794  0.1285  0.4126
  127OSM   H14F13663   3.085   0.790   7.861 -0.8710  0.8070 -1.0363
  127OSM   H14G13664   2.949   0.791   7.959 -0.0570 -1.1236 -1.9548
  127OSM   C15F13665   3.109   0.919   8.049  0.4118 -0.5166  0.2375
  127OSM   H15F13666   3.026   0.966   8.106 -0.7332 -0.7684 -1.1530
  127OSM   H15G13667   3.180   0.995   8.011  1.1229 -0.5446  1.4818
  127OSM   C16F13668   3.184   0.816   8.124 -0.0457 -0.0383  0.0363
  127OSM   H16F13669   3.277   0.783   8.073 -0.0063 -3.3340  1.9072
  127OSM   H16G13670   3.130   0.719   8.114  0.2987 -0.1478 -0.8177
  127OSM   C17F13671   3.213   0.845   8.277  1.1657  0.3768  0.1651
  127OSM   H17F13672   3.272   0.940   8.282  2.2323 -0.3050  1.0649
  127OSM   H17G13673   3.280   0.763   8.309  2.0510  0.2457 -1.8436
  127OSM   C18F13674   3.086   0.861   8.371  0.2235  0.3031  0.0636
  127OSM   H18F13675   3.029   0.766   8.362  0.2337  0.1077  1.7386
  127OSM   H18G13676   3.015   0.944   8.353  1.4626  1.3304 -0.1406
  127OSM   H18H13677   3.130   0.870   8.473 -2.5834 -1.6056  1.6076
  128OSM      N13678   6.154   4.178   5.778 -0.4962 -0.1712  0.4143
  128OSM    C1513679   6.026   4.263   5.787 -0.1577  0.0033  0.0529
  128OSM   H15A13680   5.980   4.278   5.690 -0.8858 -0.1691  0.3598
  128OSM   H15B13681   6.040   4.350   5.849 -1.7006  0.9856 -0.9008
  128OSM   H15C13682   5.956   4.202   5.842 -0.4937 -0.8727 -1.2837
  128OSM    C1413683   6.191   4.137   5.920  0.9336 -0.4287 -0.3822
  128OSM   H14A13684   6.293   4.102   5.925  0.4172 -2.2266 -1.4677
  128OSM   H14B13685   6.119   4.063   5.952 -0.0138  0.0258 -1.3914
  128OSM   H14C13686   6.176   4.220   5.986 -1.0289 -0.9934 -0.0757
  128OSM    C1313687   6.130   4.065   5.684  0.8675 -0.3653 -0.1256
  128OSM   H13A13688   6.044   4.002   5.705  2.3484 -2.8453 -1.0499
  128OSM   H13B13689   6.208   3.992   5.702  0.3897 -0.8906 -0.1451
  128OSM   H13C13690   6.131   4.094   5.580  3.6093  0.4096  0.0339
  128OSM    C1213691   6.263   4.274   5.729  0.6853  0.4059  0.2829
  128OSM   H12A13692   6.254   4.358   5.797 -2.0369 -0.1964  0.7849
  128OSM   H12B13693   6.238   4.312   5.631 -0.3160 -0.1783  0.2946
  128OSM    C1113694   6.411   4.233   5.741  0.8496  0.0371  0.7360
  128OSM   H11A13695   6.463   4.309   5.680  2.4559 -0.3783  1.5196
  128OSM   H11B13696   6.430   4.138   5.686  3.0081 -0.1416  1.6854
  128OSM      P13697   6.499   4.348   5.961 -0.4722  0.2663  0.6066
  128OSM    O1313698   6.646   4.379   5.966  0.0962 -0.3486  0.9597
  128OSM    O1413699   6.405   4.453   5.922 -0.6831  0.3298  0.1195
  128OSM    O1113700   6.462   4.294   6.105  0.2633 -0.1917  0.0162
  128OSM    O1213701   6.466   4.222   5.869 -0.5896 -0.1680  0.3816
  128OSM    C1S13702   6.514   4.177   6.169  0.1937 -0.5594  0.2637
  128OSM    H1S13703   6.616   4.213   6.197  0.5280 -0.5522 -0.9070
  128OSM    H1T13704   6.528   4.090   6.101 -3.7704 -0.2686 -1.1901
  128OSM     NF13705   6.518   4.039   6.385  0.0388  0.0203  0.1282
  128OSM    HNF13706   6.463   3.962   6.416  0.9154 -0.8364 -0.3717
  128OSM    C2S13707   6.449   4.145   6.311 -0.0724  0.0978  0.9031
  128OSM    H2S13708   6.466   4.242   6.362 -0.6233  0.5527  0.2441
  128OSM    C3S13709   6.291   4.132   6.308 -0.6225  0.0170 -0.2012
  128OSM    H3S13710   6.285   4.032   6.260  1.5013 -0.4438  0.3953
  128OSM     O313711   6.217   4.220   6.227 -0.0275 -0.5153  0.2635
  128OSM    HO313712   6.294   4.258   6.186 -0.9901  1.4113  0.1305
  128OSM    C4S13713   6.239   4.113   6.453 -0.4284  0.4961 -0.3109
  128OSM    H4S13714   6.216   4.011   6.485  3.2689  0.1290  1.7107
  128OSM    C5S13715   6.235   4.210   6.552  0.6084  0.2195  0.2756
  128OSM    H5S13716   6.294   4.302   6.543  2.0050 -0.3011  3.0175
  128OSM    C6S13717   6.187   4.198   6.690 -0.4349  0.6880  0.0707
  128OSM    H6S13718   6.098   4.132   6.688  1.7894 -2.5365  0.0180
  128OSM    H6T13719   6.147   4.296   6.723 -1.2253  0.8287 -1.2270
  128OSM    C7S13720   6.301   4.145   6.786  0.0449  0.1272 -0.2859
  128OSM    H7S13721   6.402   4.187   6.770  0.0099  1.6318  2.8629
  128OSM    H7T13722   6.321   4.037   6.767  0.9689  0.2976 -0.3280
  128OSM    C8S13723   6.265   4.164   6.937 -0.5459  0.1005  0.0489
  128OSM    H8S13724   6.172   4.111   6.965 -1.2349  0.2121 -1.8591
  128OSM    H8T13725   6.254   4.273   6.960 -1.8796 -0.0830  0.3937
  128OSM    C9S13726   6.388   4.096   7.009 -0.1730 -0.3275 -0.0384
  128OSM    H9S13727   6.479   4.149   6.974  1.1670 -2.2511  0.3278
  128OSM    H9T13728   6.398   3.987   6.988 -1.7424 -0.2338 -1.5444
  128OSM   C10S13729   6.376   4.102   7.159 -0.5249 -0.7630  0.5335
  128OSM   H10S13730   6.280   4.052   7.185 -0.5371 -1.4077 -0.6944
  128OSM   H10T13731   6.359   4.209   7.184  0.0903  0.1708 -2.6765
  128OSM   C11S13732   6.500   4.045   7.231 -0.4613 -0.1504  0.6132
  128OSM   H11S13733   6.584   4.110   7.199 -1.0783  0.0095 -0.7815
  128OSM   H11T13734   6.535   3.942   7.208 -2.7673 -1.6638  3.2150
  128OSM   C12S13735   6.486   4.063   7.376 -0.2149 -0.9522 -0.8647
  128OSM   H12S13736   6.442   3.971   7.419  1.6252 -0.8222  1.5127
  128OSM   H12T13737   6.415   4.146   7.394  2.7322  1.7728 -0.9272
  128OSM   C13S13738   6.616   4.083   7.448 -0.5424  0.1805  0.0726
  128OSM   H13S13739   6.669   4.176   7.417 -1.5207  0.3852 -1.0272
  128OSM   H13T13740   6.685   3.996   7.434  1.4174  1.6492  0.2011
  128OSM   C14S13741   6.597   4.087   7.601  0.4022 -0.5260  0.2935
  128OSM   H14S13742   6.698   4.085   7.646  0.1978  1.7453  1.0045
  128OSM   H14T13743   6.560   3.999   7.657 -0.0718 -0.2263  0.4578
  128OSM   C15S13744   6.522   4.211   7.665  0.9659 -0.3186  0.3324
  128OSM   H15S13745   6.418   4.185   7.635  1.5491 -1.4197 -0.8362
  128OSM   H15T13746   6.556   4.301   7.610  2.0593  0.1935  1.7749
  128OSM   C16S13747   6.541   4.229   7.814 -0.4931 -1.1478 -0.4860
  128OSM   H16S13748   6.651   4.242   7.819 -0.4594 -0.9724 -1.4244
  128OSM   H16T13749   6.519   4.128   7.852 -2.0253  0.2507  2.7203
  128OSM   C17S13750   6.453   4.339   7.884  0.6795 -0.4283  0.1528
  128OSM   H17S13751   6.344   4.321   7.881  0.6469 -0.1953 -0.1366
  128OSM   H17T13752   6.474   4.439   7.840  0.2277 -0.9028 -1.1725
  128OSM   C18S13753   6.478   4.349   8.047 -0.4213 -0.1643  0.3630
  128OSM   H18S13754   6.445   4.248   8.082  0.6946 -1.3462 -1.7676
  128OSM   H18T13755   6.416   4.425   8.098 -0.1543 -0.6121  1.3997
  128OSM   H18U13756   6.585   4.365   8.074 -0.7337  2.2888  0.3636
  128OSM    C1F13757   6.642   4.052   6.427 -0.2700  0.4834  0.0583
  128OSM     OF13758   6.693   4.168   6.426 -0.3660 -0.3092  0.6732
  128OSM    C2F13759   6.705   3.927   6.480 -0.4975 -0.5931 -0.3047
  128OSM    H2F13760   6.811   3.931   6.447 -0.1407 -0.9410  0.7894
  128OSM    H2G13761   6.653   3.832   6.457 -2.4127 -0.9298  4.3378
  128OSM    C3F13762   6.691   3.941   6.632 -0.0253  0.1530 -0.4898
  128OSM    H3F13763   6.591   3.970   6.669  0.1072  0.1079 -0.0924
  128OSM    H3G13764   6.746   4.034   6.660 -0.4168  0.0951  0.5205
  128OSM    C4F13765   6.748   3.819   6.710  0.1597 -0.5358  0.5913
  128OSM    H4F13766   6.855   3.824   6.682 -0.3331  3.3454 -1.1898
  128OSM    H4G13767   6.698   3.726   6.674  2.0061 -1.7969  1.1275
  128OSM    C5F13768   6.736   3.832   6.860 -0.5438 -0.3672  0.2786
  128OSM    H5F13769   6.738   3.726   6.894  0.0332 -0.5751 -0.3747
  128OSM    H5G13770   6.631   3.863   6.880 -0.3840 -0.5763  1.5613
  128OSM    C6F13771   6.840   3.923   6.909 -0.4339 -0.6684  0.1637
  128OSM    H6F13772   6.827   4.023   6.862  1.0976  0.8237  2.6418
  128OSM    H6G13773   6.942   3.889   6.879 -0.0662 -1.0836  1.7959
  128OSM    C7F13774   6.826   3.941   7.065 -0.2151  0.0645  0.4464
  128OSM    H7F13775   6.848   3.851   7.127  0.8438 -0.0946 -0.1232
  128OSM    H7G13776   6.724   3.976   7.087  0.2096  2.4663 -1.0028
  128OSM    C8F13777   6.913   4.061   7.118  0.0290 -0.1618  0.3077
  128OSM    H8F13778   6.891   4.112   7.215  0.5909  0.5001  0.0989
  128OSM    H8G13779   6.900   4.151   7.054 -1.0342  0.5566  1.4862
  128OSM    C9F13780   7.063   4.011   7.118  0.4382  0.4162 -0.2622
  128OSM    H9F13781   7.119   4.002   7.024 -0.1872  0.4036 -0.6454
  128OSM   C10F13782   7.136   3.998   7.231 -0.2479 -0.2848  0.3045
  128OSM   H10F13783   7.238   3.958   7.224  0.5764  1.8373 -1.1981
  128OSM   C11F13784   7.081   4.027   7.371  0.3585  0.7433  0.0847
  128OSM   H11F13785   7.138   3.966   7.445  0.3840  0.7730  0.0895
  128OSM   H11G13786   6.974   3.998   7.377  1.0304 -2.6398 -1.6461
  128OSM   C12F13787   7.092   4.174   7.414  0.2895  0.6535  0.9984
  128OSM   H12F13788   7.076   4.245   7.330  1.4615 -0.4683 -0.2228
  128OSM   H12G13789   7.194   4.202   7.448  1.1488  0.1343 -0.9903
  128OSM   C13F13790   6.997   4.190   7.530  0.2075 -0.1015  0.7454
  128OSM   H13F13791   7.026   4.133   7.621  1.4973 -0.7786 -0.0645
  128OSM   H13G13792   6.895   4.149   7.515 -0.7407  1.3636  2.6102
  128OSM   C14F13793   6.958   4.335   7.544 -0.0736  0.1467 -0.7408
  128OSM   H14F13794   6.879   4.366   7.472 -1.9435 -1.4152  0.5471
  128OSM   H14G13795   7.056   4.388   7.544  0.2741 -0.4862 -0.3493
  128OSM   C15F13796   6.883   4.352   7.681  0.3986  0.5790  0.1490
  128OSM   H15F13797   6.925   4.282   7.756  0.1563 -0.5956 -0.7802
  128OSM   H15G13798   6.778   4.322   7.663  1.2802 -2.0626 -1.1164
  128OSM   C16F13799   6.900   4.481   7.758 -0.7483 -0.1743  0.2879
  128OSM   H16F13800   6.845   4.555   7.696 -0.5292  0.0183  0.3230
  128OSM   H16G13801   7.006   4.514   7.761  0.0232 -2.4331  0.0626
  128OSM   C17F13802   6.846   4.470   7.899 -0.2024 -0.7158 -0.1659
  128OSM   H17F13803   6.908   4.403   7.963  0.8797  0.7073  0.3333
  128OSM   H17G13804   6.745   4.423   7.897 -0.5987 -0.0065  1.3422
  128OSM   C18F13805   6.833   4.608   7.979  0.0527  0.4686 -0.3070
  128OSM   H18F13806   6.776   4.686   7.924  1.6917  1.4213 -0.7221
  128OSM   H18G13807   6.937   4.643   7.999 -0.5788  0.9555  2.6600
  128OSM   H18H13808   6.778   4.598   8.075 -0.8175  0.7312 -0.7709
  129OSM      N13809   2.708   0.333   6.244 -0.1486 -0.8417  0.0754
  129OSM    C1513810   2.746   0.317   6.099  0.3645 -0.1143  0.1872
  129OSM   H15A13811   2.675   0.366   6.035  0.6459 -1.4331 -1.1850
  129OSM   H15B13812   2.746   0.211   6.078  0.4804 -0.3415  1.2817
  129OSM   H15C13813   2.845   0.356   6.078  0.1969  1.1585  1.5780
  129OSM    C1413814   2.623   0.213   6.284 -0.5444  0.0700 -0.0580
  129OSM   H14A13815   2.674   0.119   6.268  0.7428  0.7357 -0.0182
  129OSM   H14B13816   2.534   0.219   6.224 -0.4638 -1.0046 -0.2969
  129OSM   H14C13817   2.592   0.219   6.387  2.1698 -1.2702  0.9410
  129OSM    C1313818   2.833   0.325   6.323 -0.0490  0.0820 -0.2316
  129OSM   H13A13819   2.903   0.406   6.303 -2.5346  2.7748  1.2669
  129OSM   H13B13820   2.884   0.232   6.304 -0.0343  0.2653 -1.1822
  129OSM   H13C13821   2.822   0.335   6.430 -0.9187  1.6343 -0.4344
  129OSM    C1213822   2.643   0.470   6.259  0.4241  0.2599  0.5078
  129OSM   H12A13823   2.718   0.539   6.223 -0.8007  0.7734 -1.1705
  129OSM   H12B13824   2.621   0.486   6.364 -0.8038  1.0157  0.1608
  129OSM    C1113825   2.517   0.493   6.182 -0.1655  0.2833 -0.0961
  129OSM   H11A13826   2.451   0.565   6.234 -0.8863  0.6289 -1.4382
  129OSM   H11B13827   2.459   0.399   6.169  0.0015  0.2847 -0.8873
  129OSM      P13828   2.551   0.719   6.047  0.1525  0.0932  0.3058
  129OSM    O1313829   2.636   0.749   5.935  0.3382  0.6015  0.5784
  129OSM    O1413830   2.417   0.777   6.043 -0.2188  0.3065 -0.5952
  129OSM    O1113831   2.615   0.772   6.182  0.0712 -0.3395  0.2941
  129OSM    O1213832   2.543   0.561   6.059  0.6101  0.1569  0.3206
  129OSM    C1S13833   2.563   0.847   6.285 -0.1584 -0.2844 -0.1363
  129OSM    H1S13834   2.459   0.814   6.303  1.0033 -3.4665  1.4218
  129OSM    H1T13835   2.572   0.954   6.257  0.1612 -0.2235  0.2007
  129OSM     NF13836   2.543   0.871   6.525  0.3462  0.4050  0.0438
  129OSM    HNF13837   2.573   0.944   6.587  1.0496 -1.0432  1.4691
  129OSM    C2S13838   2.636   0.835   6.418 -1.0368  0.5548 -0.2122
  129OSM    H2S13839   2.667   0.729   6.434  0.1401  0.4094 -2.8988
  129OSM    C3S13840   2.778   0.902   6.414  0.1856  0.0330 -0.4144
  129OSM    H3S13841   2.747   1.009   6.420  0.8152  0.1906  0.2201
  129OSM     O313842   2.850   0.898   6.292 -0.3142  0.7241 -0.2826
  129OSM    HO313843   2.796   0.846   6.232 -0.9805  1.3073 -0.1926
  129OSM    C4S13844   2.865   0.856   6.525 -0.4805  0.0759 -0.4398
  129OSM    H4S13845   2.886   0.748   6.529  0.4822  0.2903  0.6149
  129OSM    C5S13846   2.898   0.942   6.623 -0.4405 -0.7167  0.0755
  129OSM    H5S13847   2.847   1.038   6.610  0.8546  0.1322  0.9704
  129OSM    C6S13848   2.979   0.917   6.749  0.6132  0.4102 -0.2510
  129OSM    H6S13849   2.938   0.849   6.828 -0.3788 -2.3344 -2.9256
  129OSM    H6T13850   2.977   1.015   6.801 -0.1558  0.3204 -0.1030
  129OSM    C7S13851   3.107   0.845   6.716  0.1376  0.8815  0.1913
  129OSM    H7S13852   3.159   0.890   6.629 -1.3105 -0.7583 -1.6385
  129OSM    H7T13853   3.088   0.745   6.671  2.1275  0.2323  0.7131
  129OSM    C8S13854   3.196   0.834   6.837 -0.3343  0.2954  0.5690
  129OSM    H8S13855   3.224   0.939   6.859 -2.6592  0.8884  1.0741
  129OSM    H8T13856   3.287   0.785   6.797 -0.6530 -2.7323  3.2063
  129OSM    C9S13857   3.147   0.767   6.965 -0.3318 -0.0742 -0.3480
  129OSM    H9S13858   3.111   0.667   6.930 -0.9532  0.7770 -2.2609
  129OSM    H9T13859   3.062   0.820   7.013 -0.2456  0.9237 -1.2838
  129OSM   C10S13860   3.256   0.766   7.073 -0.0420  0.2211 -0.0272
  129OSM   H10S13861   3.260   0.866   7.121  0.3624  0.7696 -1.1655
  129OSM   H10T13862   3.350   0.739   7.020  0.2903 -0.8217  1.0393
  129OSM   C11S13863   3.230   0.665   7.183 -0.1286  0.0200  0.3899
  129OSM   H11S13864   3.233   0.560   7.147 -0.6459  0.2935 -0.4684
  129OSM   H11T13865   3.129   0.673   7.229 -0.1073 -0.3933  0.5123
  129OSM   C12S13866   3.341   0.677   7.291  0.2781 -0.1676 -0.1347
  129OSM   H12S13867   3.349   0.776   7.341  0.0314 -0.6933  0.9590
  129OSM   H12T13868   3.445   0.651   7.260  0.5398  1.7717 -1.0252
  129OSM   C13S13869   3.313   0.587   7.417  0.0381  0.1541  0.4671
  129OSM   H13S13870   3.318   0.480   7.388  0.9230  0.6103 -1.2069
  129OSM   H13T13871   3.220   0.609   7.474  0.3906  1.5426  0.5448
  129OSM   C14S13872   3.429   0.603   7.514  0.1074 -0.1130 -0.0608
  129OSM   H14S13873   3.435   0.712   7.534 -0.8842 -0.2618  1.1373
  129OSM   H14T13874   3.526   0.570   7.469  0.0364 -0.4002 -0.0085
  129OSM   C15S13875   3.418   0.536   7.659  0.2534 -0.8685 -0.0167
  129OSM   H15S13876   3.405   0.428   7.640  1.5353 -0.7794 -1.6269
  129OSM   H15T13877   3.325   0.575   7.705  0.5898 -0.3191  0.2172
  129OSM   C16S13878   3.539   0.570   7.746 -0.6429  0.0208  0.2993
  129OSM   H16S13879   3.532   0.679   7.766  0.6126  0.6592 -2.2817
  129OSM   H16T13880   3.635   0.544   7.695 -0.4931  1.7341 -0.3785
  129OSM   C17S13881   3.528   0.496   7.882 -0.0856 -0.0754 -0.1334
  129OSM   H17S13882   3.623   0.511   7.938 -0.2175 -0.5970  0.2330
  129OSM   H17T13883   3.508   0.390   7.856  0.8675  0.1575 -2.0445
  129OSM   C18S13884   3.397   0.534   7.955 -0.1100  0.7587 -0.9165
  129OSM   H18S13885   3.413   0.642   7.975  1.2428  0.6530 -1.3047
  129OSM   H18T13886   3.401   0.469   8.045  1.8682  0.9972 -0.7889
  129OSM   H18U13887   3.304   0.523   7.895 -0.6656  0.7120 -0.0706
  129OSM    C1F13888   2.427   0.812   6.555 -0.0724  0.0139 -0.4825
  129OSM     OF13889   2.394   0.706   6.505 -0.3094 -0.2099 -0.9602
  129OSM    C2F13890   2.341   0.888   6.648  0.1369  0.2123 -0.3205
  129OSM    H2F13891   2.242   0.857   6.611 -0.6267  0.8789  1.0879
  129OSM    H2G13892   2.356   0.998   6.642  0.4408  0.0845 -3.0037
  129OSM    C3F13893   2.372   0.861   6.800  0.0497  0.0102  1.1087
  129OSM    H3F13894   2.324   0.950   6.847  1.2748  0.7609  0.9734
  129OSM    H3G13895   2.481   0.878   6.815  0.5021 -1.1920 -0.5043
  129OSM    C4F13896   2.334   0.725   6.857  0.0544  0.0580 -0.0582
  129OSM    H4F13897   2.374   0.642   6.795 -0.6067 -1.7345  1.8022
  129OSM    H4G13898   2.224   0.714   6.856 -0.0750 -0.5640  3.9793
  129OSM    C5F13899   2.378   0.707   7.003 -0.5264 -0.1369  0.7343
  129OSM    H5F13900   2.473   0.762   7.020 -0.5699 -0.4728  2.1139
  129OSM    H5G13901   2.384   0.598   7.021  1.5671 -0.6379 -2.1986
  129OSM    C6F13902   2.270   0.773   7.099 -0.0589  0.1646  0.1717
  129OSM    H6F13903   2.172   0.730   7.071 -0.2302  0.7272 -0.1017
  129OSM    H6G13904   2.273   0.884   7.085 -1.3269  0.0452 -1.2180
  129OSM    C7F13905   2.281   0.738   7.248 -0.3070 -0.0908 -0.4317
  129OSM    H7F13906   2.253   0.633   7.272 -0.1429 -0.4551 -1.7383
  129OSM    H7G13907   2.208   0.801   7.303 -1.0678  0.0745 -1.5887
  129OSM    C8F13908   2.419   0.770   7.312  0.0271  0.3323 -0.2459
  129OSM    H8F13909   2.488   0.704   7.256 -0.2341  1.2615 -1.7248
  129OSM    H8G13910   2.429   0.731   7.416  1.3260 -0.2261 -0.5706
  129OSM    C9F13911   2.461   0.910   7.300  0.2976  0.2797  0.0088
  129OSM    H9F13912   2.482   0.946   7.198 -1.3364 -1.3679 -0.9790
  129OSM   C10F13913   2.492   0.989   7.408  0.0821 -0.1904  0.6482
  129OSM   H10F13914   2.519   1.094   7.389 -0.3954 -0.1305  0.2922
  129OSM   C11F13915   2.476   0.956   7.556  0.1437  0.0612 -0.0298
  129OSM   H11F13916   2.396   0.883   7.582  1.1953 -0.9987  0.3009
  129OSM   H11G13917   2.425   1.042   7.605 -1.5319  0.3910 -2.1822
  129OSM   C12F13918   2.606   0.901   7.618  0.7938 -0.4297 -1.1749
  129OSM   H12F13919   2.698   0.954   7.585  1.3630 -0.8408 -0.2864
  129OSM   H12G13920   2.619   0.791   7.609  0.9376 -0.7616  1.9700
  129OSM   C13F13921   2.617   0.917   7.769 -0.4521  0.5967  0.0644
  129OSM   H13F13922   2.703   0.853   7.801 -2.1338 -1.3241  0.9410
  129OSM   H13G13923   2.523   0.890   7.822 -0.6477  1.1431  0.0037
  129OSM   C14F13924   2.647   1.060   7.822  0.0657  1.3805  0.0515
  129OSM   H14F13925   2.571   1.126   7.775 -1.5348 -0.4592 -0.0620
  129OSM   H14G13926   2.744   1.098   7.785 -0.4041  0.1915 -2.5688
  129OSM   C15F13927   2.652   1.058   7.976 -0.7017  0.9058  0.4495
  129OSM   H15F13928   2.718   0.975   8.009 -0.0152  0.5912 -1.5605
  129OSM   H15G13929   2.546   1.040   8.003 -0.2393 -0.1001  1.7197
  129OSM   C16F13930   2.684   1.195   8.036 -0.1506  0.3797  0.4817
  129OSM   H16F13931   2.643   1.275   7.970  0.6638 -0.3246 -0.9428
  129OSM   H16G13932   2.794   1.210   8.041  0.2415 -1.7259 -0.5537
  129OSM   C17F13933   2.646   1.215   8.182  0.5753  0.4729  0.1118
  129OSM   H17F13934   2.536   1.222   8.198  0.2104 -2.3835 -0.6675
  129OSM   H17G13935   2.675   1.318   8.213 -0.8148  1.1123 -0.6043
  129OSM   C18F13936   2.681   1.109   8.284  0.2176  0.4203 -0.3209
  129OSM   H18F13937   2.790   1.086   8.287  0.0563 -0.4570 -0.9572
  129OSM   H18G13938   2.628   1.015   8.256  1.1804 -0.0149 -0.7305
  129OSM   H18H13939   2.654   1.139   8.387  1.9581 -0.2979  0.3935
  130OSM      N13940   6.740   2.713   6.019  0.7190  0.4009 -0.1842
  130OSM    C1513941   6.652   2.764   6.133 -0.4935  0.1526 -0.3448
  130OSM   H15A13942   6.682   2.862   6.168  0.4278 -0.0383 -0.5853
  130OSM   H15B13943   6.650   2.691   6.212 -0.2003  0.0266 -0.4531
  130OSM   H15C13944   6.550   2.782   6.103 -0.7033 -1.4371 -0.6891
  130OSM    C1413945   6.690   2.570   5.992  0.2150  0.0825 -0.7247
  130OSM   H14A13946   6.754   2.514   5.927  0.3394 -1.5761  0.7569
  130OSM   H14B13947   6.588   2.581   5.959  0.2756  0.4611 -0.7864
  130OSM   H14C13948   6.683   2.510   6.082  2.5209 -0.5964 -0.9398
  130OSM    C1313949   6.709   2.796   5.901 -0.2552 -0.1731 -0.0950
  130OSM   H13A13950   6.730   2.897   5.934 -0.2610 -0.5322  1.0594
  130OSM   H13B13951   6.605   2.780   5.875 -0.4552 -1.7350  1.4570
  130OSM   H13C13952   6.775   2.765   5.821 -1.9310 -1.6547 -0.9864
  130OSM    C1213953   6.884   2.707   6.063  0.2774 -0.5971  0.4083
  130OSM   H12A13954   6.933   2.654   5.983 -2.7244 -3.3688  0.1833
  130OSM   H12B13955   6.890   2.650   6.154  0.2182  1.0280  1.4716
  130OSM    C1113956   6.960   2.833   6.094  0.7759 -0.0722 -0.2967
  130OSM   H11A13957   7.054   2.783   6.125 -0.4213 -2.5659 -0.5029
  130OSM   H11B13958   6.909   2.880   6.181 -2.5687  0.0370 -2.1520
  130OSM      P13959   7.010   3.078   6.012 -0.0450 -0.5696  0.1680
  130OSM    O1313960   7.152   3.099   5.999 -0.3270 -1.2016 -0.5103
  130OSM    O1413961   6.928   3.169   5.924  0.5707  0.0169  0.2012
  130OSM    O1113962   6.971   3.110   6.160  0.2584  0.1050 -0.2169
  130OSM    O1213963   6.985   2.918   5.978 -0.0576 -0.0751  0.1178
  130OSM    C1S13964   6.848   3.173   6.192 -0.4904  0.2543 -0.6125
  130OSM    H1S13965   6.763   3.110   6.157  0.3263 -1.3778  0.2314
  130OSM    H1T13966   6.842   3.278   6.157  2.7356  1.1462  1.1586
  130OSM     NF13967   6.680   3.203   6.361 -0.0601 -0.9145  0.2981
  130OSM    HNF13968   6.651   3.289   6.401 -1.9759 -0.6710 -1.4380
  130OSM    C2S13969   6.815   3.180   6.344 -0.4365 -0.6108  0.2897
  130OSM    H2S13970   6.849   3.079   6.377  1.1271 -0.3713 -0.5361
  130OSM    C3S13971   6.905   3.277   6.411  0.1776  0.1868  0.7513
  130OSM    H3S13972   6.890   3.384   6.383 -0.4449  0.5884  2.4672
  130OSM     O313973   7.048   3.252   6.396  0.4775  0.3372 -0.2485
  130OSM    HO313974   7.053   3.177   6.336 -1.7733  1.0562 -1.4558
  130OSM    C4S13975   6.867   3.267   6.551 -0.0662  0.3003  0.8607
  130OSM    H4S13976   6.831   3.170   6.586  0.8366 -0.6118 -0.6184
  130OSM    C5S13977   6.862   3.377   6.628  0.1987  0.1476 -0.0757
  130OSM    H5S13978   6.905   3.473   6.596  0.1916  0.5144  0.9558
  130OSM    C6S13979   6.801   3.389   6.766  0.2730 -0.3859 -0.5286
  130OSM    H6S13980   6.784   3.287   6.806 -3.5401 -0.0460 -0.9150
  130OSM    H6T13981   6.701   3.435   6.751  0.6939 -0.0936 -2.7930
  130OSM    C7S13982   6.874   3.476   6.872  0.2257  0.7892 -0.4385
  130OSM    H7S13983   6.874   3.585   6.854 -2.6508  0.9584  0.0480
  130OSM    H7T13984   6.976   3.434   6.885  0.1129  1.0546  1.6714
  130OSM    C8S13985   6.805   3.464   7.007  0.0977  0.2837  0.2612
  130OSM    H8S13986   6.784   3.357   7.027  0.6199  0.2962  0.9134
  130OSM    H8T13987   6.708   3.518   6.998  0.7864  1.4087 -0.6696
  130OSM    C9S13988   6.878   3.526   7.127 -0.3231  0.5399  0.7441
  130OSM    H9S13989   6.896   3.635   7.113  0.4162  0.5166  1.4386
  130OSM    H9T13990   6.978   3.480   7.142  0.4422  1.0412 -2.2425
  130OSM   C10S13991   6.804   3.502   7.256 -0.2545  0.2086 -0.6574
  130OSM   H10S13992   6.786   3.395   7.281  0.0243 -0.0346 -1.4850
  130OSM   H10T13993   6.705   3.549   7.237 -0.1360 -0.1176 -2.2514
  130OSM   C11S13994   6.885   3.568   7.371  0.0346  0.0208 -0.2520
  130OSM   H11S13995   6.962   3.642   7.342  2.3106 -0.9941  2.7586
  130OSM   H11T13996   6.937   3.490   7.429  1.0835  0.6090 -0.3883
  130OSM   C12S13997   6.802   3.621   7.486 -0.0503  0.1129 -0.5424
  130OSM   H12S13998   6.730   3.553   7.535  2.6692 -3.7335 -1.4544
  130OSM   H12T13999   6.751   3.709   7.441  1.2729  0.6826 -1.0026
  130OSM   C13S14000   6.906   3.673   7.595  0.3951  0.4588 -0.3303
  130OSM   H13S14001   6.981   3.735   7.542  0.4975 -0.0817 -0.8226
  130OSM   H13T14002   6.951   3.591   7.656  1.7539  0.2035 -1.6281
  130OSM   C14S14003   6.834   3.763   7.693 -0.4927  0.1698 -0.3474
  130OSM   H14S14004   6.746   3.707   7.732 -0.1030 -0.3169 -0.1673
  130OSM   H14T14005   6.796   3.858   7.647  0.1830  0.7962  0.3676
  130OSM   C15S14006   6.926   3.798   7.806  0.3327 -0.1338 -1.0201
  130OSM   H15S14007   7.018   3.850   7.770  1.0732 -0.1991  0.6844
  130OSM   H15T14008   6.966   3.707   7.855  1.4714  0.5582 -0.6089
  130OSM   C16S14009   6.871   3.904   7.905 -0.5924  0.2729 -0.6586
  130OSM   H16S14010   6.853   3.997   7.846  3.2085  0.1879 -2.1884
  130OSM   H16T14011   6.941   3.930   7.987  0.6129 -0.0195 -1.5601
  130OSM   C17S14012   6.740   3.856   7.977 -0.1929  0.0029 -0.0023
  130OSM   H17S14013   6.658   3.848   7.903  0.5224 -2.4164 -0.6201
  130OSM   H17T14014   6.710   3.928   8.056 -0.1971 -1.0604  0.9948
  130OSM   C18S14015   6.758   3.724   8.056 -1.1599 -0.4758  0.4374
  130OSM   H18S14016   6.660   3.693   8.097 -2.5283  0.8782 -1.5839
  130OSM   H18T14017   6.830   3.742   8.138  0.1966  0.8472 -0.9673
  130OSM   H18U14018   6.792   3.639   7.994 -2.1063 -0.1211 -0.6228
  130OSM    C1F14019   6.590   3.102   6.353 -0.1672  0.3107  0.0607
  130OSM     OF14020   6.625   2.987   6.324  0.2543 -0.2161 -0.1624
  130OSM    C2F14021   6.447   3.142   6.380 -0.5719  0.2224  0.3772
  130OSM    H2F14022   6.390   3.163   6.287 -0.1083  1.5721  0.3842
  130OSM    H2G14023   6.447   3.239   6.433 -0.3809  0.5725 -0.2567
  130OSM    C3F14024   6.361   3.050   6.466  0.6491  0.3909  0.1978
  130OSM    H3F14025   6.346   2.950   6.420 -0.9770  1.0491 -0.7783
  130OSM    H3G14026   6.265   3.103   6.481  0.6730 -0.0480  2.2863
  130OSM    C4F14027   6.406   3.021   6.607  0.5099 -0.5396  0.6408
  130OSM    H4F14028   6.505   2.970   6.606 -0.0594 -1.7073  1.1628
  130OSM    H4G14029   6.332   2.951   6.652  0.4271 -1.3620 -0.7131
  130OSM    C5F14030   6.421   3.149   6.686 -0.7736  0.4923 -0.2382
  130OSM    H5F14031   6.322   3.194   6.705 -1.0552  0.2812 -1.1475
  130OSM    H5G14032   6.482   3.228   6.638 -0.1994  0.0381 -0.2706
  130OSM    C6F14033   6.482   3.116   6.828 -0.4235 -0.0650 -0.1285
  130OSM    H6F14034   6.579   3.069   6.804 -0.6248 -0.2278 -0.6339
  130OSM    H6G14035   6.422   3.034   6.874 -0.7255 -1.5444 -2.9782
  130OSM    C7F14036   6.504   3.232   6.925  0.4081  0.1836 -0.6946
  130OSM    H7F14037   6.401   3.268   6.948 -0.2508 -0.9824 -1.7027
  130OSM    H7G14038   6.561   3.310   6.870 -1.2383  0.9232 -1.4437
  130OSM    C8F14039   6.591   3.190   7.047 -0.1798 -0.1046 -0.3700
  130OSM    H8F14040   6.621   3.283   7.100  0.4030 -1.4879  1.8290
  130OSM    H8G14041   6.687   3.143   7.015 -0.0157 -0.0334  0.0125
  130OSM    C9F14042   6.539   3.088   7.142  0.2785  0.2320  0.1094
  130OSM    H9F14043   6.525   2.990   7.094 -1.1342  1.5982 -2.4944
  130OSM   C10F14044   6.497   3.113   7.268 -0.4435  0.3130  0.1052
  130OSM   H10F14045   6.460   3.030   7.330 -0.0205  0.5891  0.7375
  130OSM   C11F14046   6.498   3.243   7.334  0.5779  0.0079 -0.0426
  130OSM   H11F14047   6.410   3.300   7.300  0.5618 -0.2035 -0.3571
  130OSM   H11G14048   6.581   3.312   7.307  1.6155 -1.2145 -0.0967
  130OSM   C12F14049   6.512   3.241   7.491  0.4824  1.0127  0.2773
  130OSM   H12F14050   6.616   3.210   7.511  0.4849  0.3819 -0.6885
  130OSM   H12G14051   6.440   3.167   7.533  0.0528  1.3710  0.1847
  130OSM   C13F14052   6.495   3.370   7.562 -0.7425 -0.0860  0.6187
  130OSM   H13F14053   6.390   3.396   7.537 -0.4071 -0.8549 -1.8407
  130OSM   H13G14054   6.561   3.439   7.505  0.7795 -1.5339  0.5495
  130OSM   C14F14055   6.523   3.353   7.713  0.2881 -0.4473  0.9659
  130OSM   H14F14056   6.633   3.356   7.728  0.5127 -1.0349 -0.4397
  130OSM   H14G14057   6.487   3.250   7.733  0.4289 -0.9682 -1.2158
  130OSM   C15F14058   6.449   3.454   7.802 -0.7125 -0.2101 -0.6154
  130OSM   H15F14059   6.348   3.486   7.767 -0.4386  1.5362  0.0792
  130OSM   H15G14060   6.501   3.552   7.809 -0.7787 -0.2576  0.7388
  130OSM   C16F14061   6.434   3.410   7.949 -0.1135  0.4960  0.0198
  130OSM   H16F14062   6.538   3.397   7.987  0.8814  0.2347 -2.6024
  130OSM   H16G14063   6.386   3.310   7.947  1.1039 -0.1852  1.7955
  130OSM   C17F14064   6.365   3.518   8.039  0.0651 -0.0547 -0.7288
  130OSM   H17F14065   6.261   3.536   8.006 -1.0368 -1.5971  1.6233
  130OSM   H17G14066   6.409   3.620   8.031 -1.2758  0.7005  0.9686
  130OSM   C18F14067   6.337   3.485   8.189  0.3214  0.0009  1.2580
  130OSM   H18F14068   6.279   3.564   8.241  0.2320  1.3783 -0.8158
  130OSM   H18G14069   6.430   3.478   8.250  0.8139  1.2116  0.6925
  130OSM   H18H14070   6.289   3.385   8.194  0.7596 -0.2624  0.2985
  131OSM      N14071   5.270   4.867   6.014  0.2205 -0.3434 -0.2690
  131OSM    C1514072   5.174   4.815   6.123  0.1921 -0.7776  0.2613
  131OSM   H15A14073   5.169   4.707   6.117 -1.7540 -0.6807 -0.7141
  131OSM   H15B14074   5.074   4.844   6.095  0.7818  1.6231  0.4429
  131OSM   H15C14075   5.189   4.842   6.226  2.5522 -2.4981  0.4530
  131OSM    C1414076   5.408   4.861   6.077 -0.0699 -0.4892  0.3617
  131OSM   H14A14077   5.421   4.940   6.149  1.4248 -1.3361  1.0873
  131OSM   H14B14078   5.481   4.872   5.997  0.1323 -1.4995  0.3901
  131OSM   H14C14079   5.420   4.768   6.131  1.0009 -0.5041  0.1298
  131OSM    C1314080   5.273   4.777   5.895 -0.4551  0.0791  0.3444
  131OSM   H13A14081   5.293   4.679   5.936  1.9693  0.7165  0.8465
  131OSM   H13B14082   5.356   4.800   5.831 -0.2002  0.0750  0.6705
  131OSM   H13C14083   5.177   4.770   5.846 -0.8791 -3.7627  1.3810
  131OSM    C1214084   5.241   5.007   5.968  0.2771 -1.0290  0.1383
  131OSM   H12A14085   5.324   5.056   5.919 -0.8473  2.5828  1.5144
  131OSM   H12B14086   5.222   5.069   6.054 -0.7881 -2.2901  0.8517
  131OSM    C1114087   5.115   5.043   5.885 -0.0879 -0.3991 -0.1184
  131OSM   H11A14088   5.030   5.008   5.948  0.1480  1.2641  1.2087
  131OSM   H11B14089   5.117   4.987   5.789 -0.3841  1.2831 -1.1504
  131OSM      P14090   5.006   5.278   5.908 -0.1224  0.0062 -0.0919
  131OSM    O1314091   5.052   5.414   5.900  0.4218 -0.4147 -0.3882
  131OSM    O1414092   4.875   5.249   5.847  0.0696  0.1016  0.0255
  131OSM    O1114093   5.002   5.241   6.057  0.2847  0.0340 -0.9216
  131OSM    O1214094   5.113   5.179   5.854 -0.1301 -0.5018 -0.0100
  131OSM    C1S14095   4.887   5.171   6.118  0.0271 -1.0452  0.4928
  131OSM    H1S14096   4.906   5.062   6.122  1.6523 -0.7628  2.0854
  131OSM    H1T14097   4.793   5.181   6.060 -0.1711  2.3401  1.1732
  131OSM     NF14098   4.801   5.129   6.339 -0.0411 -0.1945 -0.2340
  131OSM    HNF14099   4.702   5.143   6.344  0.1831  1.2935  0.6685
  131OSM    C2S14100   4.882   5.227   6.265 -0.0585  0.4561  0.3877
  131OSM    H2S14101   4.984   5.225   6.308  0.0578 -1.6576  0.1244
  131OSM    C3S14102   4.831   5.364   6.270  0.3426 -0.7920  0.0152
  131OSM    H3S14103   4.729   5.381   6.230  0.8992  0.3277 -1.0111
  131OSM     O314104   4.917   5.450   6.200 -0.2718  0.4516 -0.2875
  131OSM    HO314105   4.984   5.399   6.154  0.9690  1.4290  0.3644
  131OSM    C4S14106   4.844   5.415   6.412  0.1059  0.8734 -0.3721
  131OSM    H4S14107   4.948   5.421   6.449  0.4482 -1.4724 -0.7735
  131OSM    C5S14108   4.748   5.430   6.503 -0.1274  0.1812 -0.8610
  131OSM    H5S14109   4.645   5.398   6.480  0.0037 -1.7342  0.8502
  131OSM    C6S14110   4.788   5.477   6.639 -0.0595 -0.1388 -0.2499
  131OSM    H6S14111   4.739   5.577   6.646 -1.7458 -0.8179 -1.6370
  131OSM    H6T14112   4.895   5.504   6.649 -0.7980  3.0610  0.0386
  131OSM    C7S14113   4.713   5.407   6.755 -0.1698 -0.5870  0.0927
  131OSM    H7S14114   4.774   5.321   6.790 -3.9861 -3.4962  0.3683
  131OSM    H7T14115   4.611   5.375   6.723 -0.6067  1.5913 -0.8573
  131OSM    C8S14116   4.717   5.490   6.890  0.1562  0.0074 -0.1344
  131OSM    H8S14117   4.680   5.595   6.886  0.1686  0.1241  1.8214
  131OSM    H8T14118   4.825   5.495   6.916 -0.0866  0.6916  0.7978
  131OSM    C9S14119   4.635   5.411   7.000 -0.5225  0.6312  0.7917
  131OSM    H9S14120   4.673   5.307   7.001  0.6777  1.0500  2.3715
  131OSM    H9T14121   4.528   5.414   6.970 -0.5686 -1.5524  0.5668
  131OSM   C10S14122   4.668   5.478   7.134 -0.0936  0.3765  0.5367
  131OSM   H10S14123   4.670   5.589   7.130 -0.0807  0.3594  0.0437
  131OSM   H10T14124   4.769   5.446   7.167  0.1721 -0.7002 -1.2054
  131OSM   C11S14125   4.575   5.438   7.252  0.2444  0.0655  0.3620
  131OSM   H11S14126   4.574   5.328   7.265  1.1697  0.0008 -0.0975
  131OSM   H11T14127   4.473   5.479   7.233  0.3622 -0.1937 -0.9246
  131OSM   C12S14128   4.633   5.497   7.374 -0.1107 -0.4443  1.2757
  131OSM   H12S14129   4.655   5.605   7.357 -0.2769 -0.7465 -1.2715
  131OSM   H12T14130   4.731   5.447   7.395  0.2123 -0.1656  0.4837
  131OSM   C13S14131   4.546   5.479   7.496 -0.1841  0.6150 -0.7557
  131OSM   H13S14132   4.448   5.527   7.478 -1.0689 -0.8000  0.0684
  131OSM   H13T14133   4.602   5.520   7.583 -0.4518 -1.3091  0.3692
  131OSM   C14S14134   4.501   5.336   7.528  0.1695 -0.6304  0.8359
  131OSM   H14S14135   4.592   5.273   7.516  1.6836  1.0130  3.0175
  131OSM   H14T14136   4.421   5.303   7.458  0.0665  2.6594 -0.7569
  131OSM   C15S14137   4.454   5.300   7.663 -0.5754 -0.3087 -0.3458
  131OSM   H15S14138   4.347   5.331   7.664 -0.5632 -0.2564 -0.6026
  131OSM   H15T14139   4.512   5.362   7.734 -1.2709  0.7927 -0.7028
  131OSM   C16S14140   4.483   5.152   7.717 -0.1117 -0.7656  0.5011
  131OSM   H16S14141   4.593   5.137   7.729 -0.0561 -0.6244  0.1934
  131OSM   H16T14142   4.448   5.088   7.633 -0.4750 -0.4150  0.3823
  131OSM   C17S14143   4.411   5.120   7.844  0.1655 -0.6405  0.7221
  131OSM   H17S14144   4.408   5.009   7.842 -0.0906 -0.6256 -1.0572
  131OSM   H17T14145   4.307   5.160   7.833  0.5437 -0.1944 -1.8875
  131OSM   C18S14146   4.477   5.180   7.971  0.0937  0.6098 -0.0226
  131OSM   H18S14147   4.468   5.291   7.975  1.4206  0.7992 -1.5225
  131OSM   H18T14148   4.580   5.140   7.967 -0.5616 -1.1629 -0.1221
  131OSM   H18U14149   4.420   5.133   8.054  1.3421  0.4374  0.7596
  131OSM    C1F14150   4.852   5.024   6.394  0.1164 -0.3642 -0.1120
  131OSM     OF14151   4.968   4.997   6.392  0.2924 -0.4433 -0.0022
  131OSM    C2F14152   4.748   4.940   6.460  0.5468  0.7853  0.4732
  131OSM    H2F14153   4.702   4.864   6.393 -1.3997  2.0523  0.3152
  131OSM    H2G14154   4.662   5.004   6.489 -0.4431  0.6115 -1.8265
  131OSM    C3F14155   4.804   4.881   6.583 -0.7279  0.1690  0.0123
  131OSM    H3F14156   4.838   4.962   6.651  1.7899  0.5511 -1.5491
  131OSM    H3G14157   4.894   4.820   6.560 -1.0101  0.4783 -2.2010
  131OSM    C4F14158   4.720   4.782   6.666 -0.0166  0.4035 -1.4706
  131OSM    H4F14159   4.775   4.782   6.763 -1.5684 -3.7685 -0.3730
  131OSM    H4G14160   4.729   4.682   6.618 -1.1049 -0.9089  0.8694
  131OSM    C5F14161   4.573   4.825   6.692 -0.4116  0.2233 -0.1597
  131OSM    H5F14162   4.516   4.802   6.600 -1.6345  0.6583  0.4655
  131OSM    H5G14163   4.567   4.932   6.724 -0.8622  0.0015  0.5262
  131OSM    C6F14164   4.510   4.757   6.822 -0.4145  0.4451  0.2816
  131OSM    H6F14165   4.501   4.649   6.800 -1.3796  0.4905  0.4383
  131OSM    H6G14166   4.409   4.802   6.826 -0.9618 -0.8306  1.6223
  131OSM    C7F14167   4.594   4.760   6.950  0.4400  0.0690 -0.1184
  131OSM    H7F14168   4.638   4.861   6.971  1.3223 -0.0024 -1.4790
  131OSM    H7G14169   4.677   4.688   6.932 -0.5974 -1.2159  0.0989
  131OSM    C8F14170   4.523   4.707   7.073 -0.7313  0.1885  0.1783
  131OSM    H8F14171   4.587   4.675   7.158 -0.7811 -0.9459 -0.1857
  131OSM    H8G14172   4.468   4.618   7.035 -0.1530  0.8773 -2.4505
  131OSM    C9F14173   4.426   4.809   7.121 -0.9775  0.2279 -1.3728
  131OSM    H9F14174   4.356   4.847   7.045  0.1380  1.1786 -1.9616
  131OSM   C10F14175   4.425   4.882   7.237 -0.5101  0.5138 -0.1614
  131OSM   H10F14176   4.344   4.956   7.242 -1.5775 -0.4547 -2.0079
  131OSM   C11F14177   4.519   4.880   7.354  0.6377 -0.3450  0.3697
  131OSM   H11F14178   4.589   4.795   7.369  0.4136 -0.7637 -0.8424
  131OSM   H11G14179   4.464   4.866   7.449  0.8026  1.0377  0.6963
  131OSM   C12F14180   4.603   5.007   7.368  0.5708  0.0075 -0.2661
  131OSM   H12F14181   4.629   5.016   7.476 -5.0787 -1.5568  1.5485
  131OSM   H12G14182   4.549   5.100   7.341  1.5327  1.1793  1.5954
  131OSM   C13F14183   4.730   4.994   7.286  0.4509 -0.4343 -0.6640
  131OSM   H13F14184   4.696   4.969   7.183 -1.5135 -0.1046 -0.1303
  131OSM   H13G14185   4.798   4.909   7.311 -0.0161  0.0535  2.6755
  131OSM   C14F14186   4.814   5.122   7.288  0.3352 -0.1127  0.2066
  131OSM   H14F14187   4.842   5.141   7.394  1.1071  0.7396 -0.1365
  131OSM   H14G14188   4.756   5.212   7.260 -0.7342 -1.0926 -0.8267
  131OSM   C15F14189   4.939   5.124   7.206  0.7355  0.4116  0.2403
  131OSM   H15F14190   4.980   5.023   7.228 -2.2205 -0.5615  1.7792
  131OSM   H15G14191   5.010   5.198   7.250  0.5363  0.8218 -0.1160
  131OSM   C16F14192   4.929   5.152   7.055  0.3998 -0.7016  0.0016
  131OSM   H16F14193   4.930   5.262   7.039 -2.1739 -0.2228  2.2163
  131OSM   H16G14194   4.833   5.113   7.015 -1.5303  1.0140  2.6110
  131OSM   C17F14195   5.042   5.093   6.977  0.6335  0.9346 -0.0737
  131OSM   H17F14196   5.132   5.118   7.037  0.9812  0.1828 -0.2673
  131OSM   H17G14197   5.042   5.151   6.882 -2.2710  2.4434  0.7394
  131OSM   C18F14198   5.039   4.942   6.944 -0.6671 -0.2504 -0.4643
  131OSM   H18F14199   5.037   4.879   7.035  1.9819 -0.7144 -0.6623
  131OSM   H18G14200   5.126   4.901   6.887 -0.0307 -1.5192  1.3314
  131OSM   H18H14201   4.950   4.916   6.883 -1.1342  1.6960 -0.6773
  132OSM      N14202   0.581   0.363   6.090  0.2880 -0.1561 -0.5224
  132OSM    C1514203   0.678   0.269   6.149  0.2310 -0.3875 -0.5069
  132OSM   H15A14204   0.674   0.271   6.257 -1.4473 -0.9598 -0.5209
  132OSM   H15B14205   0.780   0.293   6.124  0.3853  0.4513  0.8380
  132OSM   H15C14206   0.663   0.167   6.119 -1.6831 -0.7796  1.4688
  132OSM    C1414207   0.610   0.354   5.944 -0.6212 -0.5681  0.2986
  132OSM   H14A14208   0.533   0.399   5.885 -0.2246  0.2960  0.4192
  132OSM   H14B14209   0.613   0.249   5.919  2.2153 -0.7817  1.1201
  132OSM   H14C14210   0.710   0.393   5.932 -0.7292  1.0221  3.4748
  132OSM    C1314211   0.440   0.333   6.120  0.2476  0.4939  0.3851
  132OSM   H13A14212   0.375   0.414   6.090  1.5176  0.8175 -1.6282
  132OSM   H13B14213   0.413   0.318   6.224 -1.8403 -0.4716 -0.2220
  132OSM   H13C14214   0.406   0.248   6.063 -0.0775  0.4269  0.6694
  132OSM    C1214215   0.617   0.501   6.130  0.0880  0.0056 -0.5780
  132OSM   H12A14216   0.550   0.565   6.075 -0.3657  0.2888  0.2860
  132OSM   H12B14217   0.718   0.532   6.108  0.8079 -1.6912  0.2249
  132OSM    C1114218   0.596   0.541   6.281  0.0669  0.8350  0.0282
  132OSM   H11A14219   0.660   0.631   6.294  0.1484  0.9743 -1.2400
  132OSM   H11B14220   0.639   0.464   6.349 -1.0936 -1.4311 -1.6620
  132OSM      P14221   0.381   0.683   6.280  0.1079 -0.3965 -0.0723
  132OSM    O1314222   0.451   0.806   6.316  1.2011 -0.1043 -0.3713
  132OSM    O1414223   0.351   0.675   6.134 -0.1137  0.3046  0.1094
  132OSM    O1114224   0.246   0.661   6.361  0.4936  0.1244  0.0408
  132OSM    O1214225   0.455   0.558   6.317 -0.1174 -0.2562 -0.2568
  132OSM    C1S14226   0.243   0.638   6.503  0.3274  0.4721 -0.0802
  132OSM    H1S14227   0.294   0.718   6.561  1.3801 -0.2198 -0.0371
  132OSM    H1T14228   0.306   0.550   6.525 -1.1376 -0.7407 -0.5767
  132OSM     NF14229   0.111   0.568   6.706  0.4690 -0.3296 -0.1679
  132OSM    HNF14230   0.088   0.477   6.740  1.2950 -0.3503  0.3633
  132OSM    C2S14231   0.102   0.600   6.565 -0.0957 -0.0531  0.5199
  132OSM    H2S14232   0.039   0.688   6.539  1.0578  1.0981  1.5196
  132OSM    C3S14233   0.037   0.475   6.484 -0.1658 -0.6642 -0.0659
  132OSM    H3S14234   0.105   0.391   6.508  0.9690 -0.3652 -1.9815
  132OSM     O314235   0.041   0.484   6.342 -0.1874 -0.4331  0.0512
  132OSM    HO314236   0.124   0.533   6.337 -0.6809  0.2996 -1.4698
  132OSM    C4S14237  -0.107   0.467   6.525  0.2134 -0.5513 -0.3619
  132OSM    H4S14238  -0.124   0.393   6.604 -1.1366 -0.2718 -0.3707
  132OSM    C5S14239  -0.209   0.541   6.477  0.0179 -0.6410 -0.6442
  132OSM    H5S14240  -0.179   0.636   6.432  0.4783 -0.0957  0.7412
  132OSM    C6S14241  -0.353   0.525   6.519 -0.3451  0.1034  0.0125
  132OSM    H6S14242  -0.373   0.421   6.551  1.0498 -0.6270 -1.3611
  132OSM    H6T14243  -0.414   0.538   6.427  0.7405 -0.8882 -0.8724
  132OSM    C7S14244  -0.387   0.631   6.626  0.3341 -0.9965  0.0268
  132OSM    H7S14245  -0.497   0.636   6.637  0.5291  0.3184  1.8998
  132OSM    H7T14246  -0.355   0.730   6.586 -0.4976 -0.4554  0.6551
  132OSM    C8S14247  -0.321   0.617   6.765  0.1689 -0.6776  0.5410
  132OSM    H8S14248  -0.350   0.704   6.827  2.4176 -1.1434  2.3761
  132OSM    H8T14249  -0.210   0.620   6.757  0.0409  3.6187 -2.4972
  132OSM    C9S14250  -0.358   0.490   6.844 -0.4768 -0.0671  0.3781
  132OSM    H9S14251  -0.318   0.404   6.786 -2.6375  0.0116 -1.3446
  132OSM    H9T14252  -0.467   0.468   6.847 -1.0136  1.9725 -1.8855
  132OSM   C10S14253  -0.291   0.501   6.981 -0.2279  0.6077 -0.0474
  132OSM   H10S14254  -0.181   0.514   6.969  0.1308 -2.2537 -0.3659
  132OSM   H10T14255  -0.321   0.405   7.027  2.0222  0.5035  1.3497
  132OSM   C11S14256  -0.351   0.609   7.077  0.5536  0.5335 -0.1888
  132OSM   H11S14257  -0.462   0.600   7.071  0.6542  0.0973 -3.0570
  132OSM   H11T14258  -0.330   0.712   7.040  0.0323  0.8230  0.2974
  132OSM   C12S14259  -0.305   0.590   7.218  0.6989  0.2482 -0.0198
  132OSM   H12S14260  -0.196   0.599   7.234  1.0016 -3.7443  1.2546
  132OSM   H12T14261  -0.328   0.490   7.261  0.4863  0.5533  0.5940
  132OSM   C13S14262  -0.379   0.689   7.308  0.3190  1.0374  0.7636
  132OSM   H13S14263  -0.487   0.666   7.297 -0.0963  3.5466 -1.2521
  132OSM   H13T14264  -0.371   0.790   7.264 -1.3908  0.5014 -0.9090
  132OSM   C14S14265  -0.332   0.678   7.454 -0.1514 -0.3898  0.2382
  132OSM   H14S14266  -0.296   0.776   7.490 -0.5696 -0.1746  0.0778
  132OSM   H14T14267  -0.252   0.601   7.464 -0.2177 -0.2883  1.6912
  132OSM   C15S14268  -0.455   0.633   7.538  0.2519  0.4334  0.4964
  132OSM   H15S14269  -0.509   0.557   7.476 -2.4771  1.9720  0.8415
  132OSM   H15T14270  -0.529   0.713   7.557 -0.2351  0.3072 -0.7508
  132OSM   C16S14271  -0.411   0.573   7.672 -0.2788  0.1282  0.6890
  132OSM   H16S14272  -0.330   0.502   7.648  0.2606  0.8656  0.2677
  132OSM   H16T14273  -0.500   0.529   7.721  0.2266 -2.4665 -0.5363
  132OSM   C17S14274  -0.358   0.666   7.777 -0.3035  0.3386  0.2830
  132OSM   H17S14275  -0.424   0.755   7.779  0.5794  0.9962  0.6772
  132OSM   H17T14276  -0.258   0.704   7.750 -0.0542  1.0028  1.9928
  132OSM   C18S14277  -0.343   0.598   7.913 -0.6230 -0.1576  0.2755
  132OSM   H18S14278  -0.267   0.659   7.967 -1.8922  0.6048  1.2669
  132OSM   H18T14279  -0.285   0.505   7.898  1.3403  0.8353  1.3178
  132OSM   H18U14280  -0.438   0.599   7.971 -0.9724  1.9019 -0.2637
  132OSM    C1F14281   0.151   0.657   6.799  0.4918  0.1011 -0.0259
  132OSM     OF14282   0.160   0.777   6.775  0.5123  0.5183  0.1821
  132OSM    C2F14283   0.166   0.596   6.939  0.5528  0.0952  0.1623
  132OSM    H2F14284   0.263   0.546   6.957 -0.7378 -2.4802  0.3008
  132OSM    H2G14285   0.087   0.519   6.947 -1.0272  1.4664 -1.3037
  132OSM    C3F14286   0.133   0.689   7.058  0.3431  0.0953  0.2493
  132OSM    H3F14287   0.028   0.724   7.049 -0.2544 -1.9565 -1.5762
  132OSM    H3G14288   0.201   0.777   7.044  0.1762 -0.0832 -2.1532
  132OSM    C4F14289   0.164   0.617   7.192  0.2306  0.4050 -0.7836
  132OSM    H4F14290   0.259   0.559   7.191  1.5668  2.4183  0.7197
  132OSM    H4G14291   0.077   0.550   7.207  0.7443 -0.2227 -0.5485
  132OSM    C5F14292   0.184   0.707   7.315 -0.2726  0.0536 -0.2649
  132OSM    H5F14293   0.089   0.754   7.350 -0.0292 -0.7076  1.5217
  132OSM    H5G14294   0.242   0.797   7.289 -0.5859  0.3781  0.1521
  132OSM    C6F14295   0.246   0.629   7.434 -0.6825  0.0201 -0.6566
  132OSM    H6F14296   0.340   0.574   7.413 -0.5705 -0.6197  1.2788
  132OSM    H6G14297   0.175   0.548   7.462  0.1784 -0.1162  1.2754
  132OSM    C7F14298   0.278   0.720   7.554  0.3747 -0.2595 -0.1619
  132OSM    H7F14299   0.191   0.783   7.581 -0.3856 -1.5377  0.4767
  132OSM    H7G14300   0.366   0.787   7.544  1.5384 -1.0635  3.3224
  132OSM    C8F14301   0.315   0.641   7.687 -0.0284 -0.3182  0.1361
  132OSM    H8F14302   0.373   0.704   7.757  0.1595 -0.9218  0.5369
  132OSM    H8G14303   0.388   0.562   7.657 -0.4627 -0.6094 -0.1673
  132OSM    C9F14304   0.198   0.562   7.756  0.2630 -0.0384  0.2422
  132OSM    H9F14305   0.165   0.481   7.690 -0.0107  1.1887 -1.1733
  132OSM   C10F14306   0.133   0.587   7.874 -0.0230  0.1052  0.1030
  132OSM   H10F14307   0.075   0.503   7.915  2.2721 -1.2841  0.7197
  132OSM   C11F14308   0.144   0.702   7.969 -0.1100  0.0799  0.0476
  132OSM   H11F14309   0.050   0.729   8.021 -0.8478  0.0505 -1.2231
  132OSM   H11G14310   0.182   0.786   7.907  2.0802 -1.5316 -0.9802
  132OSM   C12F14311   0.251   0.681   8.071 -0.8688  0.5997 -0.3996
  132OSM   H12F14312   0.264   0.777   8.124 -0.5965  0.3045  0.0757
  132OSM   H12G14313   0.350   0.649   8.033  0.1686  1.6023  1.3885
  132OSM   C13F14314   0.216   0.575   8.186  0.8883  0.1248  0.5458
  132OSM   H13F14315   0.115   0.590   8.230  1.0745  1.2445  0.6316
  132OSM   H13G14316   0.293   0.596   8.264  1.4193 -0.9000  0.3222
  132OSM   C14F14317   0.238   0.426   8.160 -0.3783  0.1824 -0.0410
  132OSM   H14F14318   0.343   0.405   8.131 -0.1168  0.2857  0.8024
  132OSM   H14G14319   0.167   0.387   8.084 -2.6669  0.5457  1.8065
  132OSM   C15F14320   0.192   0.344   8.276 -0.1195  0.3799  0.4010
  132OSM   H15F14321   0.105   0.399   8.318 -0.4317  1.0021 -1.0081
  132OSM   H15G14322   0.277   0.351   8.347  0.0250 -3.2976  0.8260
  132OSM   C16F14323   0.159   0.195   8.240 -0.7773  0.1847  0.3542
  132OSM   H16F14324   0.231   0.170   8.160 -1.4914  0.9149 -0.5351
  132OSM   H16G14325   0.056   0.192   8.198  0.0555  1.0174 -1.8585
  132OSM   C17F14326   0.169   0.096   8.362  0.9899 -0.0271  0.1158
  132OSM   H17F14327   0.273   0.062   8.385  1.2855  1.2478  0.7483
  132OSM   H17G14328   0.109   0.006   8.338 -1.7088  2.1862 -2.0351
  132OSM   C18F14329   0.101   0.146   8.497  0.0063  0.0194  0.1062
  132OSM   H18F14330  -0.006   0.175   8.482 -0.0041  0.1083  0.3412
  132OSM   H18G14331   0.158   0.237   8.525 -0.6090  0.0495  1.3258
  132OSM   H18H14332   0.101   0.059   8.566 -1.1772 -1.8574 -2.1134
  133OSM      N14333   0.347   1.134   5.842 -0.3201  0.7988  0.2390
  133OSM    C1514334   0.344   1.255   5.931 -0.3487  0.0517 -0.1051
  133OSM   H15A14335   0.244   1.297   5.923  0.4212  2.2647  1.0380
  133OSM   H15B14336   0.424   1.323   5.908 -0.3634  0.3531  0.6848
  133OSM   H15C14337   0.360   1.221   6.033 -2.2914 -1.3457 -0.2123
  133OSM    C1414338   0.325   1.176   5.692 -0.7664  0.1402 -0.6476
  133OSM   H14A14339   0.372   1.108   5.622 -2.0362 -0.0398 -1.3455
  133OSM   H14B14340   0.382   1.265   5.667  2.2959 -1.2670  0.7239
  133OSM   H14C14341   0.219   1.180   5.673 -0.8563 -0.4204 -0.2888
  133OSM    C1314342   0.479   1.069   5.859 -0.3673  0.2035  0.4713
  133OSM   H13A14343   0.470   0.963   5.838  0.9262  0.5114 -2.0829
  133OSM   H13B14344   0.517   1.075   5.960 -0.7761  0.8404  0.5942
  133OSM   H13C14345   0.552   1.118   5.797  0.1232 -2.9376 -1.6702
  133OSM    C1214346   0.235   1.040   5.881 -0.3385  0.1575 -0.6413
  133OSM   H12A14347   0.234   0.956   5.813 -0.2036  0.4639 -1.0210
  133OSM   H12B14348   0.141   1.092   5.875  0.6759  2.1960  0.0771
  133OSM    C1114349   0.243   0.973   6.025 -0.8686  0.3309 -0.0621
  133OSM   H11A14350   0.345   0.932   6.032 -0.3238  1.8307  1.7374
  133OSM   H11B14351   0.175   0.886   6.039  0.8024 -1.3735 -1.9280
  133OSM      P14352   0.081   1.125   6.163 -0.3978 -0.3494 -0.5448
  133OSM    O1314353   0.083   1.242   6.247  0.3730 -0.4550 -0.2690
  133OSM    O1414354   0.000   1.139   6.040 -0.0746 -0.1436  0.7386
  133OSM    O1114355   0.014   1.005   6.244 -0.7189  0.1492  0.6805
  133OSM    O1214356   0.225   1.072   6.134  0.4553  0.3608  0.1392
  133OSM    C1S14357   0.083   0.950   6.356  0.8570 -0.5024  0.3424
  133OSM    H1S14358   0.194   0.953   6.350  0.8086 -0.8258 -2.2196
  133OSM    H1T14359   0.059   0.841   6.357  0.9469 -0.5196  0.7283
  133OSM     NF14360   0.130   1.000   6.591  0.4801 -0.5891 -0.0243
  133OSM    HNF14361   0.109   0.932   6.660 -0.7923  1.7209  2.0226
  133OSM    C2S14362   0.036   1.018   6.484 -0.1174  0.4355  0.7618
  133OSM    H2S14363   0.033   1.128   6.468  4.1531  0.4949 -0.7323
  133OSM    C3S14364  -0.109   0.971   6.510 -0.3365  0.8009 -0.3346
  133OSM    H3S14365  -0.117   0.860   6.519 -0.8681  0.9119  0.7143
  133OSM     O314366  -0.210   1.010   6.423  0.1851 -0.5249  0.1813
  133OSM    HO314367  -0.174   1.064   6.353  0.8549 -1.5929 -0.3309
  133OSM    C4S14368  -0.146   1.022   6.642  0.7308  0.0352  0.1394
  133OSM    H4S14369  -0.183   1.125   6.642 -0.2936 -0.3050  1.3347
  133OSM    C5S14370  -0.150   0.950   6.751 -0.1036 -0.0906  0.0188
  133OSM    H5S14371  -0.122   0.844   6.736  0.1369  0.1477 -1.3595
  133OSM    C6S14372  -0.198   0.999   6.892 -0.0768 -0.5104  0.4144
  133OSM    H6S14373  -0.278   0.940   6.942  0.5735 -0.9968  0.9195
  133OSM    H6T14374  -0.250   1.096   6.879  0.3538 -0.5441 -1.9741
  133OSM    C7S14375  -0.078   1.031   6.986  0.1346  0.3321  0.1496
  133OSM    H7S14376  -0.035   1.130   6.962 -0.2549  0.1009 -1.7039
  133OSM    H7T14377  -0.004   0.948   6.972 -0.9590 -0.6284 -0.0930
  133OSM    C8S14378  -0.111   1.033   7.142  0.7495 -0.2319  0.0113
  133OSM    H8S14379  -0.153   0.937   7.179 -1.1204  1.1358  1.6709
  133OSM    H8T14380  -0.189   1.107   7.171  1.4817  0.8177 -0.6319
  133OSM    C9S14381   0.017   1.068   7.213 -0.2078  0.5490 -0.5116
  133OSM    H9S14382   0.051   1.158   7.159 -2.2317  0.1207 -2.6419
  133OSM    H9T14383   0.088   0.985   7.189 -1.2315 -0.0314 -1.6655
  133OSM   C10S14384   0.006   1.096   7.366  0.7764  0.1188 -0.3279
  133OSM   H10S14385  -0.038   1.199   7.364  0.6171  0.0436 -1.8616
  133OSM   H10T14386   0.098   1.098   7.427 -0.5587 -2.3510  1.9771
  133OSM   C11S14387  -0.105   1.017   7.447 -0.8586  0.4858 -0.3241
  133OSM   H11S14388  -0.109   0.913   7.410 -1.8905 -0.9493  3.4288
  133OSM   H11T14389  -0.203   1.068   7.436 -0.5052  1.5672  1.1516
  133OSM   C12S14390  -0.072   1.006   7.601  0.4619 -0.0240 -0.3327
  133OSM   H12S14391   0.035   0.987   7.619  0.7892  0.6328 -1.4867
  133OSM   H12T14392  -0.125   0.915   7.638  1.6496 -0.1616  1.0936
  133OSM   C13S14393  -0.116   1.130   7.689  0.3849  0.0181 -0.9773
  133OSM   H13S14394  -0.195   1.188   7.637  0.2753  2.4688  1.7257
  133OSM   H13T14395  -0.034   1.204   7.675 -0.6020  1.1408 -0.9302
  133OSM   C14S14396  -0.140   1.103   7.841 -0.4819 -0.2347  0.9295
  133OSM   H14S14397  -0.047   1.073   7.893 -1.8022 -2.3364  2.2379
  133OSM   H14T14398  -0.218   1.024   7.844 -0.7875 -0.0369 -0.8757
  133OSM   C15S14399  -0.180   1.233   7.915 -0.8130  0.3784  0.2235
  133OSM   H15S14400  -0.239   1.297   7.846 -1.6840 -0.7502 -0.1035
  133OSM   H15T14401  -0.094   1.303   7.920  0.0528 -0.6681  0.1997
  133OSM   C16S14402  -0.252   1.206   8.040  0.1114 -0.3138 -0.0223
  133OSM   H16S14403  -0.182   1.169   8.118 -1.0000  0.3288  1.3286
  133OSM   H16T14404  -0.332   1.128   8.042 -0.2097  0.0128  1.8747
  133OSM   C17S14405  -0.311   1.338   8.093  0.6558  0.1314  0.3793
  133OSM   H17S14406  -0.380   1.373   8.013  0.4947  2.6692  1.5327
  133OSM   H17T14407  -0.223   1.406   8.098  1.9867 -1.3790 -1.2983
  133OSM   C18S14408  -0.382   1.343   8.232 -0.2605  0.7361  0.1944
  133OSM   H18S14409  -0.491   1.324   8.225 -0.1557  0.3486 -0.5306
  133OSM   H18T14410  -0.364   1.444   8.273 -1.9192  1.6783 -1.2686
  133OSM   H18U14411  -0.331   1.268   8.296  0.7081  1.4929  0.3296
  133OSM    C1F14412   0.253   1.063   6.597 -0.0058  0.2487 -0.2985
  133OSM     OF14413   0.287   1.140   6.506 -0.2176  0.1684 -0.4318
  133OSM    C2F14414   0.347   1.036   6.714  0.2005 -0.5034 -0.4269
  133OSM    H2F14415   0.454   1.039   6.688  0.2073  1.4163 -0.3835
  133OSM    H2G14416   0.319   0.936   6.753 -2.2675  0.5115  0.6711
  133OSM    C3F14417   0.330   1.157   6.821  0.2498 -0.6447  0.3782
  133OSM    H3F14418   0.220   1.163   6.837 -0.2924 -0.5052 -2.8982
  133OSM    H3G14419   0.357   1.248   6.763 -3.0567 -0.5426 -1.2606
  133OSM    C4F14420   0.406   1.135   6.948  0.2419 -0.3369 -0.1265
  133OSM    H4F14421   0.516   1.131   6.931  0.5359 -1.8027  1.7506
  133OSM    H4G14422   0.382   1.030   6.973 -1.6275  0.4735  1.9216
  133OSM    C5F14423   0.378   1.235   7.060 -0.2726  0.9159 -0.1458
  133OSM    H5F14424   0.267   1.233   7.068 -0.5139 -2.5928 -2.3707
  133OSM    H5G14425   0.402   1.335   7.017  1.9770 -0.6280 -2.8649
  133OSM    C6F14426   0.440   1.190   7.198  0.0046  0.0355  0.7259
  133OSM    H6F14427   0.548   1.172   7.181 -0.6375 -2.2390 -1.8066
  133OSM    H6G14428   0.383   1.097   7.222 -1.2970  0.7826  0.6535
  133OSM    C7F14429   0.402   1.295   7.309  0.2867 -0.0178 -0.3448
  133OSM    H7F14430   0.292   1.301   7.299  0.2894  3.3620  0.3022
  133OSM    H7G14431   0.451   1.392   7.285 -0.0204 -0.0085 -0.9692
  133OSM    C8F14432   0.448   1.242   7.447  0.1000 -0.3292 -0.4146
  133OSM    H8F14433   0.558   1.246   7.433  0.0483 -1.5650 -1.3890
  133OSM    H8G14434   0.410   1.138   7.458 -0.4656  0.1098  3.3278
  133OSM    C9F14435   0.391   1.329   7.549 -0.6383  0.0695  0.0737
  133OSM    H9F14436   0.374   1.433   7.516 -0.8501  0.2888  0.8473
  133OSM   C10F14437   0.353   1.296   7.673 -0.0696 -0.2094 -0.3303
  133OSM   H10F14438   0.297   1.368   7.734  1.3268 -0.1184  0.8993
  133OSM   C11F14439   0.366   1.157   7.726  0.6780 -0.1511  0.5055
  133OSM   H11F14440   0.386   1.085   7.644  0.1363  0.4682 -0.1887
  133OSM   H11G14441   0.266   1.121   7.758  0.6740  0.3015  1.0081
  133OSM   C12F14442   0.462   1.149   7.839 -0.2511 -0.5401  0.0393
  133OSM   H12F14443   0.558   1.199   7.813  0.5353 -1.6954  0.5961
  133OSM   H12G14444   0.483   1.042   7.862  1.9397 -0.2598 -0.4539
  133OSM   C13F14445   0.401   1.200   7.970 -0.9285 -0.0399  0.2108
  133OSM   H13F14446   0.363   1.303   7.950 -0.1122  0.3310  0.5166
  133OSM   H13G14447   0.478   1.204   8.050 -0.6746 -1.8752  0.0970
  133OSM   C14F14448   0.292   1.108   8.031 -0.1853 -0.2253  0.1194
  133OSM   H14F14449   0.351   1.021   8.068 -0.9810  0.0351  2.1038
  133OSM   H14G14450   0.220   1.066   7.958 -1.1385  3.0364 -0.9868
  133OSM   C15F14451   0.223   1.171   8.152 -0.0153 -0.0144 -0.2335
  133OSM   H15F14452   0.147   1.240   8.109  0.9173 -0.1127 -2.1463
  133OSM   H15G14453   0.293   1.232   8.212 -1.3678 -0.3817  1.8430
  133OSM   C16F14454   0.165   1.060   8.241  0.0641 -0.2058  0.4180
  133OSM   H16F14455   0.244   0.999   8.292 -1.2849 -1.5955  0.9353
  133OSM   H16G14456   0.099   0.988   8.188 -0.6882 -1.1774  2.5355
  133OSM   C17F14457   0.068   1.120   8.346 -0.2228  0.4583  0.3047
  133OSM   H17F14458  -0.029   1.150   8.303 -1.0840  1.5889  2.8364
  133OSM   H17G14459   0.120   1.204   8.397  1.6665  0.0019 -0.7642
  133OSM   C18F14460   0.036   1.014   8.452 -0.3803 -0.3528  0.8551
  133OSM   H18F14461   0.129   0.972   8.495  0.2575  1.1840  1.0054
  133OSM   H18G14462  -0.021   0.926   8.414 -0.7283 -0.6615  2.0450
  133OSM   H18H14463  -0.030   1.052   8.533  1.9906 -2.4506  4.0148
  134OSM      N14464   0.923   4.297   6.342  0.0633 -0.0697  0.8382
  134OSM    C1514465   1.049   4.246   6.279  0.1647  0.6185 -0.2661
  134OSM   H15A14466   1.128   4.320   6.278 -0.6563  1.6011 -2.7318
  134OSM   H15B14467   1.028   4.212   6.178 -1.9112 -1.1274  0.6844
  134OSM   H15C14468   1.089   4.157   6.324  2.2689  0.5820 -1.9862
  134OSM    C1414469   0.969   4.376   6.456 -0.5361 -1.1674  0.1296
  134OSM   H14A14470   0.983   4.308   6.539  1.5109 -2.1727 -0.9523
  134OSM   H14B14471   0.900   4.455   6.483  1.8002  1.3340 -0.7757
  134OSM   H14C14472   1.058   4.435   6.442  0.9469 -3.0695  1.0335
  134OSM    C1314473   0.863   4.394   6.241 -1.0981 -0.5068  0.8806
  134OSM   H13A14474   0.775   4.443   6.280 -0.8201 -0.6869  1.7606
  134OSM   H13B14475   0.850   4.342   6.148  0.6039  1.5375 -0.6219
  134OSM   H13C14476   0.946   4.455   6.207 -0.9715 -1.1405  0.0148
  134OSM    C1214477   0.823   4.189   6.375 -0.0574 -0.0999 -0.7778
  134OSM   H12A14478   0.799   4.133   6.286  1.1055 -1.3160 -0.3614
  134OSM   H12B14479   0.727   4.233   6.399  1.2394  1.6453  1.7381
  134OSM    C1114480   0.856   4.086   6.484 -0.0655 -0.0306 -1.3215
  134OSM   H11A14481   0.769   4.026   6.518  0.4455 -0.8782 -1.4625
  134OSM   H11B14482   0.898   4.140   6.571 -1.6932 -1.3609  0.3854
  134OSM      P14483   0.920   3.860   6.370 -0.0297  0.0028  0.4329
  134OSM    O1314484   0.821   3.886   6.257  0.2684 -0.2410  0.2760
  134OSM    O1414485   1.044   3.791   6.333 -0.0500 -0.0922 -0.2449
  134OSM    O1114486   0.856   3.766   6.485 -0.0401 -0.2133  0.0722
  134OSM    O1214487   0.955   3.992   6.447 -0.4046 -0.1659  0.2699
  134OSM    C1S14488   0.933   3.730   6.603  0.6119 -0.7714  0.1455
  134OSM    H1S14489   0.921   3.808   6.682 -1.3671 -1.0283  0.1671
  134OSM    H1T14490   1.043   3.731   6.587  0.8325  0.0681  1.5195
  134OSM     NF14491   0.959   3.562   6.794 -0.4398  0.4673 -0.7363
  134OSM    HNF14492   1.039   3.503   6.800 -1.5991 -1.0418  0.7453
  134OSM    C2S14493   0.890   3.591   6.664 -0.7118  0.2544 -0.0807
  134OSM    H2S14494   0.781   3.601   6.681 -0.9084 -1.2820 -0.2898
  134OSM    C3S14495   0.901   3.478   6.562 -0.6515  0.4146 -0.5948
  134OSM    H3S14496   1.005   3.454   6.530 -0.8346 -0.9591 -0.2622
  134OSM     O314497   0.824   3.502   6.451 -0.2782 -0.0121  0.5025
  134OSM    HO314498   0.810   3.597   6.458 -1.5220 -0.1447  0.1134
  134OSM    C4S14499   0.849   3.352   6.628  0.1233  0.6596  0.7366
  134OSM    H4S14500   0.914   3.264   6.615 -0.1556  0.1992  2.2488
  134OSM    C5S14501   0.728   3.332   6.674  0.0831  0.5541 -0.0755
  134OSM    H5S14502   0.656   3.414   6.685  0.1696  0.6117  0.0785
  134OSM    C6S14503   0.680   3.204   6.734 -0.9091 -0.0680  0.3513
  134OSM    H6S14504   0.759   3.126   6.732  0.5030  1.3382 -0.2806
  134OSM    H6T14505   0.591   3.158   6.686  0.6208 -1.6431 -1.0961
  134OSM    C7S14506   0.640   3.237   6.884 -0.5503  0.1833  0.4014
  134OSM    H7S14507   0.593   3.141   6.913  0.6580 -1.0100 -1.3109
  134OSM    H7T14508   0.564   3.316   6.898 -0.7462 -0.2195  1.7034
  134OSM    C8S14509   0.751   3.257   6.986 -0.2214  0.0155 -0.3442
  134OSM    H8S14510   0.822   3.336   6.952 -0.9819  1.1255  0.5403
  134OSM    H8T14511   0.809   3.164   6.976 -0.2369  0.1209 -1.5514
  134OSM    C9S14512   0.701   3.273   7.130  0.0940 -0.3532  0.4257
  134OSM    H9S14513   0.639   3.188   7.165  0.1512 -0.3375  0.5661
  134OSM    H9T14514   0.641   3.367   7.130 -1.5130 -1.3312  0.3763
  134OSM   C10S14515   0.816   3.287   7.226 -0.1974 -0.3973  0.7923
  134OSM   H10S14516   0.862   3.386   7.208 -2.6466  0.7120  0.1303
  134OSM   H10T14517   0.884   3.201   7.210 -0.6481 -0.6212  0.0654
  134OSM   C11S14518   0.758   3.307   7.367 -0.6395  0.4207  0.5050
  134OSM   H11S14519   0.691   3.223   7.396 -1.0026  0.7987  0.7657
  134OSM   H11T14520   0.698   3.401   7.361 -1.4312  0.1308  2.7030
  134OSM   C12S14521   0.865   3.306   7.483  0.5312  0.1897 -0.0688
  134OSM   H12S14522   0.936   3.391   7.483 -0.7171  1.3195  2.6394
  134OSM   H12T14523   0.927   3.214   7.472 -1.4245 -1.0204 -1.5486
  134OSM   C13S14524   0.780   3.302   7.612 -0.5040  0.6003 -0.3903
  134OSM   H13S14525   0.721   3.208   7.601  1.9730 -1.1921  0.7467
  134OSM   H13T14526   0.706   3.384   7.623 -0.6382  0.4002  0.2315
  134OSM   C14S14527   0.872   3.289   7.740 -0.2835 -0.0145 -1.1352
  134OSM   H14S14528   0.935   3.380   7.750 -0.8392  0.2701 -0.0690
  134OSM   H14T14529   0.934   3.198   7.726 -2.0388 -1.0129 -3.0022
  134OSM   C15S14530   0.791   3.278   7.867 -0.2596  0.3100 -0.4388
  134OSM   H15S14531   0.743   3.178   7.867 -0.4549  0.3872  0.9313
  134OSM   H15T14532   0.707   3.350   7.883 -0.8853 -0.4285 -0.3684
  134OSM   C16S14533   0.888   3.268   7.985 -0.0715 -0.8156 -0.1258
  134OSM   H16S14534   0.969   3.344   7.983 -0.5071 -0.1198  3.0451
  134OSM   H16T14535   0.941   3.172   7.969 -1.7356 -1.5135 -1.8621
  134OSM   C17S14536   0.827   3.278   8.127  0.3266  0.7126 -0.6675
  134OSM   H17S14537   0.748   3.200   8.136  0.3786  0.6223 -0.9607
  134OSM   H17T14538   0.771   3.373   8.142 -2.7551 -1.0486 -0.1485
  134OSM   C18S14539   0.931   3.262   8.240  0.1451  0.6573 -0.0161
  134OSM   H18S14540   0.935   3.155   8.268  0.6102  0.4304 -0.9276
  134OSM   H18T14541   0.894   3.317   8.329 -0.3543 -0.9829  0.8266
  134OSM   H18U14542   1.027   3.302   8.201  0.7085  1.2107  1.8157
  134OSM    C1F14543   0.947   3.643   6.901  0.2192 -0.0761 -0.2682
  134OSM     OF14544   0.869   3.737   6.891  0.2201  0.8432 -0.7475
  134OSM    C2F14545   1.039   3.617   7.021 -0.6779  0.4793  0.0393
  134OSM    H2F14546   1.140   3.655   6.996 -1.2393  0.7982 -1.8669
  134OSM    H2G14547   1.035   3.506   7.033 -1.6559  0.3499 -1.2862
  134OSM    C3F14548   0.985   3.677   7.148 -0.1909  1.1370 -0.0692
  134OSM    H3F14549   0.889   3.623   7.160  0.0067  0.3581 -1.7103
  134OSM    H3G14550   0.969   3.786   7.133  1.8927  2.0108  3.0600
  134OSM    C4F14551   1.069   3.645   7.272 -0.4538  0.0889  0.2069
  134OSM    H4F14552   1.163   3.703   7.270  0.1224 -0.8289 -1.7384
  134OSM    H4G14553   1.105   3.539   7.273  1.4622  0.6327 -2.2988
  134OSM    C5F14554   1.000   3.671   7.407 -0.8243 -0.7425  0.3550
  134OSM    H5F14555   1.047   3.614   7.490 -2.2421 -1.2112  0.8616
  134OSM    H5G14556   0.899   3.629   7.390 -0.3060 -2.8520  2.0025
  134OSM    C6F14557   0.986   3.815   7.450 -0.5976  0.2343 -0.0313
  134OSM    H6F14558   0.926   3.819   7.544 -0.9417  0.2495 -0.2506
  134OSM    H6G14559   0.928   3.863   7.368 -0.5664 -0.6642 -0.5906
  134OSM    C7F14560   1.122   3.879   7.476  0.3468  0.0894 -0.2943
  134OSM    H7F14561   1.178   3.884   7.380  0.9767  0.7342  0.0970
  134OSM    H7G14562   1.188   3.808   7.530  1.6040 -2.8466 -5.0453
  134OSM    C8F14563   1.120   4.017   7.535  0.6521 -0.0068  0.0689
  134OSM    H8F14564   1.225   4.053   7.544 -0.0470  1.8542  1.2620
  134OSM    H8G14565   1.099   4.010   7.644  2.0852 -0.9574  0.3068
  134OSM    C9F14566   1.027   4.121   7.479 -0.0426 -0.0360 -0.0729
  134OSM    H9F14567   1.075   4.178   7.398 -0.2524  0.3794  0.0904
  134OSM   C10F14568   0.906   4.161   7.535 -0.1751 -0.1089 -0.1877
  134OSM   H10F14569   0.840   4.226   7.477 -1.3413 -1.1396 -0.0511
  134OSM   C11F14570   0.851   4.099   7.660  0.1441  0.0734 -0.2469
  134OSM   H11F14571   0.926   4.110   7.741  1.4476 -0.4080 -1.3522
  134OSM   H11G14572   0.828   3.991   7.647 -1.3719  0.2709  0.5614
  134OSM   C12F14573   0.708   4.152   7.709 -0.0948 -0.2523  0.2849
  134OSM   H12F14574   0.664   4.074   7.774  1.6776  0.0201  1.9262
  134OSM   H12G14575   0.639   4.159   7.622 -1.6114 -0.8759  1.4011
  134OSM   C13F14576   0.711   4.274   7.795 -0.5261  0.2370  0.4451
  134OSM   H13F14577   0.767   4.347   7.734  0.2146 -1.6174 -1.1975
  134OSM   H13G14578   0.785   4.263   7.876  1.4161  0.5996 -1.2031
  134OSM   C14F14579   0.588   4.338   7.859 -0.0707 -0.3653 -0.4758
  134OSM   H14F14580   0.528   4.391   7.783  0.7373  0.5033 -0.5325
  134OSM   H14G14581   0.612   4.419   7.931 -0.2633  0.3281 -1.1876
  134OSM   C15F14582   0.497   4.237   7.930  0.0790 -0.5745  0.2615
  134OSM   H15F14583   0.566   4.162   7.973  0.8246 -0.2360 -0.3187
  134OSM   H15G14584   0.434   4.187   7.853  1.0354 -1.4667  0.0418
  134OSM   C16F14585   0.404   4.311   8.035 -0.2601  0.5721  0.4593
  134OSM   H16F14586   0.361   4.405   7.995 -0.0510  0.7822  0.7211
  134OSM   H16G14587   0.482   4.339   8.109 -0.9580  0.6939  1.1640
  134OSM   C17F14588   0.291   4.216   8.084 -0.4025 -0.5569  0.5005
  134OSM   H17F14589   0.236   4.167   8.001  0.0912 -0.5189  0.1460
  134OSM   H17G14590   0.219   4.290   8.125  3.6549  2.2339  3.3568
  134OSM   C18F14591   0.338   4.124   8.194  0.9820 -0.5994  0.2393
  134OSM   H18F14592   0.397   4.044   8.144  1.1413 -1.0297  1.0915
  134OSM   H18G14593   0.247   4.085   8.245 -1.0252  2.0616 -1.0471
  134OSM   H18H14594   0.399   4.180   8.268  0.8431  0.6570 -0.5786
  135OSM      N14595   0.382   3.557   6.276 -0.4646  0.2411  0.1375
  135OSM    C1514596   0.432   3.490   6.402  0.3620 -0.6220  0.5333
  135OSM   H15A14597   0.358   3.419   6.434 -0.6616  0.0304 -0.3053
  135OSM   H15B14598   0.440   3.571   6.473  2.5427  0.4899 -0.8557
  135OSM   H15C14599   0.529   3.447   6.381  0.3794 -0.5249  0.4106
  135OSM    C1414600   0.468   3.675   6.249  0.4551  0.3222 -0.0064
  135OSM   H14A14601   0.453   3.741   6.334 -1.7699 -3.2388  2.6440
  135OSM   H14B14602   0.432   3.724   6.159 -1.8952 -0.3638  0.4842
  135OSM   H14C14603   0.571   3.643   6.242 -0.0604 -1.2411 -0.8096
  135OSM    C1314604   0.397   3.453   6.169  0.5051  0.5034 -0.6407
  135OSM   H13A14605   0.326   3.374   6.188 -0.9789  1.8987 -0.1371
  135OSM   H13B14606   0.496   3.412   6.179  0.4351  0.1659 -1.2809
  135OSM   H13C14607   0.383   3.494   6.070 -1.6905 -0.2771 -0.7132
  135OSM    C1214608   0.231   3.598   6.282  0.6765  0.0515  0.0117
  135OSM   H12A14609   0.170   3.512   6.307 -0.4062  0.5956 -0.6569
  135OSM   H12B14610   0.206   3.628   6.181 -0.6638  0.1292  0.3485
  135OSM    C1114611   0.188   3.710   6.379  0.1068  0.3030 -0.1866
  135OSM   H11A14612   0.203   3.673   6.483 -2.3941 -1.3735 -0.3371
  135OSM   H11B14613   0.077   3.704   6.377  0.0736 -2.3613  2.3119
  135OSM      P14614   0.323   3.924   6.440  0.2442  0.0075  0.4215
  135OSM    O1314615   0.414   3.987   6.343  0.2010  0.2111 -0.4617
  135OSM    O1414616   0.250   4.016   6.530  0.4695 -0.1421  0.4214
  135OSM    O1114617   0.414   3.822   6.515  0.5430 -0.7474 -0.5070
  135OSM    O1214618   0.239   3.840   6.341 -0.3711  0.0118  0.0717
  135OSM    C1S14619   0.525   3.869   6.596  0.2113 -0.2160  1.1086
  135OSM    H1S14620   0.562   3.969   6.566  0.4407 -0.3467  0.9549
  135OSM    H1T14621   0.611   3.805   6.566 -0.0347 -0.7997  1.6322
  135OSM     NF14622   0.618   3.904   6.827  0.5694  0.0811  0.6106
  135OSM    HNF14623   0.683   3.846   6.876  1.5112  1.9114  1.6175
  135OSM    C2S14624   0.508   3.846   6.751  0.6786 -0.4038  0.1580
  135OSM    H2S14625   0.408   3.890   6.774  0.3897 -1.9953  2.2093
  135OSM    C3S14626   0.492   3.694   6.778  0.1325  0.1628 -0.2460
  135OSM    H3S14627   0.599   3.667   6.772 -0.1097 -0.5946 -1.5904
  135OSM     O314628   0.419   3.620   6.682  0.8402  0.0619  0.2812
  135OSM    HO314629   0.412   3.685   6.611  0.4544 -1.3051 -0.9974
  135OSM    C4S14630   0.442   3.680   6.924  1.2139  0.4791 -0.5915
  135OSM    H4S14631   0.390   3.766   6.968 -1.0414 -0.5123 -1.1798
  135OSM    C5S14632   0.487   3.592   7.017  0.2582 -0.6590  0.2164
  135OSM    H5S14633   0.568   3.520   7.000  0.8388  0.2894 -1.2058
  135OSM    C6S14634   0.427   3.592   7.153 -0.0198  0.3007  0.6146
  135OSM    H6S14635   0.426   3.487   7.192 -2.0670 -0.4315 -1.2022
  135OSM    H6T14636   0.329   3.642   7.155 -0.5586 -0.5460 -1.6111
  135OSM    C7S14637   0.532   3.670   7.238 -0.4268  0.0203 -0.9125
  135OSM    H7S14638   0.537   3.776   7.207 -3.7302  0.1490 -1.2960
  135OSM    H7T14639   0.634   3.626   7.233 -0.3649 -0.1561  0.9934
  135OSM    C8S14640   0.486   3.653   7.384 -0.4231 -0.7971  0.3831
  135OSM    H8S14641   0.483   3.547   7.416 -0.7559 -0.4327  1.6487
  135OSM    H8T14642   0.382   3.692   7.393 -0.5742 -0.8273 -1.0262
  135OSM    C9S14643   0.575   3.726   7.489 -0.1333 -0.2293 -0.2694
  135OSM    H9S14644   0.595   3.826   7.444 -0.1269 -0.1670 -0.1284
  135OSM    H9T14645   0.671   3.671   7.485 -0.9965 -2.1087  2.2608
  135OSM   C10S14646   0.511   3.723   7.628 -0.2733  0.0689 -0.7380
  135OSM   H10S14647   0.447   3.636   7.654  0.7927  0.3006  3.3718
  135OSM   H10T14648   0.453   3.817   7.630 -1.0463 -0.4020 -0.8257
  135OSM   C11S14649   0.618   3.749   7.746  0.0732  0.3038  0.7004
  135OSM   H11S14650   0.561   3.792   7.831 -0.8258 -0.1068  0.3206
  135OSM   H11T14651   0.683   3.831   7.710  0.6661 -0.6224 -0.4133
  135OSM   C12S14652   0.700   3.620   7.790  0.2277 -0.1336 -0.0628
  135OSM   H12S14653   0.749   3.579   7.700 -0.8886  0.1781 -0.8395
  135OSM   H12T14654   0.629   3.544   7.829 -0.3414  0.8570  0.8994
  135OSM   C13S14655   0.807   3.648   7.908  0.5416  0.0094  0.4002
  135OSM   H13S14656   0.835   3.546   7.942 -1.0209 -0.3530  0.6419
  135OSM   H13T14657   0.753   3.707   7.984  1.3296 -1.4239  2.1286
  135OSM   C14S14658   0.935   3.729   7.874 -0.5943 -0.2209  0.0672
  135OSM   H14S14659   0.921   3.834   7.906  1.0399 -0.3155  1.1590
  135OSM   H14T14660   0.964   3.718   7.767 -1.6901 -2.6386 -0.0682
  135OSM   C15S14661   1.053   3.660   7.952  0.3158  0.3814  0.9752
  135OSM   H15S14662   1.147   3.711   7.920  0.5526 -0.8010 -0.3030
  135OSM   H15T14663   1.049   3.552   7.927 -2.3134  0.7517 -0.5241
  135OSM   C16S14664   1.040   3.668   8.099  0.2881  0.4503  0.4121
  135OSM   H16S14665   0.942   3.625   8.127 -0.6809  0.6802 -2.4218
  135OSM   H16T14666   1.022   3.773   8.131  0.1711  0.4729  0.2702
  135OSM   C17S14667   1.160   3.595   8.162 -0.2475  0.2190  0.3995
  135OSM   H17S14668   1.253   3.643   8.123 -1.7715  0.6921 -2.9821
  135OSM   H17T14669   1.156   3.488   8.133 -0.2436  0.8033 -1.9465
  135OSM   C18S14670   1.149   3.597   8.312 -0.7976 -0.1514 -0.0378
  135OSM   H18S14671   1.230   3.545   8.367 -0.2047  1.4679  0.6720
  135OSM   H18T14672   1.065   3.539   8.356 -1.7282  2.0734  1.2857
  135OSM   H18U14673   1.151   3.698   8.357  1.6335  1.0298 -2.4836
  135OSM    C1F14674   0.631   4.029   6.818 -1.0206 -0.8165  0.8454
  135OSM     OF14675   0.546   4.108   6.776 -0.3662 -0.0770 -0.6045
  135OSM    C2F14676   0.766   4.078   6.863 -0.1971 -0.2749  0.3016
  135OSM    H2F14677   0.799   4.146   6.781 -2.3009  0.1308 -0.2638
  135OSM    H2G14678   0.836   3.992   6.871  0.1994  0.1795  2.0090
  135OSM    C3F14679   0.757   4.150   6.987 -0.3081  0.3105  0.1308
  135OSM    H3F14680   0.707   4.249   6.986 -0.8159  0.0586  0.3178
  135OSM    H3G14681   0.862   4.178   7.013  0.1576  0.2072 -1.4711
  135OSM    C4F14682   0.701   4.064   7.106 -0.2247 -0.0921 -0.5974
  135OSM    H4F14683   0.767   3.976   7.095 -0.3111 -0.1069 -1.0550
  135OSM    H4G14684   0.599   4.024   7.085  0.9379 -3.9046  0.2655
  135OSM    C5F14685   0.715   4.129   7.242 -0.0114 -0.0505  0.2480
  135OSM    H5F14686   0.820   4.163   7.253 -0.3915  0.5434  2.6564
  135OSM    H5G14687   0.700   4.051   7.320 -0.6105 -0.5635 -0.3695
  135OSM    C6F14688   0.604   4.231   7.286 -0.2049  0.4477 -0.0042
  135OSM    H6F14689   0.595   4.233   7.397 -0.0659  0.0806  0.0160
  135OSM    H6G14690   0.508   4.190   7.250 -0.9413  1.3395  0.8841
  135OSM    C7F14691   0.637   4.377   7.241  0.4732  0.1933  0.4010
  135OSM    H7F14692   0.618   4.393   7.133 -1.9187 -0.1100  0.7174
  135OSM    H7G14693   0.741   4.412   7.260  0.3443  0.2984  0.9425
  135OSM    C8F14694   0.532   4.473   7.312 -0.3467  0.5457 -0.3683
  135OSM    H8F14695   0.431   4.429   7.297 -0.3249  1.0594 -2.2051
  135OSM    H8G14696   0.540   4.567   7.254 -0.4243 -0.0368 -1.3499
  135OSM    C9F14697   0.563   4.494   7.457 -0.2015 -0.4789 -0.6314
  135OSM    H9F14698   0.623   4.415   7.506  0.6589 -0.5274 -1.7300
  135OSM   C10F14699   0.519   4.589   7.534 -0.3098 -0.8458 -0.1418
  135OSM   H10F14700   0.551   4.597   7.639 -0.9010 -3.2034  0.2781
  135OSM   C11F14701   0.431   4.704   7.481  0.1657 -0.0816  0.5405
  135OSM   H11F14702   0.375   4.678   7.389  2.0069 -0.7909 -0.4270
  135OSM   H11G14703   0.497   4.791   7.461  0.4903 -0.2335  0.9482
  135OSM   C12F14704   0.330   4.741   7.588  0.0379 -0.6909 -0.1073
  135OSM   H12F14705   0.288   4.651   7.639  2.5199 -1.1575  1.2952
  135OSM   H12G14706   0.243   4.797   7.547  2.2797  4.7598  1.6085
  135OSM   C13F14707   0.398   4.824   7.700  0.1163  0.3863 -0.5339
  135OSM   H13F14708   0.424   4.922   7.654 -0.6658  0.5198 -0.7015
  135OSM   H13G14709   0.492   4.769   7.724  0.6847  1.6002  0.1203
  135OSM   C14F14710   0.321   4.850   7.832 -0.1890 -0.1625  0.6127
  135OSM   H14F14711   0.329   4.758   7.893  1.9383  0.2408  1.0088
  135OSM   H14G14712   0.213   4.875   7.820  0.3793  1.9774 -0.5177
  135OSM   C15F14713   0.383   4.958   7.922 -0.8871 -0.6528  0.6421
  135OSM   H15F14714   0.414   5.043   7.858  0.9971 -1.5690  0.2689
  135OSM   H15G14715   0.479   4.928   7.969 -0.6628  0.6138  1.0172
  135OSM   C16F14716   0.277   5.011   8.026  0.7045 -0.5633  0.2033
  135OSM   H16F14717   0.261   4.923   8.093  1.3009  0.1830  1.3675
  135OSM   H16G14718   0.177   5.036   7.987 -0.5983 -1.0551  3.0096
  135OSM   C17F14719   0.333   5.130   8.114 -0.3539  0.1171 -0.1986
  135OSM   H17F14720   0.364   5.212   8.046  0.3445 -1.0868 -1.3677
  135OSM   H17G14721   0.418   5.093   8.176  0.8145  1.7108 -0.7819
  135OSM   C18F14722   0.223   5.184   8.208  0.4799 -0.7422  0.6280
  135OSM   H18F14723   0.270   5.274   8.253  0.4366 -0.5520  0.2935
  135OSM   H18G14724   0.183   5.122   8.291 -0.5182 -1.3533 -0.2853
  135OSM   H18H14725   0.136   5.217   8.147  2.4080  1.8657 -0.9021
  136OSM      N14726   3.299   4.031   5.651 -0.5490  0.1604  0.4360
  136OSM    C1514727   3.410   4.126   5.639  0.3193  0.0103 -0.7666
  136OSM   H15A14728   3.496   4.075   5.599 -0.1014  0.1698 -1.9093
  136OSM   H15B14729   3.433   4.171   5.735  2.1367 -0.0979 -1.1138
  136OSM   H15C14730   3.396   4.203   5.564 -0.7238 -0.0939 -0.6966
  136OSM    C1414731   3.167   4.107   5.658  0.1916  0.6511  0.4458
  136OSM   H14A14732   3.169   4.162   5.750  3.0331 -0.3218  1.0695
  136OSM   H14B14733   3.084   4.037   5.654 -1.1423  2.2253 -1.7101
  136OSM   H14C14734   3.146   4.171   5.573  0.2493  1.6650  1.1775
  136OSM    C1314735   3.300   3.951   5.525  0.0431 -0.1593  0.6161
  136OSM   H13A14736   3.394   3.899   5.524  0.0036 -0.2323 -0.4757
  136OSM   H13B14737   3.285   4.008   5.434 -1.3481 -2.2788 -0.5943
  136OSM   H13C14738   3.225   3.873   5.529 -0.0721 -0.0253  1.1171
  136OSM    C1214739   3.309   3.938   5.761  0.3937 -0.1396 -0.3962
  136OSM   H12A14740   3.388   3.869   5.736  0.9070  0.9791 -2.0615
  136OSM   H12B14741   3.211   3.893   5.768 -0.4357  1.2704 -2.2237
  136OSM    C1114742   3.343   3.995   5.899 -0.4063  0.1678 -0.5634
  136OSM   H11A14743   3.448   4.031   5.897 -0.3729  0.3030  1.2661
  136OSM   H11B14744   3.340   3.902   5.961 -0.4622  1.5134  1.5527
  136OSM      P14745   3.292   4.219   6.028  0.4276 -0.0846  0.2659
  136OSM    O1314746   3.346   4.317   5.934  0.7399 -0.5434  0.0130
  136OSM    O1414747   3.179   4.257   6.117  0.0398  0.2771 -0.1300
  136OSM    O1114748   3.413   4.159   6.105  0.0439  0.8463  0.2985
  136OSM    O1214749   3.244   4.096   5.938 -0.2667  0.0400 -0.0173
  136OSM    C1S14750   3.524   4.242   6.145  1.7109 -0.8382  0.4834
  136OSM    H1S14751   3.499   4.350   6.142 -0.0795 -1.2148  0.2326
  136OSM    H1T14752   3.613   4.233   6.080  1.7981  0.2745  0.4365
  136OSM     NF14753   3.609   4.333   6.362 -0.0259  0.2850 -0.1068
  136OSM    HNF14754   3.693   4.318   6.414 -0.5777  0.9031  1.0142
  136OSM    C2S14755   3.552   4.217   6.296 -1.0240 -0.6503  0.1397
  136OSM    H2S14756   3.456   4.194   6.347 -2.1208  0.8018 -1.1723
  136OSM    C3S14757   3.629   4.083   6.308  0.3588  0.2385  0.5574
  136OSM    H3S14758   3.717   4.092   6.242 -0.3667  0.3305 -0.4221
  136OSM     O314759   3.558   3.973   6.237 -0.3688  0.0655  0.0774
  136OSM    HO314760   3.484   4.023   6.201  0.5826  2.2128  0.9317
  136OSM    C4S14761   3.682   4.049   6.446  0.0483 -0.2251 -0.3959
  136OSM    H4S14762   3.785   4.078   6.471  0.0220 -1.3083  1.0580
  136OSM    C5S14763   3.620   3.979   6.540 -0.3161  0.1283  0.1979
  136OSM    H5S14764   3.516   3.946   6.530 -0.0960  0.1385 -2.8325
  136OSM    C6S14765   3.672   3.945   6.677  0.7315  0.4801 -0.4524
  136OSM    H6S14766   3.606   3.975   6.761  0.4965 -2.5710  0.5620
  136OSM    H6T14767   3.763   4.006   6.698 -1.5702  3.7633  0.8054
  136OSM    C7S14768   3.704   3.792   6.679  0.1672 -0.7250  0.2189
  136OSM    H7S14769   3.759   3.776   6.584 -0.3671 -0.3756 -0.1545
  136OSM    H7T14770   3.606   3.741   6.692 -0.3905  0.6664  1.8843
  136OSM    C8S14771   3.791   3.761   6.800 -0.2962 -0.5259 -1.2573
  136OSM    H8S14772   3.882   3.823   6.815 -0.8624 -0.1120  0.8793
  136OSM    H8T14773   3.828   3.658   6.781  1.2436 -0.5034  1.1647
  136OSM    C9S14774   3.712   3.767   6.934 -0.2256  0.6550  0.2080
  136OSM    H9S14775   3.617   3.714   6.913 -0.3042  0.8574  0.0484
  136OSM    H9T14776   3.679   3.870   6.958 -1.2925  0.1735  0.8782
  136OSM   C10S14777   3.775   3.688   7.057  0.4099 -0.2358  0.8072
  136OSM   H10S14778   3.877   3.731   7.060 -0.7002  2.5883  0.6968
  136OSM   H10T14779   3.791   3.579   7.040  4.9676  0.3223  0.3982
  136OSM   C11S14780   3.684   3.697   7.177 -0.6408  0.1144 -0.2078
  136OSM   H11S14781   3.583   3.655   7.159 -0.7921  0.0656  0.7105
  136OSM   H11T14782   3.654   3.803   7.181 -0.1910  0.3638 -2.2645
  136OSM   C12S14783   3.761   3.649   7.298 -0.1331  0.4689 -0.0426
  136OSM   H12S14784   3.847   3.718   7.317  0.3208 -0.5350  1.7516
  136OSM   H12T14785   3.796   3.545   7.284 -2.6292 -0.3845 -0.4967
  136OSM   C13S14786   3.678   3.656   7.422  0.3340  0.0138 -0.0296
  136OSM   H13S14787   3.615   3.565   7.420  0.8805 -0.3664 -0.0781
  136OSM   H13T14788   3.607   3.739   7.404 -0.5861 -0.2858  1.9348
  136OSM   C14S14789   3.752   3.655   7.551 -0.1851  0.0946  0.6446
  136OSM   H14S14790   3.818   3.741   7.575  2.6247 -1.4213 -1.0685
  136OSM   H14T14791   3.821   3.568   7.555 -3.0052 -2.2493  1.8652
  136OSM   C15S14792   3.651   3.660   7.667  0.2118 -0.2804  0.0262
  136OSM   H15S14793   3.559   3.598   7.660  0.1268 -0.0318 -1.3346
  136OSM   H15T14794   3.617   3.765   7.685 -1.9141 -1.2232  2.0330
  136OSM   C16S14795   3.716   3.612   7.801  0.2822  0.2078 -1.1419
  136OSM   H16S14796   3.819   3.653   7.798  0.2513  0.4057 -0.0193
  136OSM   H16T14797   3.734   3.502   7.803 -2.2400 -0.2552  0.3847
  136OSM   C17S14798   3.632   3.669   7.918 -0.5573  0.0223  0.1774
  136OSM   H17S14799   3.624   3.777   7.892  0.4827 -0.2480 -1.4054
  136OSM   H17T14800   3.695   3.660   8.009 -0.5311 -1.3540  0.0394
  136OSM   C18S14801   3.497   3.612   7.935  0.2993 -0.0876 -0.0595
  136OSM   H18S14802   3.447   3.679   8.008  2.1708  2.1825 -0.7616
  136OSM   H18T14803   3.494   3.513   7.987 -0.4734  0.4957  1.0564
  136OSM   H18U14804   3.444   3.605   7.838 -1.0160 -0.5135  0.6513
  136OSM    C1F14805   3.544   4.450   6.382 -0.0021 -0.3505  0.3125
  136OSM     OF14806   3.429   4.468   6.342  0.5285 -0.7967 -0.3296
  136OSM    C2F14807   3.613   4.551   6.470  0.1472 -0.2171 -0.1694
  136OSM    H2F14808   3.662   4.620   6.398  1.1471 -1.7945 -1.0550
  136OSM    H2G14809   3.684   4.498   6.536  0.8768 -0.1652 -0.8966
  136OSM    C3F14810   3.516   4.621   6.568  0.0917  0.7273 -0.1122
  136OSM    H3F14811   3.448   4.547   6.615 -2.6103  1.2966 -2.8148
  136OSM    H3G14812   3.452   4.694   6.513  0.6763  1.9565  0.7915
  136OSM    C4F14813   3.592   4.702   6.670 -0.4950 -0.2699  0.5390
  136OSM    H4F14814   3.658   4.774   6.616 -0.7803  0.6855  1.4214
  136OSM    H4G14815   3.664   4.642   6.730 -1.1172 -0.0242  1.5506
  136OSM    C5F14816   3.510   4.751   6.786 -0.5656 -0.0706 -0.6179
  136OSM    H5F14817   3.461   4.667   6.841 -0.1196  0.7305  1.0768
  136OSM    H5G14818   3.442   4.832   6.751 -1.2320 -0.7060 -0.8193
  136OSM    C6F14819   3.593   4.832   6.897  0.2255 -0.1520 -0.2758
  136OSM    H6F14820   3.652   4.907   6.839 -1.4889  0.7523 -0.9049
  136OSM    H6G14821   3.646   4.758   6.960  0.8408  0.2983 -0.2508
  136OSM    C7F14822   3.502   4.912   6.991  0.3543 -0.2725 -0.2795
  136OSM    H7F14823   3.420   4.967   6.940 -2.8991 -2.3251  2.2577
  136OSM    H7G14824   3.558   4.992   7.044  0.2748 -0.4980  0.1467
  136OSM    C8F14825   3.439   4.814   7.093 -0.5325  0.8526  0.2283
  136OSM    H8F14826   3.377   4.739   7.039  1.9956 -1.5396  0.3866
  136OSM    H8G14827   3.353   4.871   7.133 -2.2105 -0.9040 -0.7209
  136OSM    C9F14828   3.532   4.763   7.198 -0.0588  0.7797 -0.4380
  136OSM    H9F14829   3.597   4.680   7.168 -0.7235  0.5836 -1.3889
  136OSM   C10F14830   3.527   4.795   7.329  0.6535  0.4491  0.2787
  136OSM   H10F14831   3.606   4.752   7.393  1.5796 -0.6877 -1.5456
  136OSM   C11F14832   3.417   4.881   7.390 -0.5104 -0.2489  0.4108
  136OSM   H11F14833   3.329   4.818   7.413 -1.2757  0.7139  0.2015
  136OSM   H11G14834   3.379   4.951   7.312  1.8361 -2.0286 -2.5343
  136OSM   C12F14835   3.468   4.960   7.505 -0.3990  0.3999  0.0901
  136OSM   H12F14836   3.383   5.027   7.532 -0.1329  0.3511  1.0872
  136OSM   H12G14837   3.558   5.019   7.478 -1.2864  0.7547 -2.3681
  136OSM   C13F14838   3.490   4.866   7.618 -0.1166 -0.1455 -0.3194
  136OSM   H13F14839   3.588   4.817   7.603  1.6782  2.3585  2.1406
  136OSM   H13G14840   3.413   4.786   7.624  1.0905 -1.6121 -2.8589
  136OSM   C14F14841   3.483   4.949   7.747 -0.5024 -0.4053  0.1982
  136OSM   H14F14842   3.374   4.968   7.758 -0.3711  0.2478  0.3729
  136OSM   H14G14843   3.538   5.045   7.750 -1.2973  0.0565  0.2606
  136OSM   C15F14844   3.532   4.868   7.871 -0.1445  0.2771  1.1562
  136OSM   H15F14845   3.642   4.869   7.865 -0.1806  2.2439 -0.2612
  136OSM   H15G14846   3.487   4.766   7.869  2.5035 -0.9671  0.6628
  136OSM   C16F14847   3.479   4.934   8.006 -0.1414  0.2010  0.2430
  136OSM   H16F14848   3.368   4.938   8.001 -0.2868 -2.5622 -0.0396
  136OSM   H16G14849   3.516   5.039   8.004  0.5131 -0.0374 -1.8319
  136OSM   C17F14850   3.531   4.851   8.127 -0.5732 -0.3062 -0.1236
  136OSM   H17F14851   3.642   4.854   8.134 -0.5158 -2.1849  0.4332
  136OSM   H17G14852   3.513   4.741   8.121 -1.7857 -0.0403 -2.4202
  136OSM   C18F14853   3.475   4.899   8.260  0.2220 -0.3830  0.5103
  136OSM   H18F14854   3.367   4.877   8.278  0.7583 -1.5247  2.7643
  136OSM   H18G14855   3.488   5.007   8.279  0.0565 -0.0953 -0.9284
  136OSM   H18H14856   3.514   4.855   8.355 -1.8787  1.1836  2.2124
  137OSM      N14857   0.585   2.929   6.204 -0.4432  0.3847 -0.8579
  137OSM    C1514858   0.630   3.043   6.120 -0.0250  0.3457  0.3195
  137OSM   H15A14859   0.647   3.127   6.186 -0.3756 -1.5771  3.0005
  137OSM   H15B14860   0.546   3.062   6.054 -0.9010 -0.9736  1.0223
  137OSM   H15C14861   0.717   3.017   6.062  0.1445 -3.1520  1.8921
  137OSM    C1414862   0.467   2.963   6.283  0.1267 -0.1964  0.1967
  137OSM   H14A14863   0.390   3.000   6.217  1.3058  0.1414 -1.0266
  137OSM   H14B14864   0.481   3.029   6.368  0.2598 -0.6007  0.4941
  137OSM   H14C14865   0.434   2.882   6.347 -1.3988  0.3962  0.1831
  137OSM    C1314866   0.549   2.808   6.107 -0.1135 -0.5123  0.2159
  137OSM   H13A14867   0.474   2.844   6.038  2.5157  0.9095 -2.0746
  137OSM   H13B14868   0.523   2.715   6.155  0.8499 -0.2243  1.3417
  137OSM   H13C14869   0.637   2.779   6.052  3.0291  1.7907  3.6167
  137OSM    C1214870   0.702   2.885   6.289 -0.5150 -0.0347  0.2285
  137OSM   H12A14871   0.788   2.858   6.229  0.2759  2.4579  0.0980
  137OSM   H12B14872   0.672   2.795   6.341 -1.2468 -0.0223 -0.1672
  137OSM    C1114873   0.748   2.970   6.418  0.2800  0.9145 -0.1171
  137OSM   H11A14874   0.820   2.905   6.471  0.0570  1.7759  1.2775
  137OSM   H11B14875   0.659   2.985   6.483 -0.5714 -0.5417 -0.9015
  137OSM      P14876   0.941   3.116   6.322  0.2489 -0.5566 -0.3875
  137OSM    O1314877   0.976   3.023   6.213 -0.3512 -0.1255  0.2225
  137OSM    O1414878   0.963   3.258   6.284  0.2274 -0.1131 -0.6884
  137OSM    O1114879   1.009   3.075   6.459  0.1559 -0.4395  0.3244
  137OSM    O1214880   0.791   3.092   6.368 -0.0105 -0.3056  0.2229
  137OSM    C1S14881   1.126   3.134   6.516  0.1742  0.0711 -0.8094
  137OSM    H1S14882   1.114   3.244   6.520  0.3308  0.0819 -0.6438
  137OSM    H1T14883   1.215   3.109   6.454  0.1971 -3.7696  0.4971
  137OSM     NF14884   1.235   3.172   6.721 -0.5725  0.1843  0.6867
  137OSM    HNF14885   1.333   3.157   6.708 -0.0691  3.8095 -1.0272
  137OSM    C2S14886   1.146   3.080   6.657  0.0255  0.6137  0.0543
  137OSM    H2S14887   1.049   3.091   6.710  0.7921  0.2768  1.5951
  137OSM    C3S14888   1.195   2.936   6.653 -0.8082 -0.2624  0.1301
  137OSM    H3S14889   1.286   2.939   6.589 -2.1289 -0.2033 -1.8347
  137OSM     O314890   1.109   2.841   6.592  0.0613 -0.3695 -0.7179
  137OSM    HO314891   1.058   2.892   6.528 -0.1702  1.5732  0.9251
  137OSM    C4S14892   1.228   2.902   6.797  0.5455  0.2209 -0.5487
  137OSM    H4S14893   1.331   2.925   6.825  0.9207 -0.4529 -1.3272
  137OSM    C5S14894   1.134   2.863   6.894 -0.0101  0.5482  0.3459
  137OSM    H5S14895   1.028   2.864   6.865  0.0200  0.8731  0.2410
  137OSM    C6S14896   1.186   2.822   7.029  0.9271  0.0005  0.0133
  137OSM    H6S14897   1.278   2.871   7.068  0.9378 -0.1201  0.1371
  137OSM    H6T14898   1.216   2.715   7.023  1.2639  0.0566  0.6403
  137OSM    C7S14899   1.097   2.833   7.152  0.5056  0.1850 -0.4807
  137OSM    H7S14900   0.999   2.783   7.138  1.0291 -0.5486 -1.7558
  137OSM    H7T14901   1.074   2.939   7.177  1.9826  0.2352  0.8640
  137OSM    C8S14902   1.164   2.779   7.285 -0.0865  0.4518 -0.1434
  137OSM    H8S14903   1.263   2.827   7.300 -0.0203 -0.0239  1.0620
  137OSM    H8T14904   1.185   2.671   7.273 -0.0726  0.4243  0.1252
  137OSM    C9S14905   1.075   2.802   7.410 -0.3178  0.0280  0.3715
  137OSM    H9S14906   0.983   2.739   7.420 -1.2358  0.9993 -1.4106
  137OSM    H9T14907   1.039   2.907   7.413  1.3865  0.7540 -1.8711
  137OSM   C10S14908   1.152   2.800   7.542 -0.1943 -0.5118  0.1217
  137OSM   H10S14909   1.227   2.882   7.535 -1.8174  1.1062  0.7815
  137OSM   H10T14910   1.199   2.700   7.545  1.4465  0.2552  1.6031
  137OSM   C11S14911   1.062   2.825   7.667  0.1911 -0.3610  0.3986
  137OSM   H11S14912   0.969   2.766   7.664 -1.5356  2.1342  1.6183
  137OSM   H11T14913   1.026   2.930   7.666 -0.2342 -0.5064  0.1539
  137OSM   C12S14914   1.142   2.801   7.794 -0.1061  0.2589  0.9078
  137OSM   H12S14915   1.250   2.813   7.772  0.0284 -2.9283 -0.7277
  137OSM   H12T14916   1.136   2.700   7.840 -0.6067 -0.4274 -0.5742
  137OSM   C13S14917   1.096   2.908   7.897  0.1581 -0.0076  0.1236
  137OSM   H13S14918   1.002   2.868   7.942 -0.5544 -1.8010 -2.6887
  137OSM   H13T14919   1.064   3.003   7.847  0.4930  0.9955  1.7379
  137OSM   C14S14920   1.201   2.953   8.001  0.1819 -0.0139 -0.6439
  137OSM   H14S14921   1.143   3.035   8.049 -0.1870  1.0801 -2.8330
  137OSM   H14T14922   1.298   2.981   7.955 -0.4490 -0.8189 -2.5436
  137OSM   C15S14923   1.239   2.841   8.104 -1.4558 -1.4233 -0.0700
  137OSM   H15S14924   1.316   2.771   8.067  0.7390  0.9131 -0.2084
  137OSM   H15T14925   1.145   2.788   8.129 -1.6753 -0.4467  1.2861
  137OSM   C16S14926   1.298   2.893   8.235  0.1770  0.5358  0.7660
  137OSM   H16S14927   1.385   2.961   8.222 -0.9090  1.9336  0.4405
  137OSM   H16T14928   1.323   2.807   8.301 -0.9694 -0.9747 -0.6968
  137OSM   C17S14929   1.188   2.964   8.330  0.7680 -0.3208  0.4222
  137OSM   H17S14930   1.108   2.887   8.327 -0.5253  0.9748  0.0505
  137OSM   H17T14931   1.138   3.049   8.278  1.9570  0.7836  0.9997
  137OSM   C18S14932   1.230   3.012   8.471 -0.4810  0.7426  0.3617
  137OSM   H18S14933   1.305   3.094   8.467 -1.2912  1.4848 -2.7531
  137OSM   H18T14934   1.260   2.925   8.532  0.4129 -0.4339 -1.6641
  137OSM   H18U14935   1.142   3.058   8.522 -0.8178  1.1364 -0.5279
  137OSM    C1F14936   1.207   3.286   6.787  0.3181 -0.3126  0.8622
  137OSM     OF14937   1.096   3.325   6.791  0.0620 -0.0879  0.1278
  137OSM    C2F14938   1.322   3.344   6.856 -0.3425  0.2631 -0.2859
  137OSM    H2F14939   1.301   3.452   6.870 -0.6234  0.1479  0.2322
  137OSM    H2G14940   1.411   3.330   6.792 -0.5221 -3.2032  0.0029
  137OSM    C3F14941   1.359   3.252   6.976 -0.8087  0.8888  0.4268
  137OSM    H3F14942   1.446   3.299   7.027 -2.1553  0.5058  3.2917
  137OSM    H3G14943   1.394   3.151   6.947 -0.7867  0.3882  2.0852
  137OSM    C4F14944   1.254   3.245   7.078  0.4419 -0.6647 -0.4333
  137OSM    H4F14945   1.186   3.158   7.061 -0.9663  0.3327 -0.0829
  137OSM    H4G14946   1.189   3.334   7.071  1.8409  0.4634  0.4388
  137OSM    C5F14947   1.316   3.239   7.220 -0.5216  0.2274  0.0300
  137OSM    H5F14948   1.359   3.337   7.253 -0.1386  0.2590 -0.5574
  137OSM    H5G14949   1.399   3.168   7.205 -0.2973  0.3327  0.7252
  137OSM    C6F14950   1.230   3.184   7.340 -0.4330  0.5906  0.7723
  137OSM    H6F14951   1.180   3.096   7.295  0.2535  0.4899  0.1884
  137OSM    H6G14952   1.144   3.250   7.367  0.9828  2.0925  1.8307
  137OSM    C7F14953   1.310   3.140   7.455 -0.2559  0.6291  0.0747
  137OSM    H7F14954   1.384   3.070   7.410 -0.4843  1.2447 -1.3087
  137OSM    H7G14955   1.245   3.083   7.524  0.3495  0.2388  0.3313
  137OSM    C8F14956   1.375   3.253   7.534  0.2015 -0.3747 -0.1299
  137OSM    H8F14957   1.452   3.303   7.472  0.8906 -1.0108  0.2046
  137OSM    H8G14958   1.435   3.200   7.611  0.0593 -1.6210 -0.8484
  137OSM    C9F14959   1.275   3.351   7.592 -0.3543 -0.8768 -0.2623
  137OSM    H9F14960   1.228   3.417   7.518  0.5138  0.5502  0.4180
  137OSM   C10F14961   1.227   3.350   7.717  0.5479  0.2679 -0.5024
  137OSM   H10F14962   1.157   3.429   7.748  1.4215  1.0700 -0.5117
  137OSM   C11F14963   1.258   3.249   7.820 -0.5248 -0.1261 -0.2146
  137OSM   H11F14964   1.297   3.154   7.778  0.0797 -0.1238  0.3213
  137OSM   H11G14965   1.176   3.221   7.889  1.2550 -0.8421  1.7400
  137OSM   C12F14966   1.374   3.302   7.915  0.1129  0.5338 -0.8983
  137OSM   H12F14967   1.364   3.412   7.911 -0.4749  0.5168  0.0621
  137OSM   H12G14968   1.477   3.278   7.879  1.6723  0.2422  3.2876
  137OSM   C13F14969   1.366   3.263   8.063 -0.2009 -0.3902 -0.0230
  137OSM   H13F14970   1.408   3.163   8.085  0.0020 -0.5841 -1.2441
  137OSM   H13G14971   1.263   3.273   8.105 -0.3344  1.4888 -0.6713
  137OSM   C14F14972   1.447   3.360   8.162 -0.3677  0.6110  0.2266
  137OSM   H14F14973   1.406   3.463   8.149  1.3596  1.1858 -0.9662
  137OSM   H14G14974   1.547   3.354   8.115 -1.3497 -3.4334 -1.8882
  137OSM   C15F14975   1.452   3.309   8.307  0.5310  0.1665  0.1340
  137OSM   H15F14976   1.474   3.201   8.320 -0.9492  0.0133  1.7708
  137OSM   H15G14977   1.353   3.329   8.352  1.3411  0.4821  1.8451
  137OSM   C16F14978   1.562   3.386   8.382  1.2353 -0.7556  0.5148
  137OSM   H16F14979   1.570   3.358   8.489  0.0782 -2.6155  0.1608
  137OSM   H16G14980   1.528   3.491   8.392 -1.1131 -1.6019  2.4816
  137OSM   C17F14981   1.704   3.366   8.333  0.2263 -0.8073 -0.0698
  137OSM   H17F14982   1.718   3.443   8.254 -0.6341 -1.0619 -0.4860
  137OSM   H17G14983   1.728   3.267   8.290 -2.0431 -1.3994 -0.1198
  137OSM   C18F14984   1.818   3.382   8.437  0.3153  0.0859  0.0463
  137OSM   H18F14985   1.810   3.314   8.525  0.8225  1.2878  1.0389
  137OSM   H18G14986   1.814   3.487   8.472 -0.3474  0.2088 -0.3881
  137OSM   H18H14987   1.920   3.363   8.398  0.5923  0.4762  0.5748
  138OSM      N14988   2.317   5.082   5.953  0.7091 -0.0354 -0.7463
  138OSM    C1514989   2.185   5.010   5.947  0.3242 -0.5646  0.1912
  138OSM   H15A14990   2.190   4.939   5.866  2.3265 -1.4132  0.9875
  138OSM   H15B14991   2.105   5.074   5.913 -0.9075 -1.5828  1.0633
  138OSM   H15C14992   2.169   4.952   6.037  0.7602 -2.3119 -0.8125
  138OSM    C1414993   2.428   4.982   5.955  0.1106 -0.6191  0.3362
  138OSM   H14A14994   2.519   5.035   5.978 -0.2423 -0.1468  0.6597
  138OSM   H14B14995   2.438   4.927   5.862 -1.2864 -0.0204 -0.1913
  138OSM   H14C14996   2.404   4.896   6.017 -0.0172 -1.9963 -1.5343
  138OSM    C1314997   2.336   5.162   5.827  0.2334 -0.3760  0.2340
  138OSM   H13A14998   2.433   5.208   5.820  0.1520 -0.1349  0.6755
  138OSM   H13B14999   2.258   5.236   5.814  1.6463  1.0768 -0.2607
  138OSM   H13C15000   2.322   5.091   5.747 -2.0356  1.1388 -0.8375
  138OSM    C1215001   2.306   5.177   6.072 -0.2682  0.1714  1.2183
  138OSM   H12A15002   2.313   5.114   6.160  2.2338  0.2523  1.1535
  138OSM   H12B15003   2.209   5.224   6.078  0.1958  1.1964  1.0168
  138OSM    C1115004   2.413   5.284   6.091 -0.8349  0.6937 -0.9173
  138OSM   H11A15005   2.374   5.344   6.176 -1.9545  0.0353 -0.9429
  138OSM   H11B15006   2.414   5.350   6.002  2.2143  0.2632 -1.2862
  138OSM      P15007   2.673   5.300   6.111 -0.1455  0.0733  0.4107
  138OSM    O1315008   2.777   5.199   6.087 -0.1905  0.6882  0.4051
  138OSM    O1415009   2.666   5.406   6.007  0.1049 -0.4356 -0.0465
  138OSM    O1115010   2.690   5.363   6.251 -0.2810  0.4373 -0.2201
  138OSM    O1215011   2.541   5.219   6.114  0.3097  0.2712  0.1119
  138OSM    C1S15012   2.584   5.368   6.343 -0.5318 -0.0156  0.5195
  138OSM    H1S15013   2.515   5.281   6.334  0.4142 -0.9185  1.6782
  138OSM    H1T15014   2.530   5.464   6.325  0.4443  0.1067 -2.3327
  138OSM     NF15015   2.524   5.331   6.586 -0.6017  0.3830  0.7154
  138OSM    HNF15016   2.491   5.387   6.661  0.0224 -1.4527  2.4389
  138OSM    C2S15017   2.632   5.381   6.492  0.0837 -1.0294 -0.1750
  138OSM    H2S15018   2.719   5.312   6.506  0.5317 -1.0614 -2.7318
  138OSM    C3S15019   2.695   5.521   6.527 -0.2514  0.0869 -0.7234
  138OSM    H3S15020   2.615   5.598   6.518 -1.0528 -0.6691 -0.1931
  138OSM     O315021   2.790   5.570   6.429  0.4142 -0.0974 -0.3832
  138OSM    HO315022   2.768   5.509   6.357 -1.2629 -0.9700  0.7964
  138OSM    C4S15023   2.744   5.514   6.674  0.0163 -0.8340 -0.0971
  138OSM    H4S15024   2.668   5.547   6.747  0.6453  2.6479 -0.8501
  138OSM    C5S15025   2.861   5.459   6.722 -0.7330  0.5537 -0.6011
  138OSM    H5S15026   2.927   5.417   6.645 -0.4947  1.2877 -0.8025
  138OSM    C6S15027   2.906   5.431   6.859 -0.6090 -0.3564 -0.0467
  138OSM    H6S15028   2.988   5.504   6.879 -0.6184 -0.7573  1.6799
  138OSM    H6T15029   2.949   5.328   6.865 -0.3526 -0.4384 -2.4799
  138OSM    C7S15030   2.808   5.450   6.977 -0.1417 -0.2095  0.1227
  138OSM    H7S15031   2.728   5.374   6.960  0.0181 -0.3604  0.0323
  138OSM    H7T15032   2.762   5.549   6.956  0.0384 -0.4503 -1.5532
  138OSM    C8S15033   2.888   5.409   7.107 -0.5824 -0.7103 -0.3853
  138OSM    H8S15034   2.973   5.481   7.118 -2.8157  1.8613  1.3395
  138OSM    H8T15035   2.928   5.306   7.096 -0.4712 -0.5773 -1.2790
  138OSM    C9S15036   2.798   5.413   7.232  0.2973  0.3518 -0.4180
  138OSM    H9S15037   2.736   5.321   7.237 -0.8616  1.0190 -1.8234
  138OSM    H9T15038   2.729   5.498   7.214 -0.2434  0.1139  0.4934
  138OSM   C10S15039   2.881   5.421   7.362  0.0717 -0.5712  0.1190
  138OSM   H10S15040   2.939   5.516   7.362 -1.0075  0.1265  1.1901
  138OSM   H10T15041   2.962   5.345   7.365  2.5281  1.9072  0.4022
  138OSM   C11S15042   2.797   5.400   7.492 -0.1803  0.7614  0.5547
  138OSM   H11S15043   2.725   5.319   7.471  1.2894 -0.1302 -1.4187
  138OSM   H11T15044   2.747   5.496   7.518  0.0993  0.6370  1.5701
  138OSM   C12S15045   2.889   5.376   7.615  0.5215 -0.1796 -0.6199
  138OSM   H12S15046   2.960   5.461   7.625  0.5912 -0.4234  1.2932
  138OSM   H12T15047   2.953   5.286   7.612  0.5750 -0.3076  2.1901
  138OSM   C13S15048   2.812   5.376   7.751 -0.0429 -0.0457  0.3680
  138OSM   H13S15049   2.740   5.292   7.757  0.4197 -0.5644 -0.8999
  138OSM   H13T15050   2.764   5.475   7.760 -2.7925 -1.4497  3.0646
  138OSM   C14S15051   2.899   5.370   7.875 -0.1800  0.3586  0.3881
  138OSM   H14S15052   2.977   5.449   7.870  0.3207 -0.1106  0.7074
  138OSM   H14T15053   2.952   5.273   7.874  0.7955  0.8750 -0.8017
  138OSM   C15S15054   2.834   5.387   8.011  1.1340  0.0227 -0.6107
  138OSM   H15S15055   2.916   5.410   8.083  0.9262  1.0580 -0.6974
  138OSM   H15T15056   2.785   5.294   8.048  3.2532 -0.2945  1.7314
  138OSM   C16S15057   2.731   5.493   8.009  0.4775 -1.0910  0.1269
  138OSM   H16S15058   2.644   5.462   7.947  0.9488 -0.5694 -0.8269
  138OSM   H16T15059   2.777   5.580   7.957 -2.1500  0.2901 -0.0445
  138OSM   C17S15060   2.670   5.534   8.145 -0.0219 -0.2131  0.3493
  138OSM   H17S15061   2.747   5.566   8.218 -0.7953  0.8582  0.7266
  138OSM   H17T15062   2.615   5.452   8.196 -2.8076  0.3396 -1.5265
  138OSM   C18S15063   2.556   5.643   8.135  0.3125  0.2061 -0.0622
  138OSM   H18S15064   2.491   5.631   8.045 -0.4135  0.7449  0.3767
  138OSM   H18T15065   2.606   5.742   8.134  2.0162 -0.6240  0.5941
  138OSM   H18U15066   2.492   5.641   8.226  1.2114 -2.0033  0.5758
  138OSM    C1F15067   2.489   5.202   6.574  0.4843  0.5257 -0.2310
  138OSM     OF15068   2.552   5.117   6.514 -0.0525 -0.0413 -0.2513
  138OSM    C2F15069   2.355   5.168   6.632  0.4242  0.1187 -0.0962
  138OSM    H2F15070   2.304   5.112   6.551 -0.3528 -0.0992  0.5367
  138OSM    H2G15071   2.295   5.257   6.662 -0.9099 -0.5292 -0.7703
  138OSM    C3F15072   2.373   5.082   6.755  0.0960  0.0323  0.5474
  138OSM    H3F15073   2.422   4.985   6.730 -1.9721 -0.8566 -0.2205
  138OSM    H3G15074   2.269   5.053   6.779 -0.8969  1.9180 -1.1949
  138OSM    C4F15075   2.447   5.136   6.884 -0.5881  0.1648  0.0992
  138OSM    H4F15076   2.487   5.238   6.865  1.5072 -0.6514 -0.1375
  138OSM    H4G15077   2.543   5.083   6.898  0.8456  2.8635  1.1135
  138OSM    C5F15078   2.361   5.139   7.009  0.0154  0.6065 -0.3506
  138OSM    H5F15079   2.328   5.035   7.030  0.1180  0.7612  0.6298
  138OSM    H5G15080   2.274   5.204   6.987 -0.3864  0.1099 -0.2488
  138OSM    C6F15081   2.440   5.190   7.133  0.4805  0.0052 -0.3682
  138OSM    H6F15082   2.499   5.280   7.109  0.2511  0.2919  0.1198
  138OSM    H6G15083   2.515   5.113   7.163  0.5438 -0.4220 -1.5688
  138OSM    C7F15084   2.340   5.221   7.244  0.2624 -0.0961 -0.2985
  138OSM    H7F15085   2.268   5.137   7.242  2.1360 -1.7656 -2.4432
  138OSM    H7G15086   2.286   5.315   7.219 -0.2081 -0.1336  0.5256
  138OSM    C8F15087   2.413   5.223   7.378 -1.0759 -0.2506 -0.1483
  138OSM    H8F15088   2.490   5.302   7.370  1.1548 -2.0803  1.8766
  138OSM    H8G15089   2.463   5.124   7.384 -1.9344 -0.6101  2.4249
  138OSM    C9F15090   2.317   5.258   7.489 -0.6384  0.7275 -0.0235
  138OSM    H9F15091   2.236   5.330   7.469  0.1221  1.5816 -0.0788
  138OSM   C10F15092   2.322   5.214   7.613 -0.4825 -0.1858  0.2019
  138OSM   H10F15093   2.239   5.244   7.679 -0.1953 -1.7356  1.3254
  138OSM   C11F15094   2.429   5.130   7.678 -0.0249 -0.6920 -0.1609
  138OSM   H11F15095   2.513   5.187   7.722 -1.1088  0.6612  0.2199
  138OSM   H11G15096   2.469   5.055   7.606 -1.3622 -0.2307 -1.4492
  138OSM   C12F15097   2.369   5.047   7.789  0.5921  0.4237 -0.3427
  138OSM   H12F15098   2.436   4.968   7.830 -0.8121 -1.6407 -1.8087
  138OSM   H12G15099   2.277   4.999   7.749  0.9853  0.0464 -0.8184
  138OSM   C13F15100   2.328   5.125   7.909 -0.7465 -1.2316  0.0613
  138OSM   H13F15101   2.261   5.070   7.979  1.4157 -2.6586  1.1292
  138OSM   H13G15102   2.263   5.206   7.869 -1.2387 -1.5092  0.3005
  138OSM   C14F15103   2.456   5.168   7.993  0.6025  0.6192 -0.1207
  138OSM   H14F15104   2.458   5.279   8.006  0.5204  0.8919 -2.1093
  138OSM   H14G15105   2.555   5.147   7.947  1.3764  1.4631  1.0992
  138OSM   C15F15106   2.453   5.102   8.135  0.2991  0.9164  0.5417
  138OSM   H15F15107   2.445   4.993   8.119 -0.6552  1.0263  0.2387
  138OSM   H15G15108   2.369   5.126   8.204 -0.1249 -1.3174  0.8636
  138OSM   C16F15109   2.591   5.134   8.196  0.2920 -0.4347 -0.1829
  138OSM   H16F15110   2.596   5.245   8.191  0.0369 -0.3735  0.7951
  138OSM   H16G15111   2.672   5.085   8.138  1.9083  1.3004  0.5011
  138OSM   C17F15112   2.613   5.093   8.345  0.5885  0.1825 -0.2547
  138OSM   H17F15113   2.721   5.077   8.368  0.0821  1.4285  3.8156
  138OSM   H17G15114   2.563   4.996   8.363 -0.0637  0.2935 -1.3868
  138OSM   C18F15115   2.561   5.199   8.442 -0.7786  0.3696  0.4142
  138OSM   H18F15116   2.579   5.174   8.548  2.9743  0.2775 -0.1204
  138OSM   H18G15117   2.451   5.210   8.429 -0.8395 -1.2127 -0.7078
  138OSM   H18H15118   2.609   5.296   8.415 -1.7316  0.1069 -2.6008
  139OSM      N15119   6.450   4.887   6.132  0.3310  0.1438 -0.2576
  139OSM    C1515120   6.534   4.821   6.032 -0.4371 -0.2199  0.4596
  139OSM   H15A15121   6.503   4.847   5.932  0.0576  0.2721  0.4288
  139OSM   H15B15122   6.538   4.715   6.052  0.4926 -0.0834  1.0956
  139OSM   H15C15123   6.636   4.852   6.049 -0.2020 -1.5157  1.6344
  139OSM    C1415124   6.321   4.809   6.120 -0.1751  0.2152  0.1357
  139OSM   H14A15125   6.339   4.703   6.113 -3.2346 -0.3404 -0.7726
  139OSM   H14B15126   6.268   4.840   6.032  1.3701  0.0031 -0.9174
  139OSM   H14C15127   6.246   4.807   6.197 -0.6187 -1.1531 -0.3021
  139OSM    C1315128   6.511   4.863   6.262 -0.8854 -0.5789 -0.2337
  139OSM   H13A15129   6.599   4.924   6.274 -0.6365 -1.3267  2.3596
  139OSM   H13B15130   6.543   4.761   6.275  0.0494 -0.1934  0.5373
  139OSM   H13C15131   6.440   4.884   6.341  0.4737  0.3039  0.8010
  139OSM    C1215132   6.432   5.033   6.099 -0.0622 -0.3797  0.0474
  139OSM   H12A15133   6.370   5.074   6.178 -0.5353  1.0058 -0.9949
  139OSM   H12B15134   6.370   5.048   6.012 -0.9138  0.4190  0.7610
  139OSM    C1115135   6.556   5.120   6.094  0.5250 -0.0997  0.0645
  139OSM   H11A15136   6.531   5.224   6.067  1.7312 -0.5535 -3.2081
  139OSM   H11B15137   6.615   5.091   6.004 -1.1219  1.0802 -1.4592
  139OSM      P15138   6.773   5.181   6.207 -0.3076  0.3763  0.1572
  139OSM    O1315139   6.853   5.156   6.330 -0.6565 -0.3152  0.5376
  139OSM    O1415140   6.834   5.160   6.074 -0.0181  0.4595 -0.0536
  139OSM    O1115141   6.736   5.332   6.204  0.2143 -0.2679  0.1374
  139OSM    O1215142   6.628   5.113   6.217 -0.5661  0.1734  0.4226
  139OSM    C1S15143   6.634   5.400   6.277 -0.2294  0.5731 -0.6707
  139OSM    H1S15144   6.551   5.326   6.277 -0.0539  0.3701  0.0632
  139OSM    H1T15145   6.592   5.492   6.230 -0.1078  1.4783  0.9069
  139OSM     NF15146   6.561   5.504   6.496 -0.0494 -0.3925  0.2501
  139OSM    HNF15147   6.578   5.598   6.525 -0.8114 -0.7130  1.7853
  139OSM    C2S15148   6.672   5.437   6.421  0.7902  0.6084  0.1956
  139OSM    H2S15149   6.687   5.340   6.473 -1.9470 -1.8262 -3.0334
  139OSM    C3S15150   6.804   5.530   6.432  0.0320 -0.2163 -0.6034
  139OSM    H3S15151   6.771   5.635   6.416  1.0107  0.1461 -0.2939
  139OSM     O315152   6.891   5.521   6.322  0.1809 -0.0156 -0.3489
  139OSM    HO315153   6.871   5.438   6.279  0.2962 -1.2385  1.8276
  139OSM    C4S15154   6.880   5.521   6.559  0.7424 -0.6048 -0.0256
  139OSM    H4S15155   6.849   5.598   6.631 -1.0235 -1.6044  0.3340
  139OSM    C5S15156   6.983   5.446   6.590  0.1082  0.1504 -0.3332
  139OSM    H5S15157   7.028   5.372   6.522  0.6239  0.4843 -0.3680
  139OSM    C6S15158   7.057   5.460   6.718 -0.3982  0.0862  0.4222
  139OSM    H6S15159   7.009   5.538   6.780  0.3130  1.2029 -0.3934
  139OSM    H6T15160   7.149   5.513   6.684  1.2915 -2.9111 -0.0711
  139OSM    C7S15161   7.087   5.333   6.800  0.6076  0.8537  0.0991
  139OSM    H7S15162   7.136   5.252   6.742  1.7543  1.4684  0.1903
  139OSM    H7T15163   6.997   5.283   6.841  2.9220 -2.8874  1.1701
  139OSM    C8S15164   7.172   5.366   6.927 -0.4017  0.8916 -0.0777
  139OSM    H8S15165   7.277   5.391   6.901  0.6708 -0.8560  2.2194
  139OSM    H8T15166   7.176   5.268   6.980 -0.1872  1.7692  1.6045
  139OSM    C9S15167   7.103   5.457   7.031 -0.2324 -0.4592  0.0994
  139OSM    H9S15168   6.999   5.420   7.042 -0.1078 -0.9394 -0.2823
  139OSM    H9T15169   7.094   5.562   6.996  0.2025  0.0524  1.4703
  139OSM   C10S15170   7.163   5.456   7.176 -0.0545  0.7823  0.6481
  139OSM   H10S15171   7.272   5.478   7.170 -0.4026  2.7225  0.7813
  139OSM   H10T15172   7.160   5.350   7.211 -0.0946  0.9346  1.1160
  139OSM   C11S15173   7.089   5.558   7.262 -0.5367 -0.2340  0.1329
  139OSM   H11S15174   6.982   5.530   7.266 -0.9058  1.1361  0.7248
  139OSM   H11T15175   7.093   5.654   7.206 -1.4176 -1.1080 -1.5118
  139OSM   C12S15176   7.158   5.567   7.403 -0.1445  0.0560 -0.0662
  139OSM   H12S15177   7.267   5.588   7.394  0.2643 -0.7805  2.1442
  139OSM   H12T15178   7.149   5.466   7.447 -2.1778 -0.2024 -0.9416
  139OSM   C13S15179   7.078   5.668   7.486  1.0269  0.8721 -0.0676
  139OSM   H13S15180   6.971   5.647   7.471  1.3965  1.1363 -4.1479
  139OSM   H13T15181   7.092   5.769   7.442  0.2561  0.2700 -1.7643
  139OSM   C14S15182   7.117   5.659   7.630  0.4839 -0.2225 -0.2830
  139OSM   H14S15183   7.227   5.672   7.629  0.8245 -1.6383  3.1796
  139OSM   H14T15184   7.094   5.553   7.658 -2.6423  0.5013  0.3141
  139OSM   C15S15185   7.044   5.754   7.723 -0.3365 -0.2922 -0.2368
  139OSM   H15S15186   6.937   5.726   7.719 -0.3904 -0.0221 -0.9156
  139OSM   H15T15187   7.058   5.857   7.684  1.7609 -1.2432 -2.2876
  139OSM   C16S15188   7.078   5.738   7.873  0.3515  0.5222  0.7150
  139OSM   H16S15189   7.015   5.813   7.925 -1.5798  0.5748 -1.5565
  139OSM   H16T15190   7.184   5.767   7.893  0.2630  1.5640 -0.2406
  139OSM   C17S15191   7.048   5.595   7.930  0.1966  0.3434 -0.4413
  139OSM   H17S15192   7.146   5.547   7.913  0.8791  2.0825 -1.7225
  139OSM   H17T15193   6.965   5.550   7.871  1.1580  0.2686 -1.7528
  139OSM   C18S15194   7.010   5.605   8.083  0.3079  0.2039  0.2717
  139OSM   H18S15195   6.920   5.668   8.088 -0.6756 -0.8755 -2.1440
  139OSM   H18T15196   7.089   5.656   8.142  0.6001  0.3435 -0.2359
  139OSM   H18U15197   6.996   5.503   8.126 -1.3483 -0.7459 -2.3179
  139OSM    C1F15198   6.439   5.462   6.519  0.0773  0.0977 -0.1314
  139OSM     OF15199   6.411   5.352   6.483  0.3740 -0.3087 -0.1469
  139OSM    C2F15200   6.343   5.549   6.595 -0.2776 -0.2332  0.1409
  139OSM    H2F15201   6.349   5.645   6.540  2.1057 -0.6463 -0.4068
  139OSM    H2G15202   6.375   5.557   6.701  0.8866 -0.3073 -0.1939
  139OSM    C3F15203   6.197   5.497   6.613  0.3105  0.3370 -0.4233
  139OSM    H3F15204   6.211   5.400   6.665 -0.5008 -0.4984 -1.7262
  139OSM    H3G15205   6.153   5.474   6.514 -4.0137 -0.3674  1.4286
  139OSM    C4F15206   6.106   5.591   6.694  1.0518 -0.0839 -0.6748
  139OSM    H4F15207   6.077   5.687   6.647 -0.7343  0.5908  1.6427
  139OSM    H4G15208   6.155   5.618   6.790 -1.9397  1.2776  0.5721
  139OSM    C5F15209   5.977   5.510   6.737 -0.4676 -0.6922  0.0850
  139OSM    H5F15210   6.017   5.421   6.789  1.2492  1.9974  3.8420
  139OSM    H5G15211   5.927   5.486   6.641 -0.9880 -1.9354  0.6548
  139OSM    C6F15212   5.878   5.587   6.830 -0.4233  1.0700  0.6798
  139OSM    H6F15213   5.776   5.542   6.826  0.4663 -1.2953  2.4650
  139OSM    H6G15214   5.883   5.686   6.778 -1.4969 -0.4533 -2.6086
  139OSM    C7F15215   5.931   5.588   6.971 -0.2847 -0.7456  0.1446
  139OSM    H7F15216   6.025   5.646   6.958  0.1684 -1.6570 -0.8133
  139OSM    H7G15217   5.954   5.483   6.998  0.4531 -0.7268 -0.3980
  139OSM    C8F15218   5.847   5.649   7.080 -0.2779  0.8823 -0.0030
  139OSM    H8F15219   5.812   5.742   7.030 -0.1143  1.2110  0.4875
  139OSM    H8G15220   5.923   5.667   7.158  0.1915  1.0885 -0.5070
  139OSM    C9F15221   5.729   5.564   7.124 -0.2035 -0.0431 -0.5451
  139OSM    H9F15222   5.679   5.507   7.045  0.0909 -1.0355 -0.0270
  139OSM   C10F15223   5.697   5.532   7.250 -0.7147 -0.4872 -0.3381
  139OSM   H10F15224   5.611   5.466   7.271 -1.1708 -0.0491 -0.7923
  139OSM   C11F15225   5.762   5.596   7.367  0.4975 -0.4767  0.5133
  139OSM   H11F15226   5.782   5.702   7.342 -1.9914 -0.4706 -1.9006
  139OSM   H11G15227   5.863   5.555   7.391 -0.0502 -2.1479  0.1234
  139OSM   C12F15228   5.692   5.583   7.502  0.3585 -1.3448  0.0952
  139OSM   H12F15229   5.587   5.620   7.492  1.6499  2.7650  0.0325
  139OSM   H12G15230   5.747   5.647   7.573 -1.3874  1.9411 -1.3007
  139OSM   C13F15231   5.703   5.433   7.555  0.6145  0.1630 -0.5953
  139OSM   H13F15232   5.808   5.401   7.574  0.4213 -1.1028 -1.5327
  139OSM   H13G15233   5.657   5.363   7.481 -2.1060 -0.1429  1.2589
  139OSM   C14F15234   5.624   5.411   7.686 -0.3516  0.3137 -0.8312
  139OSM   H14F15235   5.538   5.480   7.674 -0.6686  0.4159  1.5655
  139OSM   H14G15236   5.682   5.436   7.777  1.2792  0.0655 -1.7590
  139OSM   C15F15237   5.570   5.268   7.707 -0.1658  0.0623 -0.4373
  139OSM   H15F15238   5.653   5.194   7.703 -0.4559 -0.2358 -1.1194
  139OSM   H15G15239   5.501   5.235   7.627  0.9312 -0.9302 -1.0103
  139OSM   C16F15240   5.499   5.266   7.847  0.3038 -0.1126 -0.7070
  139OSM   H16F15241   5.445   5.361   7.865 -2.1943 -1.1783 -2.0529
  139OSM   H16G15242   5.578   5.243   7.922 -0.7428  1.5965  1.0183
  139OSM   C17F15243   5.385   5.166   7.855 -0.0609  0.2700  0.3138
  139OSM   H17F15244   5.434   5.067   7.840  1.9686  1.3982 -0.8946
  139OSM   H17G15245   5.319   5.183   7.767  0.1241 -2.5600 -0.4856
  139OSM   C18F15246   5.306   5.174   7.981  0.2806  0.0879  0.2249
  139OSM   H18F15247   5.248   5.265   8.006 -1.3451 -0.4344 -1.4119
  139OSM   H18G15248   5.376   5.150   8.064  1.0118 -0.3358 -0.4950
  139OSM   H18H15249   5.230   5.093   7.975  0.0892  0.3117 -0.4940
  140OSM      N15250   1.984   0.394   6.161 -0.5290  0.1744  0.0729
  140OSM    C1515251   2.014   0.335   6.025 -0.1031  0.3491 -0.3868
  140OSM   H15A15252   2.059   0.408   5.959  0.9271  0.1746  0.1144
  140OSM   H15B15253   1.929   0.286   5.979 -0.1428 -0.7213  0.7805
  140OSM   H15C15254   2.087   0.257   6.039 -0.0275  0.4497 -0.2268
  140OSM    C1415255   2.126   0.428   6.217  0.0049 -0.3696  0.2463
  140OSM   H14A15256   2.123   0.468   6.318  1.8611 -1.4531  0.7871
  140OSM   H14B15257   2.177   0.508   6.166  0.8956 -1.9770 -1.4875
  140OSM   H14C15258   2.196   0.346   6.222  1.3518  0.6047 -1.4406
  140OSM    C1315259   1.896   0.515   6.149 -0.3600  0.0450  0.2470
  140OSM   H13A15260   1.797   0.484   6.120  0.5478 -1.2663 -1.7112
  140OSM   H13B15261   1.932   0.581   6.071  2.0325  2.4828  3.1649
  140OSM   H13C15262   1.886   0.564   6.245 -0.7781  0.9020 -0.2265
  140OSM    C1215263   1.929   0.284   6.250  0.2488 -0.2911 -0.6032
  140OSM   H12A15264   2.004   0.209   6.267 -0.6328 -1.4581 -1.6265
  140OSM   H12B15265   1.852   0.242   6.187 -0.3002 -0.9471  0.4763
  140OSM    C1115266   1.871   0.323   6.392  0.0929 -0.1365  0.0389
  140OSM   H11A15267   1.958   0.372   6.440  1.0337  0.2270 -1.9336
  140OSM   H11B15268   1.847   0.232   6.451 -1.0283  0.9310  1.2984
  140OSM      P15269   1.621   0.338   6.315 -0.3713  0.2673  0.1542
  140OSM    O1315270   1.600   0.384   6.173  0.0003 -0.0670 -0.5255
  140OSM    O1415271   1.619   0.191   6.338 -0.4515  0.1640  0.1332
  140OSM    O1115272   1.507   0.401   6.401  0.7212 -0.3552  0.1307
  140OSM    O1215273   1.750   0.407   6.384 -0.0361  0.0370  0.1091
  140OSM    C1S15274   1.491   0.389   6.542  0.2557  0.5253  0.4270
  140OSM    H1S15275   1.555   0.309   6.585 -1.5660 -2.7662 -2.4866
  140OSM    H1T15276   1.383   0.360   6.549 -0.0124  1.4204  0.1037
  140OSM     NF15277   1.503   0.522   6.763  0.6279  0.0831  1.4372
  140OSM    HNF15278   1.413   0.541   6.802 -1.0339 -0.9141 -1.5436
  140OSM    C2S15279   1.507   0.530   6.622  0.7317  0.2120  0.4176
  140OSM    H2S15280   1.601   0.579   6.590 -0.0041  0.3710 -1.6416
  140OSM    C3S15281   1.387   0.616   6.572 -0.2852 -0.2663 -0.5948
  140OSM    H3S15282   1.304   0.568   6.628 -0.3889  0.0530 -0.4726
  140OSM     O315283   1.350   0.600   6.439  0.5234  0.0296  0.1997
  140OSM    HO315284   1.404   0.527   6.408  0.2189 -2.2090  4.2679
  140OSM    C4S15285   1.397   0.757   6.621  0.1695  0.2632 -0.1060
  140OSM    H4S15286   1.345   0.779   6.715  1.7976  0.7270  0.7249
  140OSM    C5S15287   1.447   0.862   6.561  0.1963  0.0743  0.2298
  140OSM    H5S15288   1.491   0.851   6.460 -0.3443  1.4993 -0.1846
  140OSM    C6S15289   1.445   1.006   6.602 -0.0115  0.5517 -0.7792
  140OSM    H6S15290   1.350   1.038   6.553  0.3697 -1.5534 -3.1121
  140OSM    H6T15291   1.529   1.061   6.555 -0.6865 -0.0233 -2.7730
  140OSM    C7S15292   1.432   1.044   6.751 -0.0857  0.4546  0.0378
  140OSM    H7S15293   1.510   0.985   6.804  0.1567  1.6223  1.0037
  140OSM    H7T15294   1.337   1.006   6.796  1.3307 -2.2227  1.0083
  140OSM    C8S15295   1.446   1.194   6.775 -1.3067 -0.6240 -0.3172
  140OSM    H8S15296   1.372   1.251   6.714  2.4744  1.8505 -3.0564
  140OSM    H8T15297   1.537   1.226   6.720 -1.0567 -0.4821  0.1804
  140OSM    C9S15298   1.444   1.249   6.922  0.3427  0.1989  0.5265
  140OSM    H9S15299   1.353   1.210   6.972 -0.4687  1.0098 -0.2645
  140OSM    H9T15300   1.430   1.359   6.917 -0.9239  0.1265  2.0539
  140OSM   C10S15301   1.574   1.220   6.992  0.3492 -0.0547 -0.2862
  140OSM   H10S15302   1.656   1.280   6.947  0.9666 -1.4811 -1.1447
  140OSM   H10T15303   1.612   1.120   6.961  1.3761  0.2922 -0.1980
  140OSM   C11S15304   1.561   1.234   7.145  0.2789  0.1274  0.0531
  140OSM   H11S15305   1.459   1.199   7.174 -1.8881  3.3145 -2.8852
  140OSM   H11T15306   1.565   1.342   7.171 -0.3460  0.6828 -1.9537
  140OSM   C12S15307   1.673   1.150   7.218  0.0181  0.9583 -0.6090
  140OSM   H12S15308   1.772   1.171   7.172  0.5661  1.1644  0.6061
  140OSM   H12T15309   1.651   1.042   7.203 -1.2550  1.1568 -0.2963
  140OSM   C13S15310   1.681   1.170   7.369 -0.4250  0.0481  0.2166
  140OSM   H13S15311   1.576   1.168   7.405  0.0300 -0.2075  1.6283
  140OSM   H13T15312   1.730   1.266   7.394  1.8489 -0.8842 -0.3959
  140OSM   C14S15313   1.761   1.069   7.451  0.6113  0.1151  0.0443
  140OSM   H14S15314   1.870   1.066   7.430  0.5491  2.0182 -0.6830
  140OSM   H14T15315   1.727   0.967   7.423  0.1270 -0.0485  1.1787
  140OSM   C15S15316   1.747   1.096   7.599 -0.2709  0.8731 -0.6911
  140OSM   H15S15317   1.650   1.057   7.634  0.2555 -0.5506 -0.7519
  140OSM   H15T15318   1.763   1.202   7.627  1.9684  0.9767 -2.0723
  140OSM   C16S15319   1.844   1.009   7.676  0.7094 -0.0642 -0.4928
  140OSM   H16S15320   1.951   1.031   7.657  0.4765 -0.0720 -1.9367
  140OSM   H16T15321   1.820   0.905   7.643  0.5066  0.3936 -1.8332
  140OSM   C17S15322   1.809   1.021   7.823 -0.0757  0.9816  0.1048
  140OSM   H17S15323   1.699   1.019   7.841  0.1914  1.2687  1.9628
  140OSM   H17T15324   1.835   1.118   7.870  0.4971  1.2151 -0.6671
  140OSM   C18S15325   1.864   0.916   7.925  0.0945  0.7578 -0.2763
  140OSM   H18S15326   1.815   0.933   8.023 -1.7343 -2.4470 -0.5004
  140OSM   H18T15327   1.973   0.936   7.924 -0.2746  3.2308  1.4583
  140OSM   H18U15328   1.836   0.816   7.885 -0.9117  1.5652 -1.6457
  140OSM    C1F15329   1.607   0.455   6.822 -0.1639 -0.8313 -0.4676
  140OSM     OF15330   1.710   0.439   6.769 -0.5734 -0.0696  0.4598
  140OSM    C2F15331   1.580   0.417   6.967  0.0645 -0.1299  0.9780
  140OSM    H2F15332   1.469   0.422   6.979 -0.0455  0.6138 -0.2482
  140OSM    H2G15333   1.642   0.484   7.030  0.5505  2.6123 -2.1960
  140OSM    C3F15334   1.626   0.273   6.998  0.5697  0.2128 -0.0017
  140OSM    H3F15335   1.734   0.264   6.973  0.2340 -2.7931 -0.6728
  140OSM    H3G15336   1.564   0.193   6.952  1.4113 -0.0955 -0.6322
  140OSM    C4F15337   1.616   0.235   7.147  0.5709 -0.0776  0.6730
  140OSM    H4F15338   1.620   0.124   7.157  0.1299 -0.2110 -0.4624
  140OSM    H4G15339   1.516   0.257   7.190  1.2070 -1.3666  2.9866
  140OSM    C5F15340   1.714   0.306   7.244  0.2296 -0.3924 -0.7599
  140OSM    H5F15341   1.702   0.416   7.232  0.7658 -0.2288  0.1649
  140OSM    H5G15342   1.817   0.271   7.222 -0.0203 -2.0599  0.5722
  140OSM    C6F15343   1.683   0.272   7.390  0.6619  0.2355 -0.0542
  140OSM    H6F15344   1.597   0.336   7.418 -0.2125 -0.7410 -0.4404
  140OSM    H6G15345   1.762   0.304   7.461  0.6360 -0.8754  0.4949
  140OSM    C7F15346   1.657   0.132   7.435  0.6989 -0.8746  0.1297
  140OSM    H7F15347   1.740   0.072   7.391  0.9486  0.0128 -0.6280
  140OSM    H7G15348   1.578   0.079   7.377  0.7383  0.0635 -0.8122
  140OSM    C8F15349   1.654   0.122   7.585 -0.7572  0.5595  1.0225
  140OSM    H8F15350   1.754   0.161   7.613  1.0102 -1.0424 -2.4741
  140OSM    H8G15351   1.658   0.014   7.611 -2.1936  0.1471 -0.3315
  140OSM    C9F15352   1.531   0.190   7.639 -0.1501 -0.0526 -0.7558
  140OSM    H9F15353   1.448   0.208   7.570  1.1362 -0.6736 -2.5524
  140OSM   C10F15354   1.513   0.236   7.764 -0.0278  0.4618 -0.1010
  140OSM   H10F15355   1.429   0.302   7.787 -0.5577 -0.5643  1.0415
  140OSM   C11F15356   1.608   0.215   7.882 -0.1777 -0.8759  0.0257
  140OSM   H11F15357   1.659   0.118   7.867  0.1026 -0.5215 -1.4766
  140OSM   H11G15358   1.567   0.213   7.985  2.1895 -0.8228  1.0277
  140OSM   C12F15359   1.730   0.317   7.890 -0.6204 -0.3733  0.2444
  140OSM   H12F15360   1.690   0.418   7.914  0.8435  0.1851  0.4715
  140OSM   H12G15361   1.783   0.322   7.793  0.2400  1.9831  0.7614
  140OSM   C13F15362   1.846   0.290   7.996  0.2153 -0.0377 -0.1902
  140OSM   H13F15363   1.920   0.373   7.992 -1.1607  1.4440  2.4393
  140OSM   H13G15364   1.892   0.195   7.960 -0.6434 -1.2464  1.7572
  140OSM   C14F15365   1.795   0.258   8.136 -0.0722  0.7018  0.2977
  140OSM   H14F15366   1.718   0.180   8.151  0.1755  0.6400  1.4067
  140OSM   H14G15367   1.753   0.349   8.184  0.8435  0.7184  1.1189
  140OSM   C15F15368   1.905   0.234   8.232 -0.2216 -0.3923  0.4173
  140OSM   H15F15369   1.973   0.320   8.220  1.1760 -1.2138  2.0567
  140OSM   H15G15370   1.974   0.152   8.205  0.3417  0.2091  0.0190
  140OSM   C16F15371   1.861   0.209   8.378 -0.2611 -0.2035  0.3646
  140OSM   H16F15372   1.820   0.106   8.384  2.2764 -1.2154  1.8652
  140OSM   H16G15373   1.781   0.279   8.410  1.6299  2.2059  0.0683
  140OSM   C17F15374   1.975   0.246   8.474 -0.2577  0.0951 -0.3528
  140OSM   H17F15375   1.996   0.355   8.478 -1.2673  0.2726  0.4143
  140OSM   H17G15376   2.068   0.194   8.442 -0.5950 -1.4820  1.0711
  140OSM   C18F15377   1.953   0.220   8.621 -0.3878 -0.3070  0.1076
  140OSM   H18F15378   1.937   0.317   8.673  1.7814  1.5997 -2.4532
  140OSM   H18G15379   2.044   0.189   8.676  2.0957  3.4390 -1.4885
  140OSM   H18H15380   1.872   0.144   8.629 -1.9548  1.2110 -0.5589
  141OSM      N15381   1.176   2.256   6.023 -0.4262  0.3263  0.1763
  141OSM    C1515382   1.210   2.396   6.011  0.5686 -0.6722  0.0466
  141OSM   H15A15383   1.260   2.420   5.919  0.7357  0.3254  0.3891
  141OSM   H15B15384   1.265   2.443   6.091  0.7450  0.8301 -0.9269
  141OSM   H15C15385   1.121   2.457   6.002  2.4527  2.0231 -1.6240
  141OSM    C1415386   1.104   2.200   5.904 -0.0932  0.6368 -0.5971
  141OSM   H14A15387   1.053   2.106   5.918 -1.2271  0.9715 -2.2320
  141OSM   H14B15388   1.173   2.173   5.825  0.2389  0.9066 -0.4044
  141OSM   H14C15389   1.036   2.273   5.863  0.0406  0.3884 -1.2882
  141OSM    C1315390   1.306   2.178   6.049 -0.6720  0.4271 -0.3231
  141OSM   H13A15391   1.384   2.202   5.979 -0.5340  0.5101 -0.1384
  141OSM   H13B15392   1.284   2.073   6.036  1.4682 -0.1626  0.4608
  141OSM   H13C15393   1.339   2.185   6.151 -0.5331 -3.6202  0.0832
  141OSM    C1215394   1.080   2.234   6.145  0.0725  0.2082  0.2684
  141OSM   H12A15395   1.131   2.277   6.231 -1.8175  1.7336  0.7139
  141OSM   H12B15396   1.069   2.128   6.157 -2.0325  0.3520  0.1204
  141OSM    C1115397   0.939   2.296   6.138 -0.6170  0.1722 -0.2444
  141OSM   H11A15398   0.893   2.253   6.229  0.4870 -1.0329 -0.2211
  141OSM   H11B15399   0.888   2.271   6.042 -2.7234  1.0216  0.5904
  141OSM      P15400   0.839   2.544   6.180  0.5357 -0.1771 -0.0567
  141OSM    O1315401   0.888   2.679   6.174 -0.4321  0.4053  0.1061
  141OSM    O1415402   0.720   2.516   6.094 -0.8847 -0.0915 -0.2893
  141OSM    O1115403   0.803   2.514   6.333  0.1033 -0.4063 -0.4559
  141OSM    O1215404   0.949   2.438   6.144 -0.4846  0.3609  0.1621
  141OSM    C1S15405   0.877   2.446   6.434 -0.0954  0.0499 -0.8728
  141OSM    H1S15406   0.981   2.432   6.397 -0.0383 -1.0804 -0.3217
  141OSM    H1T15407   0.837   2.346   6.459  0.5932 -0.2243 -0.8654
  141OSM     NF15408   0.942   2.441   6.668 -0.4107  0.2884 -0.2258
  141OSM    HNF15409   0.878   2.390   6.724 -0.2773  0.4668  0.0882
  141OSM    C2S15410   0.884   2.526   6.567  1.1645  0.8273 -0.1560
  141OSM    H2S15411   0.947   2.618   6.562 -0.1050  1.8850  1.7805
  141OSM    C3S15412   0.735   2.567   6.602  0.4645 -0.1871 -0.4778
  141OSM    H3S15413   0.681   2.472   6.618  3.4389 -1.7640  0.9929
  141OSM     O315414   0.654   2.634   6.503  0.2699 -0.0227  0.2344
  141OSM    HO315415   0.694   2.610   6.419  0.5689  1.4797 -0.0696
  141OSM    C4S15416   0.734   2.645   6.729  0.4740 -0.0748 -0.1601
  141OSM    H4S15417   0.728   2.599   6.829 -1.9584 -0.4454 -0.4311
  141OSM    C5S15418   0.746   2.778   6.735 -0.6066 -0.2443 -0.5844
  141OSM    H5S15419   0.751   2.818   6.633  0.0583 -1.2069 -0.9511
  141OSM    C6S15420   0.741   2.870   6.852  0.2044  0.7567 -0.1098
  141OSM    H6S15421   0.638   2.911   6.846  0.4281  1.9022  2.6118
  141OSM    H6T15422   0.820   2.948   6.853  0.5433  0.4087  0.4301
  141OSM    C7S15423   0.742   2.800   6.990 -0.7897 -0.3026  0.3497
  141OSM    H7S15424   0.838   2.746   7.006 -0.0759  0.1323 -2.0494
  141OSM    H7T15425   0.664   2.721   6.992  0.9066 -2.0596 -0.1672
  141OSM    C8S15426   0.711   2.898   7.104  0.1044 -0.3323 -0.4243
  141OSM    H8S15427   0.614   2.949   7.087 -1.0246 -1.2262  2.5984
  141OSM    H8T15428   0.792   2.974   7.110  1.9484 -2.1714 -0.8619
  141OSM    C9S15429   0.694   2.830   7.234  0.1959  0.8074 -0.1850
  141OSM    H9S15430   0.785   2.770   7.252 -0.9034 -0.7827  0.3234
  141OSM    H9T15431   0.610   2.757   7.229  0.2328  0.6455  1.2653
  141OSM   C10S15432   0.686   2.920   7.356 -0.4104  0.1221  0.1163
  141OSM   H10S15433   0.596   2.985   7.349 -0.2120  0.3918  0.0345
  141OSM   H10T15434   0.769   2.994   7.351 -1.8146  1.6928 -1.4519
  141OSM   C11S15435   0.668   2.847   7.494 -0.0663 -0.0615 -0.2195
  141OSM   H11S15436   0.757   2.784   7.514 -0.0325  0.2159  0.5433
  141OSM   H11T15437   0.581   2.781   7.476 -1.7150  1.7421  0.6809
  141OSM   C12S15438   0.635   2.924   7.619  0.2222 -0.2542 -0.3766
  141OSM   H12S15439   0.550   2.995   7.616 -1.4018 -2.1383 -0.4565
  141OSM   H12T15440   0.726   2.985   7.639 -1.0598  1.9622 -0.9837
  141OSM   C13S15441   0.630   2.825   7.738  0.1052  0.2894 -0.6523
  141OSM   H13S15442   0.714   2.754   7.719  1.3959  1.4716  0.4129
  141OSM   H13T15443   0.541   2.759   7.729 -0.6520  0.7733  2.2628
  141OSM   C14S15444   0.648   2.894   7.878 -0.0019  0.0917 -0.4454
  141OSM   H14S15445   0.565   2.965   7.900 -0.5232  0.2620 -2.7277
  141OSM   H14T15446   0.740   2.956   7.882 -0.5236  0.8053  1.7360
  141OSM   C15S15447   0.668   2.805   8.001 -0.6467 -0.0129  0.3587
  141OSM   H15S15448   0.758   2.742   7.982  0.1692  0.2889  2.8578
  141OSM   H15T15449   0.582   2.738   8.021 -1.2010  0.4691 -0.3789
  141OSM   C16S15450   0.700   2.885   8.130  0.1803  0.2467 -0.6710
  141OSM   H16S15451   0.608   2.943   8.154 -0.1794  0.3228 -2.1571
  141OSM   H16T15452   0.773   2.968   8.121 -0.4645  1.1506  1.6412
  141OSM   C17S15453   0.731   2.793   8.250 -0.2668  0.3908  0.2182
  141OSM   H17S15454   0.835   2.761   8.227 -0.4208  0.1383 -0.1453
  141OSM   H17T15455   0.658   2.709   8.245  0.4598 -0.1972 -1.2124
  141OSM   C18S15456   0.736   2.855   8.393 -0.4752 -0.4260  0.1606
  141OSM   H18S15457   0.780   2.957   8.389  0.1302 -0.7245 -2.0649
  141OSM   H18T15458   0.791   2.783   8.457 -1.7517 -2.2955 -0.7493
  141OSM   H18U15459   0.631   2.861   8.431  0.1908 -0.2643  2.0721
  141OSM    C1F15460   1.075   2.417   6.669  0.3278 -0.5875  0.1479
  141OSM     OF15461   1.147   2.461   6.583  0.1138 -0.1636 -0.4597
  141OSM    C2F15462   1.115   2.338   6.784  0.5060  0.3905  0.4108
  141OSM    H2F15463   1.081   2.233   6.778  4.5615 -1.1338  1.2904
  141OSM    H2G15464   1.078   2.390   6.874 -0.9380  1.6325 -0.8358
  141OSM    C3F15465   1.272   2.332   6.773  0.4732  0.4266 -0.3178
  141OSM    H3F15466   1.317   2.433   6.764 -0.4305  0.7648 -1.1829
  141OSM    H3G15467   1.309   2.270   6.688  1.0133 -1.8405  1.4526
  141OSM    C4F15468   1.328   2.283   6.908  0.0227  0.0228 -0.2184
  141OSM    H4F15469   1.436   2.302   6.896  0.1389 -0.2683  0.3030
  141OSM    H4G15470   1.313   2.173   6.916  0.8941 -0.0684  0.2978
  141OSM    C5F15471   1.267   2.347   7.031  0.6481  0.0174  0.4913
  141OSM    H5F15472   1.160   2.319   7.046 -0.0835  2.6542  0.7187
  141OSM    H5G15473   1.255   2.456   7.017 -0.1162  0.1893  2.2703
  141OSM    C6F15474   1.344   2.317   7.165  0.2151  0.1778 -0.2515
  141OSM    H6F15475   1.454   2.331   7.169  0.9537 -4.2716  0.4189
  141OSM    H6G15476   1.337   2.206   7.167  2.4279 -0.0703 -2.1599
  141OSM    C7F15477   1.268   2.381   7.283  0.5657 -0.1093 -0.1083
  141OSM    H7F15478   1.161   2.365   7.256  1.1282 -2.7795 -1.0334
  141OSM    H7G15479   1.286   2.491   7.288 -1.8753  0.2864  1.7173
  141OSM    C8F15480   1.307   2.320   7.426  1.1077  0.0853 -0.0492
  141OSM    H8F15481   1.267   2.388   7.504  1.3200 -0.3266  0.4173
  141OSM    H8G15482   1.418   2.324   7.439  1.0709 -1.6853  1.1745
  141OSM    C9F15483   1.269   2.177   7.444  0.3162  0.3474  0.3375
  141OSM    H9F15484   1.239   2.133   7.347 -0.4372  2.4692 -0.4570
  141OSM   C10F15485   1.252   2.104   7.557  0.5610  0.1645 -0.2781
  141OSM   H10F15486   1.228   1.996   7.551  0.6081  0.1738 -0.6611
  141OSM   C11F15487   1.261   2.161   7.703  0.1251 -0.2785  0.5877
  141OSM   H11F15488   1.255   2.272   7.700 -0.5920 -0.3250 -0.0358
  141OSM   H11G15489   1.359   2.133   7.746  0.9460 -0.0843 -1.0643
  141OSM   C12F15490   1.146   2.107   7.794  0.3868 -0.1167 -0.2924
  141OSM   H12F15491   1.050   2.146   7.753  1.4181  3.8025  0.6344
  141OSM   H12G15492   1.159   2.157   7.892 -2.5748  1.6714 -0.6954
  141OSM   C13F15493   1.135   1.951   7.818  0.0099  0.2379  0.0642
  141OSM   H13F15494   1.155   1.894   7.725 -0.9273 -0.7665  0.4657
  141OSM   H13G15495   1.032   1.920   7.845  1.0106 -2.4131  1.1794
  141OSM   C14F15496   1.241   1.887   7.910  0.1423 -0.3891 -0.3333
  141OSM   H14F15497   1.268   1.940   8.004  0.1559  1.1009 -1.1443
  141OSM   H14G15498   1.335   1.891   7.851  0.6114  0.1969  0.4306
  141OSM   C15F15499   1.202   1.749   7.951 -0.1281 -0.2516 -0.8719
  141OSM   H15F15500   1.296   1.691   7.970  0.5750  0.9337 -0.6411
  141OSM   H15G15501   1.142   1.709   7.866 -1.9708  1.7126 -0.5662
  141OSM   C16F15502   1.111   1.743   8.075 -0.1350  0.2840  0.6232
  141OSM   H16F15503   1.034   1.824   8.077 -0.0432  0.3773  0.4208
  141OSM   H16G15504   1.185   1.755   8.156  1.6260 -0.5001 -0.8090
  141OSM   C17F15505   1.046   1.605   8.088 -0.5134  0.1827  0.1879
  141OSM   H17F15506   0.974   1.586   8.005 -1.0463 -1.3082  0.9317
  141OSM   H17G15507   0.986   1.598   8.182 -0.6238  1.3038  0.2090
  141OSM   C18F15508   1.150   1.495   8.089  0.3168 -0.2113 -0.7298
  141OSM   H18F15509   1.102   1.395   8.096  0.7520 -0.3409  0.6329
  141OSM   H18G15510   1.220   1.510   8.173 -0.5556 -0.9156  0.1489
  141OSM   H18H15511   1.210   1.493   7.995 -0.0173  0.7375 -0.9642
  142OSM      N15512   1.556   4.690   5.960  0.3013  0.1476  0.7986
  142OSM    C1515513   1.684   4.734   5.894  0.1501  0.2962  0.0207
  142OSM   H15A15514   1.753   4.651   5.892  1.6744  1.5232  0.0447
  142OSM   H15B15515   1.729   4.813   5.952 -0.7552  1.7409 -1.1663
  142OSM   H15C15516   1.670   4.783   5.799 -1.4720 -1.1784 -0.5551
  142OSM    C1415517   1.454   4.805   5.947 -0.1859  0.8697 -0.2047
  142OSM   H14A15518   1.371   4.787   6.013 -0.3961 -0.0259 -0.7008
  142OSM   H14B15519   1.413   4.814   5.848 -0.8345  0.0196 -0.0162
  142OSM   H14C15520   1.513   4.893   5.970 -0.0911  0.9231 -0.6330
  142OSM    C1315521   1.512   4.562   5.901  0.0573  0.0544  0.4484
  142OSM   H13A15522   1.492   4.566   5.795 -2.6649  0.2918  0.9166
  142OSM   H13B15523   1.424   4.510   5.938  1.6741 -1.4934  2.4107
  142OSM   H13C15524   1.592   4.489   5.909  1.9947  1.9970 -0.2735
  142OSM    C1215525   1.579   4.665   6.110 -0.1781 -1.1894  0.5362
  142OSM   H12A15526   1.653   4.586   6.106  2.0563  0.8053  0.0910
  142OSM   H12B15527   1.490   4.622   6.153 -2.0234  0.6641 -1.1937
  142OSM    C1115528   1.637   4.783   6.195  0.1090  1.1136  0.5723
  142OSM   H11A15529   1.606   4.764   6.300  0.2498  0.6379  0.5321
  142OSM   H11B15530   1.579   4.872   6.163 -2.1116 -0.0094  1.2608
  142OSM      P15531   1.844   4.918   6.237 -0.0723 -0.0439  0.9113
  142OSM    O1315532   1.994   4.901   6.224 -0.2272 -0.2382  0.1513
  142OSM    O1415533   1.793   5.046   6.184 -0.4249 -0.1777  0.3843
  142OSM    O1115534   1.806   4.914   6.391 -0.4153  0.3797  0.2332
  142OSM    O1215535   1.781   4.790   6.180  0.4729 -0.3014  0.7878
  142OSM    C1S15536   1.856   4.800   6.463  0.0127 -0.3017  0.1842
  142OSM    H1S15537   1.967   4.792   6.457 -0.0606 -3.0492  1.2225
  142OSM    H1T15538   1.819   4.703   6.424 -1.5244  0.3759 -0.1290
  142OSM     NF15539   1.883   4.722   6.702  0.3311 -0.0896 -0.5492
  142OSM    HNF15540   1.834   4.639   6.726  0.4855  0.1573  0.6779
  142OSM    C2S15541   1.808   4.811   6.610  0.3244  0.1358  0.4369
  142OSM    H2S15542   1.826   4.913   6.651 -2.5166  1.4396 -1.2324
  142OSM    C3S15543   1.653   4.789   6.604 -0.2245 -0.7638  0.4515
  142OSM    H3S15544   1.643   4.688   6.559 -1.0846 -0.0434 -1.0708
  142OSM     O315545   1.580   4.883   6.520  0.0329 -0.2926  0.8719
  142OSM    HO315546   1.657   4.916   6.473 -0.0921 -0.0811  0.8120
  142OSM    C4S15547   1.597   4.786   6.747  0.0796  0.0284 -0.3604
  142OSM    H4S15548   1.593   4.680   6.777  2.2263 -0.0488 -0.1336
  142OSM    C5S15549   1.589   4.891   6.832 -0.2312  0.2644  0.5197
  142OSM    H5S15550   1.615   4.994   6.805  0.5145 -0.2274 -0.7242
  142OSM    C6S15551   1.558   4.861   6.975  0.4443  0.1313 -0.0494
  142OSM    H6S15552   1.544   4.752   6.993 -0.8523  0.0868 -1.1107
  142OSM    H6T15553   1.449   4.878   6.990  0.1688 -2.0561  0.8608
  142OSM    C7S15554   1.647   4.932   7.078  0.1712  0.0333  0.1635
  142OSM    H7S15555   1.653   5.042   7.064 -1.2217  0.1108  0.1145
  142OSM    H7T15556   1.752   4.909   7.047 -0.2633 -0.0831 -1.3130
  142OSM    C8S15557   1.618   4.895   7.222 -0.8761  0.0076  0.4772
  142OSM    H8S15558   1.677   4.962   7.289 -3.8569  1.8089  1.4666
  142OSM    H8T15559   1.646   4.789   7.242 -1.2538 -0.4080 -1.0614
  142OSM    C9S15560   1.465   4.912   7.264 -0.2680 -0.2378 -0.4253
  142OSM    H9S15561   1.412   4.822   7.227  0.2896  0.3692 -2.9612
  142OSM    H9T15562   1.407   4.993   7.214 -1.7156  0.0718  1.6581
  142OSM   C10S15563   1.456   4.934   7.416  0.1926 -0.3700 -0.2143
  142OSM   H10S15564   1.349   4.946   7.445  0.7461 -0.2433  1.9780
  142OSM   H10T15565   1.505   5.030   7.440  1.2066 -0.6611 -1.0939
  142OSM   C11S15566   1.518   4.820   7.506 -0.4840  0.1396 -0.2852
  142OSM   H11S15567   1.622   4.796   7.474 -0.5440  1.5584 -1.6491
  142OSM   H11T15568   1.452   4.731   7.507 -1.5378  0.7125  4.0511
  142OSM   C12S15569   1.515   4.855   7.656  0.1992 -0.7011 -0.2965
  142OSM   H12S15570   1.412   4.892   7.679  0.2680 -0.2129 -0.7674
  142OSM   H12T15571   1.581   4.942   7.669  0.1535 -0.6311 -0.5338
  142OSM   C13S15572   1.553   4.748   7.763  1.0111  0.3227  0.5256
  142OSM   H13S15573   1.654   4.710   7.735  1.5878  0.2617  2.4858
  142OSM   H13T15574   1.488   4.658   7.765  2.1279 -0.5063  1.2762
  142OSM   C14S15575   1.557   4.803   7.907 -0.1979  0.4063  0.3243
  142OSM   H14S15576   1.452   4.830   7.927  0.4941  5.1248 -1.1267
  142OSM   H14T15577   1.616   4.897   7.917 -0.8624  1.2077 -2.4789
  142OSM   C15S15578   1.619   4.696   8.005 -0.4934 -0.2477 -0.7204
  142OSM   H15S15579   1.728   4.696   7.980 -0.0648  0.7209  0.9557
  142OSM   H15T15580   1.580   4.595   7.980 -0.3299 -0.8114  1.1598
  142OSM   C16S15581   1.567   4.719   8.154 -0.3831 -0.6769 -0.0700
  142OSM   H16S15582   1.457   4.721   8.172 -0.6723  0.6119 -1.7458
  142OSM   H16T15583   1.604   4.820   8.181 -1.9082  0.4406 -1.9064
  142OSM   C17S15584   1.648   4.620   8.247  0.3955  0.0223 -0.0135
  142OSM   H17S15585   1.755   4.643   8.230  0.7544 -2.4068 -1.5610
  142OSM   H17T15586   1.625   4.513   8.229 -0.5897  0.3822 -1.0326
  142OSM   C18S15587   1.623   4.642   8.396 -0.1803  0.4735  0.3389
  142OSM   H18S15588   1.657   4.742   8.430 -1.1383  1.0235 -0.2924
  142OSM   H18T15589   1.677   4.564   8.454 -1.0607 -1.2381 -1.0349
  142OSM   H18U15590   1.515   4.628   8.416 -0.3022 -3.1820 -2.0318
  142OSM    C1F15591   2.014   4.732   6.733 -0.3257  0.1380 -0.5473
  142OSM     OF15592   2.085   4.826   6.694 -0.1700  0.1576  0.1884
  142OSM    C2F15593   2.072   4.621   6.809 -0.7611  0.2029 -0.6022
  142OSM    H2F15594   2.076   4.527   6.750  2.1548 -1.7511  2.3421
  142OSM    H2G15595   1.995   4.592   6.884 -1.1797 -0.8816 -1.4297
  142OSM    C3F15596   2.207   4.653   6.880 -0.2743 -0.2143  0.3189
  142OSM    H3F15597   2.269   4.716   6.812 -1.8262 -0.3861 -1.3262
  142OSM    H3G15598   2.258   4.555   6.896 -0.7242 -0.5295 -0.1234
  142OSM    C4F15599   2.187   4.708   7.021  0.3492 -0.1652  0.3803
  142OSM    H4F15600   2.121   4.638   7.077 -0.3490 -0.8047 -1.1823
  142OSM    H4G15601   2.133   4.804   7.012  0.2769 -0.0145  2.0978
  142OSM    C5F15602   2.308   4.724   7.105  0.2507  0.5909 -0.3098
  142OSM    H5F15603   2.377   4.801   7.064 -1.0940  3.0427  1.7431
  142OSM    H5G15604   2.361   4.626   7.111 -0.8994  0.0323  3.2211
  142OSM    C6F15605   2.260   4.754   7.246  0.0489 -0.2983  0.1841
  142OSM    H6F15606   2.186   4.677   7.276 -2.9967  1.8814 -1.2226
  142OSM    H6G15607   2.233   4.860   7.267  1.2897  0.0306  0.2416
  142OSM    C7F15608   2.365   4.730   7.353  0.3656 -0.2880 -0.0925
  142OSM    H7F15609   2.462   4.779   7.329  1.1550 -2.1653 -0.9670
  142OSM    H7G15610   2.377   4.620   7.364 -0.1713 -0.3311  0.0818
  142OSM    C8F15611   2.315   4.779   7.503  0.2479 -0.2498  0.2260
  142OSM    H8F15612   2.309   4.890   7.496  2.1405 -0.1530 -0.3215
  142OSM    H8G15613   2.400   4.760   7.572  0.8822 -1.6470 -0.8747
  142OSM    C9F15614   2.190   4.705   7.534 -0.5894 -0.0427 -1.4810
  142OSM    H9F15615   2.101   4.743   7.484 -0.4263  0.2308 -1.5665
  142OSM   C10F15616   2.183   4.610   7.629  0.8533 -0.1651 -0.0067
  142OSM   H10F15617   2.095   4.546   7.647  1.3234 -0.1165  2.9962
  142OSM   C11F15618   2.306   4.566   7.702 -0.6077 -0.2243 -0.4201
  142OSM   H11F15619   2.357   4.645   7.761 -1.9176 -0.3351  0.9238
  142OSM   H11G15620   2.379   4.536   7.624 -0.0126  0.5203 -0.1597
  142OSM   C12F15621   2.281   4.449   7.804 -0.2111 -0.1604  0.1949
  142OSM   H12F15622   2.376   4.407   7.844 -0.1226  0.8950  1.1476
  142OSM   H12G15623   2.240   4.368   7.741  0.1096 -3.2673  3.6110
  142OSM   C13F15624   2.187   4.493   7.925  0.0645 -0.3981  0.5582
  142OSM   H13F15625   2.167   4.393   7.971  1.5246 -0.8908  0.1738
  142OSM   H13G15626   2.091   4.543   7.899  0.1668  0.0246  0.9949
  142OSM   C14F15627   2.261   4.585   8.032  0.0715  0.1576 -0.4599
  142OSM   H14F15628   2.296   4.678   7.982 -2.7280  2.0054  0.7817
  142OSM   H14G15629   2.354   4.536   8.069 -0.9020 -0.8021  0.7864
  142OSM   C15F15630   2.162   4.617   8.147  0.4479  0.1735  0.8870
  142OSM   H15F15631   2.128   4.526   8.202  0.0784 -0.7445 -0.7714
  142OSM   H15G15632   2.075   4.663   8.096  0.5672  1.5285  1.8616
  142OSM   C16F15633   2.213   4.722   8.246  0.0993  0.8546  0.3428
  142OSM   H16F15634   2.133   4.747   8.319 -1.2892 -0.6070 -0.6158
  142OSM   H16G15635   2.239   4.814   8.191  1.8576  1.0842  1.4539
  142OSM   C17F15636   2.333   4.683   8.326 -0.0657  0.2256  0.3576
  142OSM   H17F15637   2.412   4.676   8.249 -0.6715 -2.5601 -0.1264
  142OSM   H17G15638   2.330   4.585   8.378  2.0816  0.1349  0.3701
  142OSM   C18F15639   2.363   4.798   8.423  0.1692  0.3785  0.4240
  142OSM   H18F15640   2.451   4.779   8.487  1.6186  1.2728 -1.2327
  142OSM   H18G15641   2.276   4.802   8.492  0.3592 -0.3148  0.7145
  142OSM   H18H15642   2.372   4.902   8.387  1.6103  0.0859 -0.1023
  143OSM      N15643   2.772   6.554   5.670  0.4584  0.6018  0.0784
  143OSM    C1515644   2.738   6.605   5.538 -0.1747 -0.3696  0.4841
  143OSM   H15A15645   2.701   6.527   5.473 -2.5520  1.2786 -0.2838
  143OSM   H15B15646   2.819   6.648   5.482 -1.0112 -2.0568 -2.2156
  143OSM   H15C15647   2.662   6.681   5.531  0.6548  0.5384  1.0499
  143OSM    C1415648   2.855   6.655   5.745 -0.0871  0.4964 -0.2151
  143OSM   H14A15649   2.874   6.633   5.849  0.0834  1.1154 -0.1064
  143OSM   H14B15650   2.805   6.751   5.750  0.8545  1.0098 -0.2545
  143OSM   H14C15651   2.950   6.669   5.694  1.7503 -1.7884  2.2861
  143OSM    C1315652   2.637   6.530   5.742  1.3059 -0.1886 -0.3251
  143OSM   H13A15653   2.584   6.624   5.749  0.0621 -0.9634  1.2857
  143OSM   H13B15654   2.655   6.500   5.844 -1.0440 -1.3085 -0.1820
  143OSM   H13C15655   2.582   6.448   5.699  1.3288 -0.5664  0.3536
  143OSM    C1215656   2.851   6.420   5.652  0.0526 -0.7258  0.3314
  143OSM   H12A15657   2.948   6.441   5.610 -0.0472  0.0620  0.4702
  143OSM   H12B15658   2.799   6.363   5.577 -0.8028 -1.4267  1.4289
  143OSM    C1115659   2.871   6.327   5.778 -0.4172 -0.2299 -0.4958
  143OSM   H11A15660   2.902   6.231   5.731 -0.4658 -1.7659  2.4122
  143OSM   H11B15661   2.768   6.318   5.819 -2.5527  1.1901 -4.8418
  143OSM      P15662   2.923   6.375   6.025  0.2346 -0.4757 -0.2782
  143OSM    O1315663   3.032   6.442   6.094 -0.2286 -0.2020 -0.4009
  143OSM    O1415664   2.784   6.416   6.058  0.0533 -0.2866 -0.4609
  143OSM    O1115665   2.930   6.220   6.054 -0.5618 -1.1983  0.0811
  143OSM    O1215666   2.959   6.382   5.875 -0.1183  0.4516 -0.1042
  143OSM    C1S15667   2.953   6.165   6.180 -0.4928  0.4467  0.3571
  143OSM    H1S15668   3.019   6.232   6.239 -0.2129  0.7519 -0.2937
  143OSM    H1T15669   2.991   6.061   6.169 -1.3352  0.1342  0.3336
  143OSM     NF15670   2.845   6.106   6.396  0.2729  0.1176 -0.3588
  143OSM    HNF15671   2.842   6.008   6.413 -1.4490 -0.2672 -2.5202
  143OSM    C2S15672   2.814   6.146   6.256 -0.3493 -0.2784  0.6033
  143OSM    H2S15673   2.758   6.242   6.264  1.0654  0.5688  0.8224
  143OSM    C3S15674   2.717   6.046   6.178 -0.3432 -0.0209 -0.0064
  143OSM    H3S15675   2.759   5.944   6.184 -0.8393 -0.1483  1.7057
  143OSM     O315676   2.707   6.072   6.040  0.2905 -0.2193  0.0106
  143OSM    HO315677   2.778   6.136   6.027 -0.8932  0.9299 -1.1769
  143OSM    C4S15678   2.582   6.059   6.234 -0.4850  0.3515  0.1639
  143OSM    H4S15679   2.522   6.138   6.187 -0.1493 -0.5255 -1.8606
  143OSM    C5S15680   2.529   5.994   6.341 -0.3577 -0.1442 -0.3149
  143OSM    H5S15681   2.579   5.912   6.395 -1.3920 -0.3948  0.3077
  143OSM    C6S15682   2.388   6.007   6.383  0.5883  0.6243  0.1003
  143OSM    H6S15683   2.346   5.909   6.416 -1.5927  1.5326  0.1610
  143OSM    H6T15684   2.320   6.042   6.303 -1.5332 -2.6221  0.2909
  143OSM    C7S15685   2.373   6.107   6.496 -0.1147  0.3337 -0.3957
  143OSM    H7S15686   2.269   6.130   6.528  0.0118  0.3456  0.0104
  143OSM    H7T15687   2.419   6.204   6.466  2.1866 -0.8860 -1.0341
  143OSM    C8S15688   2.463   6.063   6.617  0.1446  0.3513 -0.1092
  143OSM    H8S15689   2.562   6.021   6.588 -0.0544 -0.1676 -0.0461
  143OSM    H8T15690   2.416   5.971   6.656  0.6066 -0.9473 -2.4555
  143OSM    C9S15691   2.488   6.177   6.713  0.7465 -0.3982 -0.4538
  143OSM    H9S15692   2.387   6.223   6.718  1.3381  0.9950 -0.8988
  143OSM    H9T15693   2.565   6.248   6.676  2.1303 -1.5907  0.0323
  143OSM   C10S15694   2.522   6.117   6.852  0.4360  0.0361 -0.0969
  143OSM   H10S15695   2.601   6.040   6.838  0.9732  0.7991 -1.4153
  143OSM   H10T15696   2.426   6.067   6.878  1.1607  0.1804  3.2106
  143OSM   C11S15697   2.563   6.222   6.951  0.2881  0.6983 -0.1652
  143OSM   H11S15698   2.489   6.302   6.971  1.2558  1.5645  0.0636
  143OSM   H11T15699   2.650   6.276   6.906  0.7591 -0.6806 -0.9578
  143OSM   C12S15700   2.601   6.144   7.079 -0.3295  0.2667 -0.1236
  143OSM   H12S15701   2.674   6.061   7.074 -1.2358 -0.6543  1.1620
  143OSM   H12T15702   2.504   6.095   7.105  0.8577 -3.2891 -1.8132
  143OSM   C13S15703   2.627   6.231   7.196 -0.1790 -0.8993 -0.9923
  143OSM   H13S15704   2.538   6.297   7.188 -1.3713 -2.3669 -0.3197
  143OSM   H13T15705   2.729   6.274   7.183 -0.7158  0.1232 -2.0027
  143OSM   C14S15706   2.618   6.163   7.325  0.6130  0.2794 -0.5086
  143OSM   H14S15707   2.678   6.072   7.346 -0.2201 -0.2174 -0.2493
  143OSM   H14T15708   2.515   6.123   7.333  1.2626 -1.3412  0.2255
  143OSM   C15S15709   2.630   6.259   7.440  0.5880  0.4594 -0.0154
  143OSM   H15S15710   2.543   6.327   7.454 -0.1627 -0.7447  1.4748
  143OSM   H15T15711   2.720   6.323   7.427 -0.3358  2.3399  2.1248
  143OSM   C16S15712   2.640   6.200   7.580  0.2600 -0.2755 -0.0270
  143OSM   H16S15713   2.562   6.121   7.582 -1.1038  0.9589 -1.5889
  143OSM   H16T15714   2.593   6.273   7.650 -3.1012 -1.1382 -1.1715
  143OSM   C17S15715   2.767   6.143   7.637 -0.0513  0.4418  0.3771
  143OSM   H17S15716   2.847   6.220   7.636 -0.5648  0.9855  0.6230
  143OSM   H17T15717   2.808   6.058   7.578  2.2355  0.7139  1.4385
  143OSM   C18S15718   2.741   6.090   7.781  0.2575 -0.3425 -0.3996
  143OSM   H18S15719   2.828   6.030   7.816  1.5649  0.6388 -1.8491
  143OSM   H18T15720   2.651   6.026   7.770 -0.9315  0.9683  1.1402
  143OSM   H18U15721   2.713   6.169   7.855  0.0252  0.0835 -0.9372
  143OSM    C1F15722   2.913   6.183   6.484 -0.3030  0.5324  0.2335
  143OSM     OF15723   2.944   6.304   6.465 -0.0889  0.4277  0.7725
  143OSM    C2F15724   2.949   6.118   6.613 -0.0448 -0.0681  1.1102
  143OSM    H2F15725   3.059   6.102   6.618  0.3689  0.9555 -2.1784
  143OSM    H2G15726   2.910   6.015   6.627 -0.5501 -0.7715 -3.6387
  143OSM    C3F15727   2.908   6.208   6.732 -0.8123 -0.2619  0.2145
  143OSM    H3F15728   2.800   6.234   6.719 -0.4031  0.6271 -1.7401
  143OSM    H3G15729   2.957   6.308   6.729 -1.3318 -0.0142 -2.0760
  143OSM    C4F15730   2.949   6.152   6.868 -0.2643 -0.2352  0.0782
  143OSM    H4F15731   3.036   6.085   6.856 -0.2855  0.0854 -2.2350
  143OSM    H4G15732   2.868   6.091   6.913 -0.8601  0.5482  0.1080
  143OSM    C5F15733   2.976   6.263   6.974 -0.1993 -0.1356  0.2847
  143OSM    H5F15734   2.881   6.318   6.987 -0.4596 -0.8974  1.8053
  143OSM    H5G15735   3.063   6.325   6.944 -0.8227  0.9548  0.6869
  143OSM    C6F15736   3.001   6.206   7.116 -0.2660 -0.0216  0.5296
  143OSM    H6F15737   3.095   6.146   7.111 -0.1725  0.0121  1.6472
  143OSM    H6G15738   2.919   6.135   7.140 -1.0518  0.6489 -0.0961
  143OSM    C7F15739   3.000   6.315   7.227  0.4323 -0.1372 -0.1032
  143OSM    H7F15740   2.903   6.369   7.225  0.7988  0.5222 -0.6752
  143OSM    H7G15741   3.077   6.388   7.194 -0.9229  1.3116 -0.2181
  143OSM    C8F15742   3.029   6.260   7.363 -0.0096 -0.2545  0.0405
  143OSM    H8F15743   3.120   6.197   7.356  0.1760 -0.0844  0.8501
  143OSM    H8G15744   2.950   6.188   7.393  0.0523 -0.4538 -0.2717
  143OSM    C9F15745   3.048   6.364   7.470  0.3957  1.0456 -0.5827
  143OSM    H9F15746   2.963   6.433   7.481  0.3520  0.8666  0.2765
  143OSM   C10F15747   3.138   6.368   7.575  0.0808  0.0875  0.4348
  143OSM   H10F15748   3.137   6.456   7.640  1.1950 -0.6061  1.4172
  143OSM   C11F15749   3.242   6.269   7.601 -0.4183  0.2901  1.3408
  143OSM   H11F15750   3.345   6.293   7.565 -0.4955  0.4281  1.2075
  143OSM   H11G15751   3.218   6.174   7.549  1.4841  0.6289 -0.2783
  143OSM   C12F15752   3.250   6.246   7.750  0.1052  1.0083  0.2651
  143OSM   H12F15753   3.146   6.223   7.782 -0.6916  2.3336 -1.2465
  143OSM   H12G15754   3.291   6.341   7.790  1.9602  0.4681 -0.2283
  143OSM   C13F15755   3.347   6.139   7.791  0.0249 -0.3166  0.8625
  143OSM   H13F15756   3.437   6.136   7.726 -0.3727 -1.4482  0.3260
  143OSM   H13G15757   3.306   6.038   7.768  1.2562 -0.6482 -0.0434
  143OSM   C14F15758   3.401   6.141   7.934 -0.7027 -0.5100 -0.2875
  143OSM   H14F15759   3.311   6.170   7.993  0.0940  1.4949  0.0268
  143OSM   H14G15760   3.474   6.225   7.936 -0.5492 -0.6478  0.0332
  143OSM   C15F15761   3.450   5.999   7.975 -0.2464 -0.4537 -0.1832
  143OSM   H15F15762   3.525   5.966   7.900  1.1365  1.0608  0.4612
  143OSM   H15G15763   3.367   5.928   7.959  1.6337 -2.8492  0.1450
  143OSM   C16F15764   3.507   5.982   8.117 -0.1538  0.4481 -0.1355
  143OSM   H16F15765   3.446   6.026   8.198 -1.0675 -0.7159 -0.1627
  143OSM   H16G15766   3.610   6.025   8.115  0.8821 -1.8666  0.4038
  143OSM   C17F15767   3.514   5.835   8.170 -0.1185  0.0891  0.2589
  143OSM   H17F15768   3.578   5.767   8.109  3.6064  1.7588  1.9878
  143OSM   H17G15769   3.409   5.799   8.165  0.0683 -0.5258  0.6583
  143OSM   C18F15770   3.558   5.836   8.313 -0.3146  0.1531  0.1890
  143OSM   H18F15771   3.619   5.746   8.336 -1.4184 -1.0540 -1.4047
  143OSM   H18G15772   3.471   5.848   8.381 -1.3316 -1.1632 -0.8150
  143OSM   H18H15773   3.621   5.925   8.335 -0.9522  0.8601 -0.7695
  144OSM      N15774   0.709   6.069   6.172  0.2776  0.0853  0.1690
  144OSM    C1515775   0.667   5.932   6.138 -0.3097  0.1749  0.9019
  144OSM   H15A15776   0.610   5.929   6.047 -0.3796 -0.9557  0.9676
  144OSM   H15B15777   0.606   5.886   6.215 -2.9570  1.2748 -0.4306
  144OSM   H15C15778   0.750   5.864   6.126  0.6975  1.4900  0.2023
  144OSM    C1415779   0.767   6.143   6.057 -0.1584 -0.3016 -0.1026
  144OSM   H14A15780   0.700   6.141   5.972  0.9730  1.5148 -1.0928
  144OSM   H14B15781   0.859   6.106   6.014 -0.5198  1.2307 -2.3529
  144OSM   H14C15782   0.801   6.244   6.075 -0.8157  0.5706 -3.1306
  144OSM    C1315783   0.586   6.146   6.208  0.5185 -0.1944 -0.0178
  144OSM   H13A15784   0.515   6.085   6.262  0.6184 -1.2637 -1.0583
  144OSM   H13B15785   0.528   6.162   6.119 -0.1185 -2.2612 -0.0366
  144OSM   H13C15786   0.610   6.235   6.264 -0.0524  1.3105 -2.0404
  144OSM    C1215787   0.798   6.067   6.295 -0.5418 -0.5653  0.0968
  144OSM   H12A15788   0.879   5.996   6.286 -0.3430 -1.0648  3.9899
  144OSM   H12B15789   0.752   6.020   6.381 -0.4122 -0.6573  0.1174
  144OSM    C1115790   0.868   6.206   6.333  0.0100  0.0946  0.1169
  144OSM   H11A15791   0.953   6.220   6.263 -0.0840  1.4337  0.2536
  144OSM   H11B15792   0.909   6.189   6.435  1.4397  0.3999 -0.3762
  144OSM      P15793   0.818   6.443   6.254 -0.3115 -0.2992 -0.2309
  144OSM    O1315794   0.874   6.408   6.127  0.0703 -0.3516  0.1468
  144OSM    O1415795   0.710   6.548   6.256  0.1325 -0.2843  0.3283
  144OSM    O1115796   0.946   6.500   6.337 -0.2490  0.3438 -0.4263
  144OSM    O1215797   0.784   6.318   6.344 -0.1986 -0.3190 -0.1395
  144OSM    C1S15798   0.938   6.602   6.435 -0.1117 -0.2141 -0.2293
  144OSM    H1S15799   0.863   6.682   6.415  0.9964  1.7701  2.8243
  144OSM    H1T15800   1.030   6.663   6.441 -0.1733 -0.2076  1.0205
  144OSM     NF15801   0.884   6.647   6.661  0.7596 -0.0255  0.3027
  144OSM    HNF15802   0.938   6.730   6.675 -1.6261  1.8775 -0.9284
  144OSM    C2S15803   0.927   6.546   6.573 -0.2336  0.1627  0.3649
  144OSM    H2S15804   0.864   6.455   6.579  1.3669 -0.9960  0.3507
  144OSM    C3S15805   1.069   6.487   6.603 -0.1877  0.0620  0.0623
  144OSM    H3S15806   1.147   6.555   6.562  1.0394 -1.8122 -0.8071
  144OSM     O315807   1.099   6.364   6.538 -0.1772 -0.1204  0.1424
  144OSM    HO315808   1.059   6.381   6.452 -2.4929  2.4509  1.5610
  144OSM    C4S15809   1.085   6.470   6.759  0.8155  0.3306 -0.1579
  144OSM    H4S15810   1.133   6.558   6.805 -0.9452  1.6187 -0.6897
  144OSM    C5S15811   1.058   6.361   6.835 -0.2522 -0.0845 -0.2955
  144OSM    H5S15812   1.034   6.265   6.787  0.6242 -0.0225 -0.8852
  144OSM    C6S15813   1.077   6.346   6.986 -0.1676 -0.1392  0.3113
  144OSM    H6S15814   1.184   6.317   6.995 -0.2865 -1.4963 -1.7509
  144OSM    H6T15815   1.014   6.258   7.011 -0.0046 -1.5975 -3.6389
  144OSM    C7S15816   1.045   6.465   7.082  0.6754 -0.7867  0.0565
  144OSM    H7S15817   0.937   6.491   7.073  0.5126 -1.6391 -0.6095
  144OSM    H7T15818   1.099   6.560   7.064 -0.3136  0.0906  1.4597
  144OSM    C8S15819   1.074   6.427   7.227  0.5694  0.3970  0.0594
  144OSM    H8S15820   1.171   6.376   7.244 -0.8123 -2.1694  0.7547
  144OSM    H8T15821   1.000   6.359   7.273  2.5512 -0.7512  1.7325
  144OSM    C9S15822   1.061   6.563   7.309  0.2340  0.3263 -0.1427
  144OSM    H9S15823   0.959   6.603   7.292  0.2308 -0.0644 -1.0808
  144OSM    H9T15824   1.132   6.636   7.265  2.0525 -3.0430 -3.3490
  144OSM   C10S15825   1.102   6.547   7.459  0.5038  0.1439  0.0317
  144OSM   H10S15826   1.085   6.439   7.481 -1.6291  0.1865 -1.1544
  144OSM   H10T15827   1.050   6.619   7.526 -0.7181 -1.2443  0.6291
  144OSM   C11S15828   1.252   6.587   7.477 -0.1830 -0.2898 -0.7773
  144OSM   H11S15829   1.277   6.694   7.461  1.4270 -0.1419  2.1141
  144OSM   H11T15830   1.303   6.515   7.410 -0.0439  0.1443 -1.1404
  144OSM   C12S15831   1.297   6.556   7.623 -0.3610 -0.0919 -0.6380
  144OSM   H12S15832   1.291   6.446   7.642 -0.9186 -0.1263 -0.9982
  144OSM   H12T15833   1.227   6.610   7.690 -0.6482  1.2430 -1.9766
  144OSM   C13S15834   1.440   6.602   7.661 -0.4240  0.4176  0.4370
  144OSM   H13S15835   1.441   6.713   7.670  0.8288  0.3070  2.0588
  144OSM   H13T15836   1.499   6.571   7.573 -1.1666 -1.0020  0.4105
  144OSM   C14S15837   1.494   6.537   7.789  0.0678 -0.2295  1.0214
  144OSM   H14S15838   1.605   6.538   7.780  0.1381 -4.6638 -4.0307
  144OSM   H14T15839   1.454   6.433   7.787 -0.9952  0.1675 -0.2354
  144OSM   C15S15840   1.450   6.610   7.911 -0.1522 -0.0667 -0.3201
  144OSM   H15S15841   1.340   6.603   7.924  0.1682 -2.2261  1.8961
  144OSM   H15T15842   1.474   6.719   7.907 -0.0796 -0.1158 -2.5889
  144OSM   C16S15843   1.504   6.545   8.042  0.6009 -0.3964  0.1546
  144OSM   H16S15844   1.614   6.562   8.048  0.0482  4.1584  0.7988
  144OSM   H16T15845   1.478   6.437   8.044 -1.1154 -0.1130 -2.0874
  144OSM   C17S15846   1.456   6.611   8.169  0.0373  0.6081 -0.4111
  144OSM   H17S15847   1.347   6.603   8.189 -0.4734  2.6224 -2.0820
  144OSM   H17T15848   1.481   6.719   8.169 -0.0797  0.6353 -0.3548
  144OSM   C18S15849   1.524   6.539   8.287  0.2429 -0.1724  0.4510
  144OSM   H18S15850   1.467   6.448   8.315 -1.3301  0.4343 -0.6332
  144OSM   H18T15851   1.537   6.605   8.376  0.8319  2.5356 -1.5139
  144OSM   H18U15852   1.624   6.506   8.253 -1.2980 -1.5972 -3.1588
  144OSM    C1F15853   0.756   6.672   6.671  0.1467  0.0765 -0.5899
  144OSM     OF15854   0.664   6.598   6.625  0.4457  0.2737  0.1772
  144OSM    C2F15855   0.723   6.785   6.755 -0.0599 -1.0107 -0.3081
  144OSM    H2F15856   0.642   6.850   6.717  2.0049  1.5534 -0.5916
  144OSM    H2G15857   0.811   6.851   6.770 -0.7403 -0.5058  1.8769
  144OSM    C3F15858   0.699   6.726   6.898  0.0309 -0.1114  0.0050
  144OSM    H3F15859   0.798   6.686   6.927 -0.5377  0.7058  3.5520
  144OSM    H3G15860   0.622   6.646   6.900 -2.4030  2.1093 -0.2084
  144OSM    C4F15861   0.657   6.835   7.003  0.2177 -0.5050 -0.1601
  144OSM    H4F15862   0.554   6.859   6.969 -0.2243  0.7549  1.8880
  144OSM    H4G15863   0.713   6.930   7.010  0.0310 -0.4584  1.0305
  144OSM    C5F15864   0.632   6.771   7.141 -0.1678  0.2034  0.1145
  144OSM    H5F15865   0.733   6.743   7.179 -0.8328 -2.4200  0.1345
  144OSM    H5G15866   0.567   6.681   7.136 -0.2383  0.2934 -0.6626
  144OSM    C6F15867   0.561   6.872   7.233 -0.0303  0.3417 -0.7118
  144OSM    H6F15868   0.480   6.931   7.184  0.1268  0.1061 -1.2631
  144OSM    H6G15869   0.645   6.939   7.263  1.3253 -2.0359  1.1643
  144OSM    C7F15870   0.518   6.811   7.368  0.6974 -0.1431  1.2656
  144OSM    H7F15871   0.604   6.799   7.437 -0.1497 -2.4831  1.9873
  144OSM    H7G15872   0.484   6.709   7.341  1.5663 -1.1875  3.8358
  144OSM    C8F15873   0.411   6.893   7.441  0.7326 -0.1855 -0.6220
  144OSM    H8F15874   0.353   6.818   7.500 -0.4289 -1.2554 -2.9877
  144OSM    H8G15875   0.330   6.932   7.376  1.7516  0.0972 -1.7477
  144OSM    C9F15876   0.467   7.006   7.525  0.1711  0.0091  0.6023
  144OSM    H9F15877   0.470   7.103   7.473  2.5315 -0.1555  0.3470
  144OSM   C10F15878   0.486   6.997   7.662 -0.5065  0.1117 -0.1169
  144OSM   H10F15879   0.500   7.087   7.723  1.3009 -0.3097  0.1608
  144OSM   C11F15880   0.453   6.874   7.748 -0.9398 -0.7005  0.0916
  144OSM   H11F15881   0.480   6.784   7.690 -0.7574 -0.2290 -0.5736
  144OSM   H11G15882   0.344   6.873   7.771 -0.5048  0.6366  2.5117
  144OSM   C12F15883   0.544   6.880   7.876 -0.5298  0.4584 -0.2648
  144OSM   H12F15884   0.649   6.882   7.839 -0.6551  0.8138 -0.6161
  144OSM   H12G15885   0.536   6.781   7.925  2.9134  0.6956  1.0645
  144OSM   C13F15886   0.522   6.992   7.971  0.0054 -0.7531  0.4212
  144OSM   H13F15887   0.415   7.014   7.990 -0.4412 -0.3438 -2.2229
  144OSM   H13G15888   0.564   7.086   7.929 -2.6622  1.4301  2.3072
  144OSM   C14F15889   0.605   6.989   8.103  1.0254 -1.4921  0.2547
  144OSM   H14F15890   0.600   7.088   8.153  2.9821 -0.7283 -0.9344
  144OSM   H14G15891   0.710   6.973   8.069  0.4754  0.6510 -2.8352
  144OSM   C15F15892   0.569   6.875   8.199 -0.2671  0.1288  0.0409
  144OSM   H15F15893   0.623   6.785   8.162 -0.1835  0.3222 -0.3108
  144OSM   H15G15894   0.459   6.864   8.206 -0.2823  0.4908  0.4076
  144OSM   C16F15895   0.627   6.895   8.333  0.0845 -0.1061  0.2866
  144OSM   H16F15896   0.576   6.986   8.369 -1.7106 -1.0867  0.3385
  144OSM   H16G15897   0.735   6.921   8.323  0.0774 -0.7977 -2.6374
  144OSM   C17F15898   0.608   6.787   8.439  0.3888 -0.6476 -0.1232
  144OSM   H17F15899   0.659   6.695   8.405 -0.2144 -1.0447  0.0403
  144OSM   H17G15900   0.499   6.768   8.439  0.1809  0.4210 -1.0216
  144OSM   C18F15901   0.666   6.834   8.575  0.5045  0.4815  0.3643
  144OSM   H18F15902   0.614   6.919   8.622  1.2665 -0.2531  2.7203
  144OSM   H18G15903   0.778   6.836   8.576  0.5481 -0.9236  0.8550
  144OSM   H18H15904   0.652   6.750   8.647 -1.4249  0.0444 -0.4621
  145SAPE     N15905   2.783   6.763  10.438  0.8295 -0.3178  0.1918
  145SAPE   HN115906   2.834   6.675  10.459  1.7475 -0.2669 -1.6147
  145SAPE   HN215907   2.858   6.824  10.399  2.4016 -1.1103  1.8432
  145SAPE   HN315908   2.766   6.823  10.521  0.7209  0.7964 -0.6007
  145SAPE   C1215909   2.670   6.749  10.346  0.2961 -0.8172  0.0204
  145SAPE  H12A15910   2.580   6.717  10.403 -0.3902 -0.2800 -0.7442
  145SAPE  H12B15911   2.696   6.663  10.281  1.7586 -0.7533  0.4881
  145SAPE   C1115912   2.634   6.884  10.269  0.4173  0.0016  0.9594
  145SAPE  H11A15913   2.582   6.851  10.176 -1.0292 -3.3051  2.7948
  145SAPE  H11B15914   2.724   6.942  10.238 -0.6168  1.4735  0.5930
  145SAPE     P15915   2.617   7.064  10.456 -0.4827 -0.2850 -0.0169
  145SAPE   O1315916   2.512   7.140  10.530  0.3179 -0.6791 -0.1331
  145SAPE   O1415917   2.713   6.992  10.540  0.0344  0.6189  0.5591
  145SAPE   O1215918   2.552   6.973  10.342 -0.1652 -0.3399  0.0612
  145SAPE   O1115919   2.702   7.157  10.365  0.3980  0.2905 -0.2757
  145SAPE    C115920   2.680   7.300  10.352 -0.2509 -1.0980 -0.0462
  145SAPE    HA15921   2.575   7.327  10.373 -0.3600 -1.9179  0.5262
  145SAPE    HB15922   2.746   7.346  10.428 -1.4064 -0.9671  0.8925
  145SAPE    C215923   2.727   7.350  10.213  0.7504 -0.0677 -0.0976
  145SAPE    HS15924   2.698   7.456  10.202  1.8903  0.0688 -2.5322
  145SAPE   O2115925   2.675   7.262  10.107  0.2840  0.1819 -0.0298
  145SAPE   C2115926   2.544   7.254  10.110 -0.0160 -0.2862  0.2568
  145SAPE   O2215927   2.464   7.322  10.166 -0.0728 -0.2660 -0.1464
  145SAPE   C2215928   2.505   7.145  10.005 -0.3150 -0.7358 -0.2913
  145SAPE   H2R15929   2.498   7.194   9.906 -1.4996 -3.0722 -1.4349
  145SAPE   H2S15930   2.593   7.076  10.010  0.1123 -0.1285  2.5123
  145SAPE    C315931   2.879   7.360  10.191 -0.5776 -0.5301  0.6459
  145SAPE    HX15932   2.937   7.266  10.207 -1.4966 -1.1664  0.2604
  145SAPE    HY15933   2.915   7.433  10.268 -2.2271  0.2314  0.7315
  145SAPE   O3115934   2.904   7.423  10.060 -0.1499 -0.3044  0.1366
  145SAPE   C3115935   2.939   7.342   9.964  0.1398 -0.2914  0.0222
  145SAPE   O3215936   2.980   7.229   9.973  0.1881 -0.0013 -0.1439
  145SAPE   C3215937   2.951   7.436   9.846  0.3342 -0.6082  0.0102
  145SAPE   H2X15938   3.000   7.531   9.875  2.4968 -0.8567 -2.4374
  145SAPE   H2Y15939   2.849   7.474   9.821  0.5140  1.3746  2.0213
  145SAPE   C2315940   2.378   7.070  10.047 -0.3085  0.5346 -0.0482
  145SAPE   H3R15941   2.370   7.069  10.158  2.6570 -1.0215  0.2655
  145SAPE   H3S15942   2.384   6.968  10.004  0.7535  0.2046  0.8143
  145SAPE   C2415943   2.258   7.130   9.976  0.1463 -0.0188  0.9051
  145SAPE   H4R15944   2.290   7.130   9.870  0.8203 -1.3123  1.0889
  145SAPE   H4S15945   2.250   7.238  10.003 -0.5138 -0.0812  0.9720
  145SAPE   C2515946   2.121   7.074  10.002  0.5365  0.3483 -0.7800
  145SAPE   H5R15947   2.106   7.015  10.094 -1.9824  0.6194 -0.9530
  145SAPE   C2615948   2.015   7.092   9.924  0.2018  0.8124  0.1524
  145SAPE   H6R15949   1.919   7.052   9.959  0.7527 -0.3997  0.3172
  145SAPE   C2715950   2.002   7.181   9.803  0.5157  0.6754  0.4131
  145SAPE   H7R15951   1.961   7.111   9.728  0.7532 -1.3218  2.0635
  145SAPE   H7S15952   2.101   7.221   9.770  1.7022 -0.6502  2.1253
  145SAPE   C2815953   1.909   7.295   9.836  0.2601 -0.2712 -0.1974
  145SAPE   H8R15954   1.891   7.296   9.945 -0.5098  0.6841 -0.3229
  145SAPE   C2915955   1.868   7.393   9.753 -0.3292 -0.5435  0.0587
  145SAPE   H9R15956   1.805   7.472   9.797 -1.4824 -0.9872 -0.7468
  145SAPE  C21015957   1.901   7.392   9.600 -0.4085  0.2931 -0.0169
  145SAPE  H10R15958   1.993   7.331   9.587 -0.7957 -0.6835  1.5142
  145SAPE  H10S15959   1.922   7.498   9.574  0.8230  0.0174 -0.1845
  145SAPE  C21115960   1.797   7.322   9.517  0.4164 -0.5579 -0.2172
  145SAPE  H11R15961   1.759   7.223   9.545 -0.6096  0.1243  0.9096
  145SAPE  C21215962   1.740   7.370   9.404 -0.2254  0.9690  0.4387
  145SAPE  H12R15963   1.670   7.303   9.353  0.6958  1.3738 -1.4174
  145SAPE  C21315964   1.755   7.507   9.336 -0.1698 -0.2089 -0.3175
  145SAPE  H13R15965   1.857   7.541   9.305 -1.4746  1.9354 -2.6140
  145SAPE  H13S15966   1.730   7.577   9.418  1.9007  0.2614 -0.0222
  145SAPE  C21415967   1.667   7.525   9.217  0.1650  0.4506  0.4139
  145SAPE  H14R15968   1.560   7.525   9.242  0.1942  0.8310  0.5562
  145SAPE  C21515969   1.702   7.537   9.087 -0.2949 -0.0129 -0.1274
  145SAPE  H15R15970   1.627   7.561   9.011  1.2164  0.9249 -1.3941
  145SAPE  C21615971   1.846   7.546   9.029  0.4257 -1.1570 -0.0842
  145SAPE  H16R15972   1.924   7.521   9.105 -1.5399 -2.6849  1.5550
  145SAPE  H16S15973   1.863   7.651   9.000 -0.2994 -1.1292 -0.4336
  145SAPE  C21715974   1.853   7.446   8.908  0.1695 -0.9451 -0.7397
  145SAPE  H17R15975   1.785   7.480   8.828  0.5772 -1.2362 -1.2134
  145SAPE  H17S15976   1.828   7.347   8.953 -1.9295  1.4708  4.1639
  145SAPE  C21815977   1.992   7.442   8.844  0.1652 -0.3874 -0.4979
  145SAPE  H18R15978   2.031   7.545   8.831 -1.1355 -0.0404 -2.0236
  145SAPE  H18S15979   1.976   7.405   8.741  1.3514 -2.4448  0.0151
  145SAPE  C21915980   2.095   7.350   8.911  0.4988 -0.3185  0.0998
  145SAPE  H19R15981   2.053   7.253   8.943  2.1944 -0.8089  0.9342
  145SAPE  H19S15982   2.123   7.391   9.010 -0.7517 -1.1246  0.8108
  145SAPE  C22015983   2.222   7.315   8.826  0.3861 -0.2049 -0.4729
  145SAPE  H20R15984   2.183   7.259   8.738 -1.4887 -1.3645  1.0183
  145SAPE  H20S15985   2.297   7.249   8.875  1.1076  0.0269 -1.2460
  145SAPE  H20T15986   2.277   7.408   8.800 -2.5175  1.3604 -1.3601
  145SAPE   C3315987   3.022   7.376   9.727  0.4660 -0.8997  0.1777
  145SAPE   H3X15988   2.986   7.272   9.715 -0.4809 -0.8932  2.5412
  145SAPE   H3Y15989   3.130   7.355   9.741  0.0182 -0.7856  5.6853
  145SAPE   C3415990   2.997   7.456   9.596 -0.0447  0.1278  0.3549
  145SAPE   H4X15991   3.041   7.557   9.613 -0.3749  0.1333  1.2741
  145SAPE   H4Y15992   2.890   7.466   9.570  0.3038  0.5104 -1.0282
  145SAPE   C3515993   3.053   7.388   9.471 -0.4558  0.2429 -0.2943
  145SAPE   H5X15994   2.977   7.307   9.459 -3.0615  2.4262  0.3654
  145SAPE   H5Y15995   3.146   7.335   9.499 -1.4949 -1.0098  0.9850
  145SAPE   C3615996   3.057   7.479   9.348 -0.9346  0.1089 -0.3518
  145SAPE   H6X15997   3.132   7.560   9.359  1.0961 -1.6026 -0.9186
  145SAPE   H6Y15998   2.963   7.538   9.354 -0.9634 -0.0616  1.6754
  145SAPE   C3715999   3.077   7.420   9.212 -0.1526 -0.1807 -0.2684
  145SAPE   H7X16000   3.086   7.503   9.139 -1.2371  0.1707 -0.0135
  145SAPE   H7Y16001   2.994   7.354   9.181 -0.8300  0.6582 -0.2767
  145SAPE   C3816002   3.215   7.350   9.203 -0.4913 -0.7789 -0.5218
  145SAPE   H8X16003   3.274   7.415   9.272 -1.0931  0.7672 -1.4191
  145SAPE   H8Y16004   3.272   7.378   9.113  1.0825 -3.0505 -0.3292
  145SAPE   C3916005   3.226   7.202   9.227  0.3061 -0.5263 -0.0636
  145SAPE   H9X16006   3.166   7.181   9.318 -2.6384 -1.6887 -2.0926
  145SAPE   H9Y16007   3.333   7.173   9.236  0.7367  1.0083 -0.1122
  145SAPE  C31016008   3.158   7.101   9.131 -0.3132 -0.2587 -0.0286
  145SAPE  H10X16009   3.048   7.105   9.135 -0.3293 -1.5785  1.7709
  145SAPE  H10Y16010   3.184   6.999   9.166  1.6999  0.4044  0.5840
  145SAPE  C31116011   3.184   7.125   8.983 -0.0308 -0.6317 -0.0434
  145SAPE  H11X16012   3.294   7.136   8.968 -0.2878  0.7221 -1.2032
  145SAPE  H11Y16013   3.145   7.228   8.965  0.5506 -0.5016 -0.6344
  145SAPE  C31216014   3.138   7.005   8.891  0.1364 -0.5967  0.0183
  145SAPE  H12X16015   3.030   6.991   8.914 -0.2660  1.1203 -0.6791
  145SAPE  H12Y16016   3.179   6.907   8.922 -1.5362 -0.9226  1.3534
  145SAPE  C31316017   3.146   7.036   8.745 -0.1217 -0.5698 -0.1233
  145SAPE  H13X16018   3.110   7.140   8.736 -0.1253 -0.3455  2.1060
  145SAPE  H13Y16019   3.075   6.972   8.688  0.5820 -1.7186  0.2397
  145SAPE  C31416020   3.288   7.016   8.676  0.0283  0.3346 -0.5331
  145SAPE  H14X16021   3.313   6.908   8.690 -0.0951  0.4345  0.5401
  145SAPE  H14Y16022   3.364   7.075   8.732 -0.5912  0.1021  0.5971
  145SAPE  C31516023   3.295   7.057   8.537  0.4019  0.2212  0.4151
  145SAPE  H15X16024   3.272   7.166   8.533  3.6343  1.0380  1.1430
  145SAPE  H15Y16025   3.228   6.998   8.470  1.1371 -0.1274 -0.0289
  145SAPE  C31616026   3.435   7.036   8.471 -0.8167 -0.4845  0.2916
  145SAPE  H16X16027   3.468   6.931   8.483  0.7286  0.0924  1.4811
  145SAPE  H16Y16028   3.510   7.088   8.536  0.2850 -1.1292 -0.4317
  145SAPE  C31716029   3.464   7.087   8.329 -0.7929 -0.0095 -0.6761
  145SAPE  H17X16030   3.559   7.145   8.327 -0.7416  0.1237  1.7833
  145SAPE  H17Y16031   3.383   7.152   8.288 -1.7996 -1.1451 -0.5537
  145SAPE  C31816032   3.498   6.973   8.233 -0.5345  0.0035  0.0237
  145SAPE  H18X16033   3.587   6.920   8.272 -0.7990 -0.4892 -0.0393
  145SAPE  H18Y16034   3.507   7.013   8.130 -1.3082 -3.2893 -1.4320
  145SAPE  H18Z16035   3.415   6.900   8.244  0.0016 -0.4145  1.6293
  146SAPE     N16036   0.478   1.335  10.880  0.4166 -0.2796 -0.2728
  146SAPE   HN116037   0.518   1.259  10.940 -0.8888  0.0980  1.1209
  146SAPE   HN216038   0.505   1.427  10.919 -0.5923  0.2817 -0.8772
  146SAPE   HN316039   0.376   1.335  10.896  0.3395  1.2635 -0.5929
  146SAPE   C1216040   0.535   1.334  10.737  0.3710  0.7695  0.4449
  146SAPE  H12A16041   0.510   1.231  10.705 -0.1751  0.8560  0.5792
  146SAPE  H12B16042   0.645   1.345  10.747  0.8880 -1.1719 -2.1412
  146SAPE   C1116043   0.476   1.443  10.635 -0.1347 -0.0805  0.3310
  146SAPE  H11A16044   0.371   1.410  10.626 -0.5792  0.5467  2.4768
  146SAPE  H11B16045   0.530   1.436  10.538 -2.2373  1.7642 -1.0695
  146SAPE     P16046   0.405   1.701  10.626 -0.0070 -0.0853 -0.0158
  146SAPE   O1316047   0.285   1.699  10.706 -0.0795  0.2608  0.2039
  146SAPE   O1416048   0.481   1.827  10.639 -0.8254  0.1204 -0.3365
  146SAPE   O1216049   0.487   1.581  10.675 -0.1061 -0.2669  0.7307
  146SAPE   O1116050   0.363   1.682  10.476 -0.8950  0.4045  0.2163
  146SAPE    C116051   0.462   1.656  10.376 -0.1569  0.2209 -0.3723
  146SAPE    HA16052   0.557   1.704  10.408  0.0004 -0.8006  0.7561
  146SAPE    HB16053   0.487   1.549  10.363  0.0091  0.1492  0.4862
  146SAPE    C216054   0.425   1.723  10.236  0.1358 -0.2310  0.4941
  146SAPE    HS16055   0.405   1.829  10.262 -0.1805 -0.2395  0.2912
  146SAPE   O2116056   0.317   1.657  10.173  0.0730  0.4575 -0.2704
  146SAPE   C2116057   0.227   1.744  10.127 -0.1742  0.1208 -0.5768
  146SAPE   O2216058   0.232   1.863  10.135  0.3403 -0.2781 -0.3274
  146SAPE   C2216059   0.116   1.662  10.055 -1.1465  0.2927 -0.0007
  146SAPE   H2R16060   0.160   1.597   9.976  0.6662  2.7162 -1.1297
  146SAPE   H2S16061   0.071   1.600  10.135  0.4820 -1.0242 -0.0469
  146SAPE    C316062   0.553   1.716  10.146  0.4360 -0.1316  0.0014
  146SAPE    HX16063   0.583   1.609  10.154 -1.7817 -0.8711 -0.9344
  146SAPE    HY16064   0.631   1.779  10.194 -1.5594  1.5297  1.2395
  146SAPE   O3116065   0.540   1.755  10.008  0.3597  0.4598 -0.0006
  146SAPE   C3116066   0.517   1.887  10.000 -0.3501 -0.2510  0.2689
  146SAPE   O3216067   0.532   1.979  10.082 -0.1894  0.5407  0.0401
  146SAPE   C3216068   0.477   1.913   9.854 -0.5120 -0.1002 -0.2553
  146SAPE   H2X16069   0.382   1.857   9.838 -0.7488  0.4953 -1.0151
  146SAPE   H2Y16070   0.540   1.846   9.792 -2.1392 -0.2600 -1.8298
  146SAPE   C2316071   0.011   1.752   9.980  0.0161  0.0862  0.3160
  146SAPE   H3R16072  -0.039   1.826  10.047 -0.6647  0.6281 -0.7686
  146SAPE   H3S16073  -0.067   1.681   9.945 -0.0810 -0.2071  1.1090
  146SAPE   C2416074   0.073   1.822   9.849  0.7286  0.0563 -0.0155
  146SAPE   H4R16075   0.126   1.745   9.789  0.6154  1.5539 -2.1545
  146SAPE   H4S16076   0.150   1.895   9.881  4.3117 -2.6399 -1.8519
  146SAPE   C2516077  -0.042   1.879   9.773  0.2346  0.8502 -0.6929
  146SAPE   H5R16078  -0.115   1.925   9.841 -0.8522  0.6185 -1.6627
  146SAPE   C2616079  -0.048   1.889   9.641 -0.3902 -0.5614 -0.5669
  146SAPE   H6R16080  -0.139   1.927   9.592 -0.1233 -0.7985 -1.2615
  146SAPE   C2716081   0.063   1.842   9.543  0.1586 -0.2166 -0.6243
  146SAPE   H7R16082   0.034   1.743   9.503 -1.4061  0.2465 -0.6913
  146SAPE   H7S16083   0.163   1.836   9.592  0.4305 -0.9781 -1.2627
  146SAPE   C2816084   0.084   1.946   9.435  0.6549  0.1724 -0.1888
  146SAPE   H8R16085   0.100   2.048   9.471 -3.4963  1.2412 -0.8107
  146SAPE   C2916086   0.090   1.942   9.293  0.1409  0.4749 -0.6111
  146SAPE   H9R16087   0.109   2.031   9.232  1.3285 -0.4547 -1.6524
  146SAPE  C21016088   0.068   1.814   9.215 -0.2142  0.1318  0.4894
  146SAPE  H10R16089   0.024   1.841   9.116 -1.1507 -1.5699  0.4096
  146SAPE  H10S16090  -0.007   1.754   9.270  0.9731 -1.2901  0.6251
  146SAPE  C21116091   0.192   1.731   9.209  0.7523  0.4042 -0.0568
  146SAPE  H11R16092   0.219   1.689   9.307 -1.2009  1.9978  1.2296
  146SAPE  C21216093   0.264   1.699   9.097 -0.4637 -0.1538  0.0974
  146SAPE  H12R16094   0.347   1.628   9.110  2.3211  3.0019  0.8607
  146SAPE  C21316095   0.233   1.746   8.961 -0.7942  0.1024  0.0817
  146SAPE  H13R16096   0.268   1.850   8.947  0.6698 -0.6055 -2.0844
  146SAPE  H13S16097   0.123   1.751   8.946 -0.6436 -0.8997 -1.7441
  146SAPE  C21416098   0.273   1.658   8.848  0.1809  1.0495 -0.2428
  146SAPE  H14R16099   0.273   1.551   8.873  0.4801  0.6191 -1.9534
  146SAPE  C21516100   0.292   1.692   8.713  0.0510 -0.1870 -0.0603
  146SAPE  H15R16101   0.304   1.609   8.643  1.2236 -0.0977  0.0152
  146SAPE  C21616102   0.272   1.831   8.653 -0.0707  0.0841  0.6430
  146SAPE  H16R16103   0.355   1.856   8.584 -1.0908 -0.0676 -0.6633
  146SAPE  H16S16104   0.279   1.906   8.735  0.0329  0.6955  0.0829
  146SAPE  C21716105   0.137   1.852   8.586  0.0235  0.2873 -0.3487
  146SAPE  H17R16106   0.060   1.827   8.662  2.0530 -2.0257  1.0975
  146SAPE  H17S16107   0.127   1.772   8.509 -0.3093 -0.5205  0.5182
  146SAPE  C21816108   0.124   1.997   8.542  0.3318  0.1434 -0.1160
  146SAPE  H18R16109   0.196   2.017   8.460  1.0625 -0.6153  0.3258
  146SAPE  H18S16110   0.157   2.066   8.623  0.5320  0.0933 -0.1567
  146SAPE  C21916111  -0.018   2.034   8.501  0.6333  0.5370  0.5428
  146SAPE  H19R16112  -0.091   2.018   8.583  0.9408  0.8112  0.8693
  146SAPE  H19S16113  -0.041   1.959   8.421  2.9481  0.7827 -0.4157
  146SAPE  C22016114  -0.036   2.180   8.458  0.8166  0.1795 -0.0509
  146SAPE  H20R16115   0.040   2.199   8.379 -2.2202 -1.5160 -3.7364
  146SAPE  H20S16116  -0.013   2.244   8.546 -1.0080 -0.6095  1.0507
  146SAPE  H20T16117  -0.139   2.186   8.417 -0.0308  0.3864  1.9957
  146SAPE   C3316118   0.465   2.051   9.788  0.4950 -0.0617  0.2655
  146SAPE   H3X16119   0.559   2.110   9.785 -0.9103  2.2767 -0.8790
  146SAPE   H3Y16120   0.399   2.119   9.845 -0.6268  0.1550 -1.2353
  146SAPE   C3416121   0.411   2.040   9.646  0.2297 -0.2363  0.6151
  146SAPE   H4X16122   0.358   2.135   9.626 -1.0181 -0.9767  0.3387
  146SAPE   H4Y16123   0.342   1.953   9.641 -0.5505  0.3385  1.4057
  146SAPE   C3516124   0.517   2.039   9.529  0.0235  0.1307 -1.1274
  146SAPE   H5X16125   0.600   1.971   9.554 -1.0625 -0.3487  1.4025
  146SAPE   H5Y16126   0.558   2.142   9.523  1.1495 -0.1550  1.0795
  146SAPE   C3616127   0.453   1.990   9.393 -0.0362  0.2498  0.0067
  146SAPE   H6X16128   0.358   2.046   9.379 -0.6145  0.1420  2.8764
  146SAPE   H6Y16129   0.423   1.884   9.404 -2.1073  0.7226 -0.7395
  146SAPE   C3716130   0.540   2.024   9.274  0.1473  0.4543  0.0169
  146SAPE   H7X16131   0.636   1.969   9.262 -1.1233 -2.0425  0.7742
  146SAPE   H7Y16132   0.566   2.131   9.292  0.6174  0.7323 -2.0478
  146SAPE   C3816133   0.463   2.016   9.147 -0.2397  0.0756 -0.2728
  146SAPE   H8X16134   0.358   2.050   9.159 -0.5185  0.2396 -2.7659
  146SAPE   H8Y16135   0.467   1.910   9.114  1.7169  0.5517 -1.7370
  146SAPE   C3916136   0.520   2.085   9.026  0.0735 -0.2472  0.1270
  146SAPE   H9X16137   0.630   2.075   9.025  0.3223  1.3939  2.8068
  146SAPE   H9Y16138   0.505   2.194   9.038 -0.3197 -0.0411 -1.8497
  146SAPE  C31016139   0.453   2.038   8.891 -0.6261  0.8017 -0.0893
  146SAPE  H10X16140   0.344   2.051   8.906 -1.2048 -0.7958 -2.3660
  146SAPE  H10Y16141   0.473   1.931   8.869  0.7568  0.8275  0.8704
  146SAPE  C31116142   0.510   2.110   8.769  0.8434  0.4877  0.3339
  146SAPE  H11X16143   0.485   2.218   8.775  0.4562  0.3946  0.4100
  146SAPE  H11Y16144   0.468   2.066   8.676  1.9639 -0.1889  0.1256
  146SAPE  C31216145   0.659   2.093   8.754  0.3578 -0.1686  0.1136
  146SAPE  H12X16146   0.695   1.995   8.791  0.8912 -0.2457 -0.5682
  146SAPE  H12Y16147   0.704   2.169   8.821  2.8892 -1.1182 -0.3686
  146SAPE  C31316148   0.725   2.094   8.613 -0.7344  0.9481 -0.7091
  146SAPE  H13X16149   0.709   2.197   8.576 -1.5019  1.5092  1.0658
  146SAPE  H13Y16150   0.678   2.021   8.543 -0.0469 -0.8808  0.6413
  146SAPE  C31416151   0.876   2.059   8.617 -0.4550  0.2653 -0.4793
  146SAPE  H14X16152   0.907   1.971   8.679  0.5230  0.1261 -1.1352
  146SAPE  H14Y16153   0.912   2.153   8.665 -1.0983  1.1694 -1.7308
  146SAPE  C31516154   0.933   2.038   8.473 -0.1266  0.7421  0.2124
  146SAPE  H15X16155   0.936   2.138   8.423  0.6870  0.6099 -0.0192
  146SAPE  H15Y16156   0.859   1.975   8.421 -0.6621  1.1367  0.4852
  146SAPE  C31616157   1.073   1.980   8.478 -0.4716 -0.4994  0.4270
  146SAPE  H16X16158   1.075   1.872   8.507 -0.4941 -0.6419 -0.0837
  146SAPE  H16Y16159   1.135   2.032   8.554 -0.9521  0.9403 -0.1300
  146SAPE  C31716160   1.149   1.990   8.345 -0.4246 -0.4631 -0.3691
  146SAPE  H17X16161   1.082   1.979   8.257 -0.2503 -0.3408 -0.5197
  146SAPE  H17Y16162   1.229   1.913   8.336  1.3739  1.2244  0.3592
  146SAPE  C31816163   1.221   2.119   8.321  0.0794 -0.1029 -0.0285
  146SAPE  H18X16164   1.313   2.130   8.382  0.7004 -1.1089 -0.7471
  146SAPE  H18Y16165   1.147   2.200   8.339 -2.0112 -2.1088  0.8745
  146SAPE  H18Z16166   1.248   2.127   8.213 -1.4500 -1.8931 -0.5925
  147SAPE     N16167   2.703   4.692  11.063  0.0149  0.0032 -0.2663
  147SAPE   HN116168   2.615   4.637  11.064 -0.2800  0.4654 -0.7102
  147SAPE   HN216169   2.760   4.676  11.149 -2.3164 -1.8841  1.0478
  147SAPE   HN316170   2.666   4.789  11.068 -0.5081 -0.2521  2.3213
  147SAPE   C1216171   2.771   4.643  10.940 -0.5612 -0.1134 -0.8807
  147SAPE  H12A16172   2.786   4.535  10.960 -0.1689  0.2597  1.0304
  147SAPE  H12B16173   2.869   4.695  10.945 -1.1738  0.9321  1.4059
  147SAPE   C1116174   2.696   4.683  10.810 -0.2605  0.0264 -0.5894
  147SAPE  H11A16175   2.603   4.622  10.812 -0.0375 -0.3154 -0.3486
  147SAPE  H11B16176   2.755   4.648  10.723  2.5302  0.5069  0.9656
  147SAPE     P16177   2.727   4.934  10.726 -0.1009 -0.3922  0.1908
  147SAPE   O1316178   2.642   5.056  10.749 -0.2383 -0.1211 -0.3165
  147SAPE   O1416179   2.869   4.928  10.747  0.5024 -0.4176 -0.2191
  147SAPE   O1216180   2.649   4.820  10.806 -0.4650  1.2463  0.2893
  147SAPE   O1116181   2.700   4.881  10.581 -0.1248 -0.0821  0.8444
  147SAPE    C116182   2.572   4.887  10.515 -0.2476  0.1483 -0.4064
  147SAPE    HA16183   2.547   4.787  10.474 -1.5434  0.6505 -0.8642
  147SAPE    HB16184   2.484   4.899  10.581 -0.3898 -0.7899 -0.4061
  147SAPE    C216185   2.576   4.986  10.396 -0.1800  0.1354 -0.2227
  147SAPE    HS16186   2.493   4.949  10.332 -0.5764  1.0572 -0.2539
  147SAPE   O2116187   2.701   4.987  10.320 -0.1561 -0.6743 -0.0536
  147SAPE   C2116188   2.733   4.875  10.260 -0.8235  0.2452 -0.6065
  147SAPE   O2216189   2.665   4.775  10.261  0.1550  0.7649  1.1019
  147SAPE   C2216190   2.859   4.901  10.174  0.1353  0.1570  0.1830
  147SAPE   H2R16191   2.931   4.952  10.242 -0.6718  0.3278  0.9338
  147SAPE   H2S16192   2.906   4.808  10.135 -2.3602 -1.3277  0.5117
  147SAPE    C316193   2.525   5.125  10.438  0.3952 -0.8371  0.4854
  147SAPE    HX16194   2.598   5.170  10.509  0.8200 -1.6604  0.5830
  147SAPE    HY16195   2.431   5.104  10.492  0.2630  1.6043  1.3589
  147SAPE   O3116196   2.491   5.203  10.319 -0.0161 -0.2043  0.0106
  147SAPE   C3116197   2.581   5.293  10.286  0.4376 -0.2517 -0.6007
  147SAPE   O3216198   2.683   5.318  10.348  0.1039  0.5544 -0.4330
  147SAPE   C3216199   2.532   5.383  10.183  0.0534 -0.2946  0.6680
  147SAPE   H2X16200   2.472   5.462  10.233 -2.0995 -0.7678 -1.0104
  147SAPE   H2Y16201   2.453   5.347  10.115 -0.8552  2.5071  0.0836
  147SAPE   C2316202   2.830   5.004  10.063 -0.3694  0.0466  0.1010
  147SAPE   H3R16203   2.928   5.039  10.023 -0.1458 -1.0390 -0.3223
  147SAPE   H3S16204   2.777   5.093  10.104 -0.8239  0.7401 -1.8796
  147SAPE   C2416205   2.744   4.960   9.950  0.6138 -0.6940  0.1030
  147SAPE   H4R16206   2.653   4.910   9.989  0.4787 -1.3807 -1.0410
  147SAPE   H4S16207   2.807   4.885   9.899  0.1290 -2.2932  1.7664
  147SAPE   C2516208   2.697   5.074   9.857 -0.2593  0.4561 -0.1022
  147SAPE   H5R16209   2.782   5.104   9.795  0.7854 -1.0988  0.5355
  147SAPE   C2616210   2.573   5.129   9.850  0.0684 -0.1474  0.9662
  147SAPE   H6R16211   2.545   5.207   9.777  0.4680  0.6851  1.6844
  147SAPE   C2716212   2.451   5.084   9.928 -0.1149  0.3908  0.4424
  147SAPE   H7R16213   2.486   5.082  10.034 -1.0140  2.7289  0.8494
  147SAPE   H7S16214   2.451   4.978   9.895  0.1747  0.3974  0.4144
  147SAPE   C2816215   2.309   5.132   9.912  0.5342 -0.5672  0.4469
  147SAPE   H8R16216   2.285   5.214   9.981  0.5887 -0.2627  0.1129
  147SAPE   C2916217   2.226   5.099   9.808 -0.3247 -0.1320 -0.1991
  147SAPE   H9R16218   2.125   5.142   9.798 -0.1381  0.2875 -0.3012
  147SAPE  C21016219   2.271   5.001   9.700  0.0943  0.0947  0.1945
  147SAPE  H10R16220   2.311   4.906   9.740  2.2607  0.2911 -1.3194
  147SAPE  H10S16221   2.359   5.039   9.644  1.5349 -3.4343 -0.2045
  147SAPE  C21116222   2.163   4.973   9.599  0.3262  0.0149 -0.0680
  147SAPE  H11R16223   2.106   4.883   9.626 -0.2120  0.7827  1.5265
  147SAPE  C21216224   2.130   5.051   9.495 -0.2326  0.1920  0.4929
  147SAPE  H12R16225   2.045   5.034   9.426 -0.1045  0.4773  0.2621
  147SAPE  C21316226   2.193   5.194   9.474  0.1653  0.4246  0.1852
  147SAPE  H13R16227   2.279   5.168   9.409 -0.4619 -0.6541 -0.2370
  147SAPE  H13S16228   2.247   5.230   9.564  2.8164 -2.1798 -0.1980
  147SAPE  C21416229   2.108   5.312   9.417 -0.7556  0.1619  0.0555
  147SAPE  H14R16230   2.039   5.356   9.491 -0.3134  2.9268 -1.0418
  147SAPE  C21516231   2.099   5.345   9.289 -0.0152  0.3950  0.7532
  147SAPE  H15R16232   2.028   5.421   9.252  0.6296  0.0020 -1.4392
  147SAPE  C21616233   2.169   5.272   9.173  0.1434  0.0826 -0.7739
  147SAPE  H16R16234   2.093   5.215   9.115  1.5398 -1.6832 -0.9450
  147SAPE  H16S16235   2.239   5.194   9.209 -1.1232 -0.6116  0.3021
  147SAPE  C21716236   2.235   5.359   9.077  0.3001  0.2095 -0.3387
  147SAPE  H17R16237   2.324   5.404   9.126 -0.3703  0.6088  0.5382
  147SAPE  H17S16238   2.167   5.440   9.040  2.2063  2.5090  0.8992
  147SAPE  C21816239   2.296   5.277   8.959  0.4690 -0.5447  0.0584
  147SAPE  H18R16240   2.216   5.226   8.902 -0.0294 -0.5778  0.7795
  147SAPE  H18S16241   2.364   5.196   8.992 -0.1097 -2.1598 -2.4437
  147SAPE  C21916242   2.369   5.367   8.861 -0.4492 -0.1004  0.8974
  147SAPE  H19R16243   2.293   5.440   8.825  1.3783  0.3949 -2.3730
  147SAPE  H19S16244   2.403   5.305   8.775  0.1443 -0.0256  1.0739
  147SAPE  C22016245   2.491   5.439   8.926 -0.0483  0.7133  0.0694
  147SAPE  H20R16246   2.465   5.502   9.014 -2.1253 -0.6491  0.5075
  147SAPE  H20S16247   2.555   5.498   8.857  3.4747 -1.3790  1.2584
  147SAPE  H20T16248   2.565   5.371   8.973  0.0475  1.2132  0.6597
  147SAPE   C3316249   2.650   5.430  10.092 -0.3264 -0.5545  0.4401
  147SAPE   H3X16250   2.705   5.342  10.052 -1.5195 -1.9920  1.8410
  147SAPE   H3Y16251   2.731   5.473  10.155 -0.4977 -0.6816  0.7493
  147SAPE   C3416252   2.617   5.539   9.987  0.0873 -0.4480  1.2105
  147SAPE   H4X16253   2.559   5.621  10.035 -0.7125  0.1034 -0.6156
  147SAPE   H4Y16254   2.553   5.493   9.910  2.0525 -0.5750 -0.4452
  147SAPE   C3516255   2.756   5.581   9.929  0.6113  0.5104  0.4246
  147SAPE   H5X16256   2.811   5.485   9.918 -1.0076 -0.5672  1.2377
  147SAPE   H5Y16257   2.809   5.647  10.001  0.8080 -0.5613  1.2909
  147SAPE   C3616258   2.739   5.652   9.793 -0.7282  0.7597 -0.2239
  147SAPE   H6X16259   2.656   5.726   9.800 -0.7481  0.7169  0.0053
  147SAPE   H6Y16260   2.706   5.585   9.711  0.9395  0.2298 -0.4915
  147SAPE   C3716261   2.867   5.721   9.751 -0.3021 -1.1766 -0.7908
  147SAPE   H7X16262   2.947   5.645   9.742  0.1408 -0.8145 -0.0301
  147SAPE   H7Y16263   2.903   5.784   9.835  0.7864 -2.7622 -0.0101
  147SAPE   C3816264   2.843   5.789   9.622  0.3661 -0.1896  0.3935
  147SAPE   H8X16265   2.752   5.852   9.614  1.6332  1.5995 -0.5997
  147SAPE   H8Y16266   2.834   5.708   9.546 -1.9387 -1.7818  2.1908
  147SAPE   C3916267   2.952   5.889   9.581  0.1142  0.2877  0.3165
  147SAPE   H9X16268   3.046   5.839   9.613  1.4479  1.9939 -0.7265
  147SAPE   H9Y16269   2.955   5.987   9.634  2.9829 -0.0463  0.9498
  147SAPE  C31016270   2.950   5.906   9.425  0.1991  0.2951  0.5078
  147SAPE  H10X16271   2.908   5.822   9.366 -0.2585  0.4884  0.5604
  147SAPE  H10Y16272   3.060   5.905   9.405  0.4407 -1.4203  1.7025
  147SAPE  C31116273   2.882   6.041   9.390 -0.0621 -0.3702  0.0713
  147SAPE  H11X16274   2.951   6.118   9.431  0.0087  0.0650 -0.8337
  147SAPE  H11Y16275   2.797   6.037   9.460  0.0314  0.5957  0.2518
  147SAPE  C31216276   2.836   6.077   9.253 -0.1511 -0.1273 -0.7880
  147SAPE  H12X16277   2.795   6.180   9.249  0.8652  0.3512  0.2421
  147SAPE  H12Y16278   2.758   6.002   9.230  1.7100 -2.3889 -0.0811
  147SAPE  C31316279   2.946   6.066   9.152 -1.3951  0.3982 -0.2485
  147SAPE  H13X16280   2.971   5.964   9.115  1.7435  0.9773  0.0456
  147SAPE  H13Y16281   3.043   6.095   9.199 -1.5665  1.5190 -0.5664
  147SAPE  C31416282   2.926   6.169   9.042  0.0300  0.9419  0.2164
  147SAPE  H14X16283   2.964   6.272   9.058  1.3650  0.3941  0.6801
  147SAPE  H14Y16284   2.819   6.194   9.025 -1.1335 -2.5094  1.6814
  147SAPE  C31516285   2.982   6.119   8.905 -0.4754 -0.0170 -0.1887
  147SAPE  H15X16286   2.942   6.018   8.885 -1.1423  0.4026 -1.0947
  147SAPE  H15Y16287   3.093   6.118   8.915 -0.3409  0.0444 -1.4371
  147SAPE  C31616288   2.970   6.216   8.790 -0.0788 -0.1977  0.0055
  147SAPE  H16X16289   3.007   6.317   8.817 -0.7954  0.3814 -1.1114
  147SAPE  H16Y16290   2.863   6.228   8.762 -0.2109 -1.3219 -0.0039
  147SAPE  C31716291   3.047   6.175   8.663 -0.7070  0.0776  0.2416
  147SAPE  H17X16292   3.140   6.123   8.693  0.3970  1.2122 -1.0621
  147SAPE  H17Y16293   3.087   6.257   8.600 -0.6124 -0.3516 -0.2688
  147SAPE  C31816294   2.967   6.065   8.585 -0.2136  0.3499  0.1007
  147SAPE  H18X16295   2.945   5.972   8.642  1.7521 -1.2442 -1.5717
  147SAPE  H18Y16296   3.018   6.038   8.490  1.2350  0.3905  0.8444
  147SAPE  H18Z16297   2.867   6.112   8.572 -1.1098 -1.0899  1.5023
  148SAPE     N16298   4.091   4.913  10.696 -0.0777 -0.4058  0.0450
  148SAPE   HN116299   4.061   4.941  10.600  3.2492  0.2084 -0.9471
  148SAPE   HN216300   4.018   4.867  10.754  0.0447  0.4278  0.8809
  148SAPE   HN316301   4.115   4.992  10.760  0.7910  1.5664 -2.5286
  148SAPE   C1216302   4.206   4.819  10.675  0.1367 -0.4288 -0.1529
  148SAPE  H12A16303   4.213   4.754  10.765  0.6016 -0.6075 -0.3185
  148SAPE  H12B16304   4.294   4.886  10.664 -1.1077  2.3825  4.2119
  148SAPE   C1116305   4.170   4.731  10.554  0.2730  0.4284  0.6239
  148SAPE  H11A16306   4.180   4.787  10.458  2.0825 -1.9710 -0.7349
  148SAPE  H11B16307   4.076   4.673  10.557 -0.0013  0.8600  0.4446
  148SAPE     P16308   4.281   4.488  10.525  0.1860  0.1741  0.0053
  148SAPE   O1316309   4.190   4.434  10.626  0.0421 -0.2123  0.9796
  148SAPE   O1416310   4.254   4.446  10.388  0.7094 -0.1935  0.3689
  148SAPE   O1216311   4.282   4.644  10.534 -0.1518  0.8205 -0.0596
  148SAPE   O1116312   4.430   4.437  10.561 -0.0999 -0.1767  0.6887
  148SAPE    C116313   4.534   4.538  10.581  0.0567 -0.4451  0.1217
  148SAPE    HA16314   4.501   4.629  10.636  0.5108 -0.2465  0.0659
  148SAPE    HB16315   4.615   4.482  10.632  0.6195 -0.4114 -0.7247
  148SAPE    C216316   4.574   4.583  10.432 -0.3465  0.3110 -0.3460
  148SAPE    HS16317   4.494   4.655  10.405  0.4868  1.5055  0.2781
  148SAPE   O2116318   4.579   4.471  10.338 -0.4899 -0.6402 -0.1024
  148SAPE   C2116319   4.551   4.510  10.215 -0.2668  0.0514 -0.2919
  148SAPE   O2216320   4.484   4.609  10.188  0.1650 -0.3745 -0.4051
  148SAPE   C2216321   4.605   4.411  10.110 -0.6591 -0.0575  1.0083
  148SAPE   H2R16322   4.660   4.327  10.159  1.6449  0.2822 -0.8161
  148SAPE   H2S16323   4.524   4.362  10.052  0.4203  0.8192 -1.3762
  148SAPE    C316324   4.714   4.660  10.433  0.9671  0.1528 -0.2654
  148SAPE    HX16325   4.785   4.584  10.474  1.1491 -0.7058 -2.0751
  148SAPE    HY16326   4.716   4.745  10.504  0.4929 -0.9711  1.1637
  148SAPE   O3116327   4.743   4.700  10.297  0.2432 -0.2970  0.0054
  148SAPE   C3116328   4.795   4.823  10.291  0.3849  0.2523  1.6316
  148SAPE   O3216329   4.830   4.896  10.375  0.2694 -0.0175 -0.4603
  148SAPE   C3216330   4.817   4.860  10.140  0.0008 -0.3887  0.1212
  148SAPE   H2X16331   4.719   4.844  10.090 -0.0984 -1.4245  0.6276
  148SAPE   H2Y16332   4.883   4.783  10.096 -0.2626  0.0840 -1.1600
  148SAPE   C2316333   4.702   4.485  10.007 -0.3044  0.6505 -0.2020
  148SAPE   H3R16334   4.799   4.431  10.002  0.1386  1.5014 -0.8973
  148SAPE   H3S16335   4.739   4.583  10.044  1.9939 -1.0858  2.5578
  148SAPE   C2416336   4.643   4.481   9.868 -0.7108 -0.4271 -0.0183
  148SAPE   H4R16337   4.546   4.531   9.891 -1.3311  0.1433 -3.4132
  148SAPE   H4S16338   4.620   4.381   9.824 -2.0486  0.2208 -0.8607
  148SAPE   C2516339   4.731   4.559   9.767 -0.8189  0.0581  0.5208
  148SAPE   H5R16340   4.769   4.651   9.814 -0.9050  0.5849 -0.4240
  148SAPE   C2616341   4.755   4.539   9.633  0.4741 -0.1019  0.2581
  148SAPE   H6R16342   4.818   4.613   9.582  1.4860 -0.1778  1.3412
  148SAPE   C2716343   4.706   4.425   9.549 -0.4751  0.2651  0.5174
  148SAPE   H7R16344   4.657   4.468   9.459 -0.0200  0.6065  0.4288
  148SAPE   H7S16345   4.620   4.379   9.602 -0.6736 -1.0867 -0.9123
  148SAPE   C2816346   4.827   4.334   9.518 -0.2613 -0.5441  0.1309
  148SAPE   H8R16347   4.906   4.316   9.593 -0.0329  0.1595  0.0712
  148SAPE   C2916348   4.829   4.260   9.400 -0.2293  0.2469  0.7165
  148SAPE   H9R16349   4.917   4.198   9.376  0.5751  1.4362  0.5157
  148SAPE  C21016350   4.733   4.260   9.288  0.9921 -0.1303  0.5660
  148SAPE  H10R16351   4.656   4.338   9.308 -1.2308 -1.6368 -1.4335
  148SAPE  H10S16352   4.672   4.167   9.282 -2.3493  1.7897  1.8746
  148SAPE  C21116353   4.768   4.284   9.144  0.2521 -0.0908  0.7516
  148SAPE  H11R16354   4.770   4.192   9.083  0.7906  0.8356 -0.6756
  148SAPE  C21216355   4.780   4.399   9.082  0.3504  0.3465  0.2027
  148SAPE  H12R16356   4.802   4.402   8.974 -1.3377 -2.8437 -0.3337
  148SAPE  C21316357   4.763   4.535   9.155  0.0937  0.3204  0.1273
  148SAPE  H13R16358   4.833   4.597   9.094  1.2190 -1.3045 -0.3041
  148SAPE  H13S16359   4.817   4.536   9.252  2.7292 -0.6638 -1.2304
  148SAPE  C21416360   4.619   4.583   9.150 -0.2901 -0.1031  0.1368
  148SAPE  H14R16361   4.558   4.540   9.231  1.0075  1.0820  1.8216
  148SAPE  C21516362   4.567   4.666   9.052  0.2298 -0.1388 -0.1053
  148SAPE  H15R16363   4.464   4.704   9.053 -0.9425 -2.9750 -0.7632
  148SAPE  C21616364   4.646   4.726   8.937 -0.1629  0.6937 -0.3141
  148SAPE  H16R16365   4.578   4.734   8.850  0.4516 -0.1268 -0.8836
  148SAPE  H16S16366   4.725   4.654   8.904  0.7787  1.9155 -0.8121
  148SAPE  C21716367   4.720   4.860   8.975  0.0490 -0.7624 -0.4820
  148SAPE  H17R16368   4.797   4.834   9.051 -1.9387 -2.8379  0.9855
  148SAPE  H17S16369   4.644   4.928   9.018 -0.4115 -1.1008 -0.7397
  148SAPE  C21816370   4.767   4.922   8.842 -0.1976  0.3543  0.4948
  148SAPE  H18R16371   4.679   4.978   8.803  0.6735  0.2713 -1.7449
  148SAPE  H18S16372   4.780   4.839   8.769  0.0222 -0.5626  1.5385
  148SAPE  C21916373   4.886   5.017   8.842 -0.2753 -0.0082  0.0263
  148SAPE  H19R16374   4.909   5.060   8.742  1.4487  2.8773  1.5192
  148SAPE  H19S16375   4.982   4.964   8.858  0.1145  0.0062 -2.0119
  148SAPE  C22016376   4.875   5.132   8.934  0.1532  0.1909 -0.1790
  148SAPE  H20R16377   4.970   5.188   8.952  1.0390 -2.0020  2.9263
  148SAPE  H20S16378   4.840   5.091   9.032  1.3172 -4.9740 -1.6316
  148SAPE  H20T16379   4.788   5.192   8.900 -2.1592 -2.6676  0.2976
  148SAPE   C3316380   4.871   5.001  10.119  0.3313 -0.1120 -0.5341
  148SAPE   H3X16381   4.947   5.018  10.198 -2.4280  1.8167  1.9279
  148SAPE   H3Y16382   4.799   5.086  10.124 -0.1147 -0.4981 -0.2650
  148SAPE   C3416383   4.945   5.007   9.984 -0.3427  0.0674  0.4303
  148SAPE   H4X16384   4.999   4.910   9.982 -2.4817 -1.2651  2.5885
  148SAPE   H4Y16385   5.004   5.101   9.993 -1.9093  1.1042  0.2458
  148SAPE   C3516386   4.855   5.028   9.862 -0.3070 -0.0368 -0.2216
  148SAPE   H5X16387   4.822   5.134   9.863  1.5311  0.6282 -2.5502
  148SAPE   H5Y16388   4.762   4.967   9.864  0.8090 -1.8500 -0.9227
  148SAPE   C3616389   4.926   5.012   9.726  0.1881  0.0614 -0.1275
  148SAPE   H6X16390   4.965   4.910   9.706  1.7192  0.6004 -0.0391
  148SAPE   H6Y16391   5.022   5.068   9.720  0.7831 -0.7812  1.1033
  148SAPE   C3716392   4.830   5.046   9.610  0.0139  0.9270 -0.0827
  148SAPE   H7X16393   4.755   5.123   9.637  0.2807  1.4688 -0.8489
  148SAPE   H7Y16394   4.780   4.949   9.590  0.2199  0.8923 -0.4460
  148SAPE   C3816395   4.908   5.077   9.476 -0.1178  0.6396 -0.0112
  148SAPE   H8X16396   4.982   4.997   9.456 -1.5724 -0.4414 -1.3655
  148SAPE   H8Y16397   4.973   5.165   9.494 -0.1889  0.2760  2.2879
  148SAPE   C3916398   4.817   5.073   9.349  0.2275 -0.8693  0.1731
  148SAPE   H9X16399   4.789   4.972   9.313 -0.9553  0.6249 -3.7128
  148SAPE   H9Y16400   4.876   5.113   9.263  1.7459 -0.3947  1.3770
  148SAPE  C31016401   4.702   5.173   9.366 -0.3023 -1.2554 -0.0674
  148SAPE  H10X16402   4.731   5.264   9.422 -0.7924  0.0576 -1.8524
  148SAPE  H10Y16403   4.618   5.124   9.420 -2.2780  2.1540  0.2691
  148SAPE  C31116404   4.641   5.217   9.227  0.4093  0.4816 -0.5292
  148SAPE  H11X16405   4.651   5.137   9.151  0.2838 -1.1418  1.0820
  148SAPE  H11Y16406   4.716   5.292   9.195  0.4242  0.4408 -0.5895
  148SAPE  C31216407   4.502   5.262   9.239  0.6872  1.0340  0.0486
  148SAPE  H12X16408   4.495   5.336   9.321  1.1193  2.1978 -0.9371
  148SAPE  H12Y16409   4.444   5.174   9.275  1.1352  1.5804  2.2569
  148SAPE  C31316410   4.441   5.301   9.101  0.3317 -0.4388  0.3628
  148SAPE  H13X16411   4.491   5.394   9.068  0.7193 -1.2475 -1.4689
  148SAPE  H13Y16412   4.332   5.322   9.110  0.0581  0.0658 -3.0681
  148SAPE  C31416413   4.463   5.206   8.980 -0.0722  0.6695 -0.0739
  148SAPE  H14X16414   4.454   5.098   9.004 -0.2446  0.5361 -0.7212
  148SAPE  H14Y16415   4.567   5.233   8.954  0.2319 -0.1977  0.2095
  148SAPE  C31516416   4.382   5.250   8.857  0.2486  0.2044 -0.5170
  148SAPE  H15X16417   4.402   5.356   8.831  2.3169 -0.0470 -0.0772
  148SAPE  H15Y16418   4.277   5.249   8.895  0.2092 -0.3106 -0.6270
  148SAPE  C31616419   4.393   5.153   8.744  0.0275  0.3550  0.6482
  148SAPE  H16X16420   4.382   5.047   8.773 -0.1691  0.1848 -0.0323
  148SAPE  H16Y16421   4.499   5.163   8.715 -0.0562 -1.8528 -0.6323
  148SAPE  C31716422   4.309   5.192   8.619  0.0955  1.1910 -0.3520
  148SAPE  H17X16423   4.347   5.146   8.524 -0.5269  1.3263 -0.6694
  148SAPE  H17Y16424   4.315   5.302   8.607 -2.3781  1.4025 -0.1166
  148SAPE  C31816425   4.160   5.159   8.631 -0.6871  0.0712 -0.1864
  148SAPE  H18X16426   4.116   5.204   8.723 -0.9774  1.7962 -1.1136
  148SAPE  H18Y16427   4.152   5.050   8.648 -0.8554  0.2196  0.7878
  148SAPE  H18Z16428   4.106   5.194   8.540 -0.8342 -0.6254 -0.3671
  149SAPE     N16429   5.941   2.419  10.721  0.1201  0.8100 -0.3532
  149SAPE   HN116430   6.022   2.400  10.784 -1.2183 -0.9458  0.9172
  149SAPE   HN216431   5.922   2.520  10.705 -1.4921  0.8633  1.5230
  149SAPE   HN316432   5.851   2.379  10.755 -0.1464  0.7461 -1.1277
  149SAPE   C1216433   5.989   2.356  10.595  0.0376  0.4648 -0.6006
  149SAPE  H12A16434   6.081   2.406  10.559  1.1026 -0.2565  0.9928
  149SAPE  H12B16435   5.904   2.373  10.525  0.4298 -0.3505 -1.2974
  149SAPE   C1116436   6.017   2.209  10.638  0.1621 -0.3649 -0.1245
  149SAPE  H11A16437   6.108   2.209  10.702  0.5299  1.3272 -0.6081
  149SAPE  H11B16438   6.044   2.159  10.543 -0.8172 -0.2384 -0.4790
  149SAPE     P16439   5.932   1.994  10.749 -0.0025  0.1334  0.4599
  149SAPE   O1316440   5.990   1.985  10.883  0.0879 -0.0981 -0.2151
  149SAPE   O1416441   5.797   1.931  10.737 -0.0973  0.6285 -0.1229
  149SAPE   O1216442   5.908   2.142  10.708  0.0028  0.2665 -0.0893
  149SAPE   O1116443   6.032   1.936  10.640 -0.3678 -0.1354  0.1571
  149SAPE    C116444   6.008   1.827  10.552 -0.0616  0.1954 -0.2261
  149SAPE    HA16445   6.108   1.779  10.547  1.2504  2.7732  0.1252
  149SAPE    HB16446   5.921   1.765  10.585 -1.3500  3.2569  2.7010
  149SAPE    C216447   5.973   1.890  10.413  0.2233  0.4973  0.0862
  149SAPE    HS16448   6.028   1.986  10.418  1.5081 -0.2248  0.0053
  149SAPE   O2116449   5.833   1.912  10.407  0.0057  0.5769 -0.0665
  149SAPE   C2116450   5.798   2.004  10.315  0.8359  0.6887  0.0338
  149SAPE   O2216451   5.870   2.079  10.259 -0.2520 -0.5011  0.0534
  149SAPE   C2216452   5.644   2.001  10.305  0.2346  0.3164 -0.0340
  149SAPE   H2R16453   5.618   1.930  10.224  1.6909  0.8721 -1.0183
  149SAPE   H2S16454   5.615   1.949  10.399  1.3994 -0.1211  0.0978
  149SAPE    C316455   6.018   1.802  10.288 -0.0122  0.3607  0.2738
  149SAPE    HX16456   5.993   1.696  10.306  0.4234  0.1014 -0.5518
  149SAPE    HY16457   6.128   1.816  10.296 -0.3599  3.2043  1.2018
  149SAPE   O3116458   5.969   1.835  10.154 -0.2190 -0.1706 -0.2068
  149SAPE   C3116459   6.035   1.926  10.084 -0.6576 -0.8915  0.6462
  149SAPE   O3216460   6.132   1.993  10.118  0.4265  0.6961  0.2718
  149SAPE   C3216461   5.994   1.914   9.940  0.6876  0.0073 -0.3874
  149SAPE   H2X16462   5.911   1.987   9.927 -0.4530 -0.7635  1.9872
  149SAPE   H2Y16463   5.963   1.811   9.915  0.0468 -0.1066  0.7933
  149SAPE   C2316464   5.570   2.133  10.301  0.6944 -0.9027  0.1357
  149SAPE   H3R16465   5.635   2.206  10.353  1.3444 -0.0034 -1.8495
  149SAPE   H3S16466   5.467   2.128  10.344  0.0457 -0.0574 -1.2361
  149SAPE   C2416467   5.543   2.200  10.157 -0.0446  0.0099 -0.0394
  149SAPE   H4R16468   5.645   2.196  10.114  0.2750  0.1072  0.6992
  149SAPE   H4S16469   5.510   2.302  10.186 -0.3576  0.2707 -1.2725
  149SAPE   C2516470   5.436   2.121  10.085  0.2760 -0.0926  0.1598
  149SAPE   H5R16471   5.345   2.104  10.144  1.1575  0.6167  1.7718
  149SAPE   C2616472   5.442   2.079   9.956  0.2266  0.1392  0.6422
  149SAPE   H6R16473   5.359   2.022   9.911 -0.0661  0.4061  0.8443
  149SAPE   C2716474   5.552   2.111   9.856 -0.2298 -0.5169  0.2135
  149SAPE   H7R16475   5.629   2.175   9.904  1.6889 -2.4169 -0.1912
  149SAPE   H7S16476   5.503   2.162   9.770  0.3127  0.1657  0.3003
  149SAPE   C2816477   5.616   1.983   9.813  0.2747 -0.9624 -0.3188
  149SAPE   H8R16478   5.642   1.915   9.896  3.0203  0.3431  0.0061
  149SAPE   C2916479   5.646   1.937   9.692 -0.5954 -0.0214 -0.3282
  149SAPE   H9R16480   5.687   1.837   9.672  1.1318  0.7459 -0.7927
  149SAPE  C21016481   5.619   2.010   9.564 -0.6898  0.6801  0.0610
  149SAPE  H10R16482   5.645   2.116   9.583 -0.4605  0.8866 -1.2878
  149SAPE  H10S16483   5.514   2.024   9.529 -0.1463  1.2962 -1.4183
  149SAPE  C21116484   5.698   1.955   9.446  0.5170  0.0903  0.3585
  149SAPE  H11R16485   5.803   1.986   9.438 -0.0260  1.8932 -0.1510
  149SAPE  C21216486   5.653   1.869   9.354  0.2214  0.4416 -0.2378
  149SAPE  H12R16487   5.728   1.830   9.283 -1.9426  0.4923 -2.7193
  149SAPE  C21316488   5.517   1.812   9.342  0.0816 -0.1749  0.5052
  149SAPE  H13R16489   5.468   1.863   9.256  1.1373  0.9419  0.5307
  149SAPE  H13S16490   5.449   1.854   9.419 -0.4323 -0.4520  0.2051
  149SAPE  C21416491   5.503   1.664   9.332  0.0053 -0.1089  0.7083
  149SAPE  H14R16492   5.523   1.594   9.415  1.4907 -1.3640 -0.6390
  149SAPE  C21516493   5.463   1.599   9.219 -0.0100  0.1274  0.2892
  149SAPE  H15R16494   5.483   1.491   9.211 -2.0955 -0.5089  2.4617
  149SAPE  C21616495   5.433   1.666   9.090  0.0560  0.6557 -0.2551
  149SAPE  H16R16496   5.532   1.667   9.040  1.0180  1.5209  1.5688
  149SAPE  H16S16497   5.385   1.766   9.102 -0.9097  0.1478  0.3252
  149SAPE  C21716498   5.321   1.603   9.006  0.1344  0.8475  0.0977
  149SAPE  H17R16499   5.228   1.606   9.066  0.7003  1.8426  0.9734
  149SAPE  H17S16500   5.348   1.499   8.980 -1.0323  0.4390  0.4781
  149SAPE  C21816501   5.306   1.678   8.872 -0.2265  0.8041  0.3015
  149SAPE  H18R16502   5.405   1.671   8.823 -0.4226  1.2273 -0.1678
  149SAPE  H18S16503   5.288   1.787   8.879 -1.4166  0.7364 -1.1059
  149SAPE  C21916504   5.207   1.605   8.778  0.3584  0.0682 -0.0155
  149SAPE  H19R16505   5.099   1.610   8.805  0.5904  1.5514  0.7625
  149SAPE  H19S16506   5.241   1.499   8.776  0.7399  0.1858  0.2511
  149SAPE  C22016507   5.214   1.671   8.645 -0.4294  0.2865 -0.8234
  149SAPE  H20R16508   5.173   1.774   8.652  0.4218  0.5517  0.7254
  149SAPE  H20S16509   5.164   1.606   8.569  1.8428 -2.3027 -0.2659
  149SAPE  H20T16510   5.320   1.674   8.613 -0.2810  3.0808 -0.2819
  149SAPE   C3316511   6.111   1.947   9.845 -0.5127 -0.0259 -0.9544
  149SAPE   H3X16512   6.198   1.884   9.873 -0.8723 -1.4452 -2.7975
  149SAPE   H3Y16513   6.144   2.051   9.865  1.2716 -1.1955  3.2702
  149SAPE   C3416514   6.070   1.924   9.698 -0.2608 -0.6690 -0.7410
  149SAPE   H4X16515   5.966   1.956   9.678  0.0328  1.1042  0.3265
  149SAPE   H4Y16516   6.102   1.820   9.676 -1.0927 -0.5752 -2.5736
  149SAPE   C3516517   6.160   2.014   9.609  0.2359  0.6604 -0.7930
  149SAPE   H5X16518   6.264   1.974   9.608  0.5642  1.4317  0.5420
  149SAPE   H5Y16519   6.159   2.121   9.639  1.8783  0.0717  1.6238
  149SAPE   C3616520   6.092   2.000   9.472  0.9766 -0.1146 -0.1524
  149SAPE   H6X16521   5.985   2.030   9.468  1.0413  0.3611  1.1789
  149SAPE   H6Y16522   6.091   1.891   9.453  1.2667 -0.6620  2.5799
  149SAPE   C3716523   6.165   2.079   9.361 -0.6830  0.1718 -0.4319
  149SAPE   H7X16524   6.272   2.048   9.370 -1.4098 -2.6123 -0.4630
  149SAPE   H7Y16525   6.164   2.190   9.369 -1.3210  0.1150  0.4396
  149SAPE   C3816526   6.126   2.024   9.223 -0.4089  0.0167  0.1299
  149SAPE   H8X16527   6.024   2.064   9.204  0.0593  0.8842 -0.6245
  149SAPE   H8Y16528   6.124   1.913   9.224 -3.2385 -0.0292  2.4248
  149SAPE   C3916529   6.205   2.077   9.112  0.0230 -0.2775  0.0019
  149SAPE   H9X16530   6.305   2.030   9.107 -0.0192 -0.3335 -0.3543
  149SAPE   H9Y16531   6.224   2.185   9.129 -0.9482 -0.0417 -0.3823
  149SAPE  C31016532   6.138   2.056   8.973  0.1702 -0.0939  0.1729
  149SAPE  H10X16533   6.045   2.116   8.972 -0.2694 -0.7198 -1.4725
  149SAPE  H10Y16534   6.109   1.949   8.980  1.6325 -0.6204 -1.0905
  149SAPE  C31116535   6.238   2.091   8.860  0.7022  0.4036 -0.4399
  149SAPE  H11X16536   6.338   2.050   8.888  0.8113  0.8049 -0.2295
  149SAPE  H11Y16537   6.251   2.202   8.859  1.8027  0.3955  2.6608
  149SAPE  C31216538   6.191   2.047   8.719 -0.6773 -0.2617 -1.1689
  149SAPE  H12X16539   6.132   2.130   8.676 -0.9406 -0.7991 -1.8626
  149SAPE  H12Y16540   6.124   1.959   8.729 -0.9860 -0.1867 -2.4672
  149SAPE  C31316541   6.293   1.997   8.621 -0.3551 -0.6601 -0.4820
  149SAPE  H13X16542   6.234   1.982   8.528  1.7001 -1.3076 -1.7542
  149SAPE  H13Y16543   6.331   1.904   8.668 -1.9942 -0.1282  2.1258
  149SAPE  C31416544   6.398   2.106   8.599  0.1794  0.4670 -0.2765
  149SAPE  H14X16545   6.490   2.067   8.551  1.2830 -1.4914  3.0963
  149SAPE  H14Y16546   6.431   2.157   8.692  0.8477 -0.7112  0.1553
  149SAPE  C31516547   6.339   2.214   8.510 -0.4636 -0.1665 -0.1854
  149SAPE  H15X16548   6.403   2.304   8.512 -0.3326 -0.2789  0.6504
  149SAPE  H15Y16549   6.241   2.251   8.546  0.0877 -0.0938  1.2809
  149SAPE  C31616550   6.327   2.171   8.367  0.7507 -0.3400 -0.2011
  149SAPE  H16X16551   6.245   2.096   8.365  1.5162 -1.1963 -0.5105
  149SAPE  H16Y16552   6.420   2.115   8.343  1.7743  1.0678  0.3325
  149SAPE  C31716553   6.304   2.285   8.262  0.0904  0.2402 -0.2208
  149SAPE  H17X16554   6.393   2.350   8.253  0.3305 -0.1063 -0.3668
  149SAPE  H17Y16555   6.216   2.345   8.292  0.3507 -0.3117  1.7902
  149SAPE  C31816556   6.287   2.240   8.124  0.7710 -0.4777 -0.0614
  149SAPE  H18X16557   6.214   2.297   8.064  1.1390 -0.7833 -0.8179
  149SAPE  H18Y16558   6.236   2.142   8.132 -0.4295  0.1019 -0.4461
  149SAPE  H18Z16559   6.383   2.217   8.073  2.2899  1.1467  1.8992
  150SAPE     N16560   1.770   0.997  10.737  0.9450 -0.0394 -0.6462
  150SAPE   HN116561   1.843   0.927  10.763 -0.1757 -0.8432  0.4430
  150SAPE   HN216562   1.813   1.084  10.699  3.0124  1.3865  4.1533
  150SAPE   HN316563   1.716   1.026  10.821 -0.4816 -0.2500 -1.4693
  150SAPE   C1216564   1.667   0.947  10.643  0.1759 -0.6802 -0.4903
  150SAPE  H12A16565   1.600   0.877  10.696  0.1215 -0.8059 -0.7219
  150SAPE  H12B16566   1.726   0.890  10.567  0.8654  0.8546 -1.1597
  150SAPE   C1116567   1.588   1.063  10.581  0.6483  0.1213  0.1420
  150SAPE  H11A16568   1.510   1.018  10.517 -2.5217  1.4640  2.7579
  150SAPE  H11B16569   1.650   1.125  10.513 -0.7058  1.7860  0.3447
  150SAPE     P16570   1.393   1.145  10.731 -0.1389  0.0059 -0.1009
  150SAPE   O1316571   1.373   1.001  10.768 -0.5131 -0.2995  0.2140
  150SAPE   O1416572   1.384   1.254  10.836  0.1157 -0.3712 -0.6148
  150SAPE   O1216573   1.535   1.159  10.672 -0.1830 -0.4741 -0.3109
  150SAPE   O1116574   1.296   1.179  10.609  0.2323 -0.4051  0.0428
  150SAPE    C116575   1.313   1.309  10.542  0.4735  0.0214 -0.3923
  150SAPE    HA16576   1.328   1.394  10.612  1.0819 -0.3496 -0.0695
  150SAPE    HB16577   1.393   1.300  10.465  0.2174 -1.2769 -0.5244
  150SAPE    C216578   1.180   1.356  10.475  0.3236 -1.1894 -0.0912
  150SAPE    HS16579   1.096   1.316  10.536  1.6462 -0.8561  2.0708
  150SAPE   O2116580   1.188   1.298  10.341  0.5684 -0.5494 -0.4820
  150SAPE   C2116581   1.074   1.305  10.269 -0.4982  0.6766 -0.5322
  150SAPE   O2216582   0.971   1.359  10.303  0.1872 -0.4256 -0.4580
  150SAPE   C2216583   1.112   1.249  10.132 -0.0031 -0.2924 -0.1436
  150SAPE   H2R16584   1.218   1.280  10.119  0.3444 -0.6736  1.5726
  150SAPE   H2S16585   1.113   1.141  10.156 -1.9021  0.2524  2.9855
  150SAPE    C316586   1.157   1.514  10.483  0.0955  0.5538 -0.9081
  150SAPE    HX16587   1.148   1.530  10.592 -2.1111  2.6438 -1.3297
  150SAPE    HY16588   1.059   1.542  10.440 -1.3613 -1.3219  1.0072
  150SAPE   O3116589   1.271   1.595  10.443  0.1347 -0.0358  0.0856
  150SAPE   C3116590   1.261   1.626  10.316 -0.4484 -0.6115  0.6964
  150SAPE   O3216591   1.184   1.583  10.228  0.4017 -0.8932 -0.2354
  150SAPE   C3216592   1.364   1.732  10.292  0.0349  0.0980 -0.3988
  150SAPE   H2X16593   1.466   1.695  10.316  0.1545 -1.8372 -3.3160
  150SAPE   H2Y16594   1.345   1.811  10.367  1.2145 -0.9526  1.0649
  150SAPE   C2316595   1.011   1.296  10.022  0.1490  0.8505 -0.9019
  150SAPE   H3R16596   0.915   1.258  10.063  0.8086  0.6801  0.5422
  150SAPE   H3S16597   1.026   1.242   9.926 -1.2880  3.0139 -2.4367
  150SAPE   C2416598   1.014   1.443   9.997  0.0802 -0.5519 -0.6548
  150SAPE   H4R16599   1.106   1.478   9.946 -0.4095  2.2261  0.1571
  150SAPE   H4S16600   1.007   1.499  10.093 -1.9499 -1.6935 -0.0722
  150SAPE   C2516601   0.888   1.485   9.927 -0.7708  0.6158  1.2431
  150SAPE   H5R16602   0.801   1.493   9.995 -0.3872 -2.0603  2.1427
  150SAPE   C2616603   0.883   1.525   9.797 -0.3698 -0.2665 -0.2184
  150SAPE   H6R16604   0.782   1.547   9.760 -0.1648 -0.3343 -0.8276
  150SAPE   C2716605   0.990   1.534   9.689 -0.0397  0.3041 -0.2658
  150SAPE   H7R16606   1.088   1.487   9.708 -1.2974 -3.5249 -2.2696
  150SAPE   H7S16607   1.008   1.638   9.654  2.0345  0.1927  0.3327
  150SAPE   C2816608   0.949   1.452   9.574 -0.0756  0.3010  0.3590
  150SAPE   H8R16609   0.960   1.343   9.585 -3.0247  0.0365  1.9083
  150SAPE   C2916610   0.887   1.487   9.459  0.1345 -0.2237 -0.2503
  150SAPE   H9R16611   0.844   1.412   9.391  0.4125 -0.4598 -0.1659
  150SAPE  C21016612   0.847   1.625   9.413 -0.2722 -0.0792 -0.1779
  150SAPE  H10R16613   0.921   1.664   9.340  0.5235  0.4495  0.8702
  150SAPE  H10S16614   0.850   1.686   9.506  0.3836 -2.6253  1.5587
  150SAPE  C21116615   0.706   1.643   9.356 -0.2120 -0.3481  0.4794
  150SAPE  H11R16616   0.624   1.620   9.426  0.1002 -1.0484  0.6308
  150SAPE  C21216617   0.673   1.679   9.230 -0.0324  0.3474  0.0676
  150SAPE  H12R16618   0.564   1.669   9.213  0.1100  0.5885 -1.0785
  150SAPE  C21316619   0.752   1.711   9.107 -0.4638  0.4142  0.2132
  150SAPE  H13R16620   0.841   1.775   9.128  0.6310 -0.3107 -1.9694
  150SAPE  H13S16621   0.683   1.762   9.036 -1.5561 -0.2773  0.7560
  150SAPE  C21416622   0.819   1.589   9.039 -0.0718  0.2692 -0.1852
  150SAPE  H14R16623   0.845   1.511   9.112  0.3775  1.2087  0.6862
  150SAPE  C21516624   0.835   1.565   8.904  0.2731 -0.1788 -0.6629
  150SAPE  H15R16625   0.881   1.467   8.884  0.5828 -0.3745  0.8644
  150SAPE  C21616626   0.799   1.645   8.786  0.5689 -0.2590  0.4618
  150SAPE  H16R16627   0.746   1.739   8.809 -1.4998 -0.7681 -1.8736
  150SAPE  H16S16628   0.731   1.598   8.712  1.1466 -0.2214 -0.0992
  150SAPE  C21716629   0.929   1.687   8.709  0.1048  0.5672 -1.1145
  150SAPE  H17R16630   0.992   1.753   8.771 -0.1326 -1.4356  1.4229
  150SAPE  H17S16631   0.899   1.739   8.615 -1.0344 -0.5296 -1.4004
  150SAPE  C21816632   1.008   1.562   8.655 -0.6034 -0.6434  0.4583
  150SAPE  H18R16633   0.926   1.493   8.626 -2.8346  1.3022  1.6845
  150SAPE  H18S16634   1.067   1.515   8.736 -0.7623 -1.2596  0.2182
  150SAPE  C21916635   1.093   1.587   8.530  0.1400  0.3201 -0.8897
  150SAPE  H19R16636   1.160   1.674   8.548 -0.5878  0.6843  0.1447
  150SAPE  H19S16637   1.025   1.605   8.444  0.1087  0.3529 -0.8578
  150SAPE  C22016638   1.158   1.460   8.478 -0.5085 -0.1561 -0.2942
  150SAPE  H20R16639   1.222   1.410   8.554 -1.1267  0.6793  0.8062
  150SAPE  H20S16640   1.217   1.469   8.384  1.0208  0.6388  0.6964
  150SAPE  H20T16641   1.070   1.395   8.459 -1.3474  0.3336  1.5950
  150SAPE   C3316642   1.360   1.789  10.158 -0.3185 -0.2983  1.2148
  150SAPE   H3X16643   1.447   1.857  10.144  0.6278 -1.6363  0.3489
  150SAPE   H3Y16644   1.262   1.838  10.137  0.0592 -0.3493 -0.9405
  150SAPE   C3416645   1.396   1.686  10.046  0.1635  0.0656 -0.4180
  150SAPE   H4X16646   1.326   1.600  10.046  0.8614 -0.5124  0.1836
  150SAPE   H4Y16647   1.502   1.656  10.057 -0.1287 -0.5106  1.1446
  150SAPE   C3516648   1.385   1.764   9.912 -0.1299 -0.4008 -0.0459
  150SAPE   H5X16649   1.460   1.847   9.910 -0.3714 -0.1983 -0.7299
  150SAPE   H5Y16650   1.294   1.827   9.906  1.1908  1.6462  0.4537
  150SAPE   C3616651   1.413   1.681   9.792 -0.0946 -0.3483  0.0111
  150SAPE   H6X16652   1.349   1.590   9.790  0.1005 -0.4783 -0.6975
  150SAPE   H6Y16653   1.521   1.655   9.785  0.0277  0.0174  0.5265
  150SAPE   C3716654   1.389   1.769   9.667  0.2684  0.5700  0.4323
  150SAPE   H7X16655   1.475   1.839   9.658  1.7873 -1.2388  0.2334
  150SAPE   H7Y16656   1.294   1.824   9.683 -0.8076 -1.1677  0.2683
  150SAPE   C3816657   1.356   1.685   9.550  0.3198  0.0635 -0.4936
  150SAPE   H8X16658   1.266   1.622   9.569  0.6529 -0.0273  0.9344
  150SAPE   H8Y16659   1.446   1.623   9.529 -0.4439 -1.5586  0.7542
  150SAPE   C3916660   1.327   1.763   9.421  0.1337 -0.5144  0.0517
  150SAPE   H9X16661   1.422   1.809   9.386  1.3177 -1.9316  1.2836
  150SAPE   H9Y16662   1.260   1.846   9.453  0.2665  0.4949 -2.0883
  150SAPE  C31016663   1.266   1.693   9.305  0.3064 -0.5698  0.4309
  150SAPE  H10X16664   1.215   1.765   9.237  0.3969 -0.2798  0.6695
  150SAPE  H10Y16665   1.180   1.627   9.329 -0.2171  0.1638  0.6014
  150SAPE  C31116666   1.365   1.609   9.227  0.0249 -0.5859 -0.1407
  150SAPE  H11X16667   1.391   1.511   9.274  2.5320 -1.0848 -2.3243
  150SAPE  H11Y16668   1.458   1.669   9.217 -1.2111  1.4087 -0.0065
  150SAPE  C31216669   1.321   1.572   9.083  0.1652  0.3313 -0.2659
  150SAPE  H12X16670   1.222   1.525   9.103  1.0675 -0.8560  1.7275
  150SAPE  H12Y16671   1.399   1.501   9.048  0.6753  0.1873  1.1056
  150SAPE  C31316672   1.314   1.687   8.974  0.3953 -0.6531 -0.3551
  150SAPE  H13X16673   1.391   1.761   9.005 -0.2895 -0.6860  1.5474
  150SAPE  H13Y16674   1.220   1.744   8.986  1.8604  2.1539 -1.3125
  150SAPE  C31416675   1.351   1.649   8.832 -0.1977  0.1617  0.0058
  150SAPE  H14X16676   1.269   1.591   8.787 -1.4750 -0.1930  2.5893
  150SAPE  H14Y16677   1.440   1.583   8.826 -1.3926 -1.3538 -2.3751
  150SAPE  C31516678   1.390   1.769   8.755 -0.6295 -0.0370 -0.3542
  150SAPE  H15X16679   1.464   1.822   8.819  2.3050 -3.1970 -0.9159
  150SAPE  H15Y16680   1.307   1.844   8.748  1.1323  2.0980  0.3697
  150SAPE  C31616681   1.448   1.730   8.623  0.2372  0.1400  0.6881
  150SAPE  H16X16682   1.380   1.666   8.563  1.7367 -0.5227 -0.3942
  150SAPE  H16Y16683   1.546   1.681   8.642  0.3700  0.1679  0.1066
  150SAPE  C31716684   1.460   1.862   8.546 -0.1477  0.7566  0.0584
  150SAPE  H17X16685   1.528   1.942   8.583  0.7428  0.5455 -1.0771
  150SAPE  H17Y16686   1.360   1.910   8.544 -0.5280  0.1470  2.0601
  150SAPE  C31816687   1.515   1.836   8.401  0.3179  0.0870  0.2408
  150SAPE  H18X16688   1.625   1.835   8.417  0.6011 -1.2122 -1.4994
  150SAPE  H18Y16689   1.494   1.923   8.334  1.7807  2.6870  2.9186
  150SAPE  H18Z16690   1.479   1.741   8.358 -1.8362 -0.3470  2.7765
  151SAPE     N16691   0.277   4.961  10.523 -0.3777 -0.2544 -0.1032
  151SAPE   HN116692   0.203   5.029  10.548 -1.7348 -2.0670  1.0493
  151SAPE   HN216693   0.241   4.872  10.562 -1.3887 -0.8533 -2.2383
  151SAPE   HN316694   0.369   4.989  10.561 -0.6601  0.1873  0.2733
  151SAPE   C1216695   0.280   4.950  10.372 -0.2982 -0.2974 -0.8309
  151SAPE  H12A16696   0.318   5.048  10.334  1.8954  0.6409  3.2156
  151SAPE  H12B16697   0.179   4.929  10.331 -0.1036 -1.5938 -0.6793
  151SAPE   C1116698   0.370   4.838  10.325  0.3060 -0.4128  0.2583
  151SAPE  H11A16699   0.476   4.864  10.344 -0.1490  1.1235  0.9464
  151SAPE  H11B16700   0.353   4.805  10.220 -0.2571  0.7390 -0.0362
  151SAPE     P16701   0.249   4.614  10.409  0.5892  0.4547  0.0672
  151SAPE   O1316702   0.270   4.522  10.524  0.1986  0.6310  0.6185
  151SAPE   O1416703   0.116   4.680  10.411  0.1192  0.2966 -0.2257
  151SAPE   O1216704   0.367   4.723  10.409  0.3410  0.3174  0.2565
  151SAPE   O1116705   0.263   4.534  10.271  0.0231 -0.2851 -0.1790
  151SAPE    C116706   0.353   4.434  10.248  0.1632  0.6302 -0.0224
  151SAPE    HA16707   0.349   4.358  10.329 -0.1680  0.5436 -0.1202
  151SAPE    HB16708   0.333   4.380  10.153  2.2481 -1.8147  0.8155
  151SAPE    C216709   0.499   4.478  10.242  0.3446 -0.8373 -0.7375
  151SAPE    HS16710   0.522   4.520  10.342 -2.6520  2.2433 -1.1529
  151SAPE   O2116711   0.504   4.590  10.149  0.6778 -0.2570 -0.0555
  151SAPE   C2116712   0.608   4.673  10.162  0.3130  0.3110 -0.0448
  151SAPE   O2216713   0.695   4.659  10.247 -0.2518 -0.2122  1.4541
  151SAPE   C2216714   0.617   4.782  10.052  0.0710 -0.2247  0.6487
  151SAPE   H2R16715   0.521   4.797   9.998  1.2470  4.5003 -0.5763
  151SAPE   H2S16716   0.635   4.874  10.111 -0.6391  0.0839  0.3945
  151SAPE    C316717   0.586   4.359  10.195  0.7442  0.6596 -0.4113
  151SAPE    HX16718   0.576   4.289  10.281 -1.8563  1.7245  0.2607
  151SAPE    HY16719   0.693   4.386  10.194  1.0720 -0.5553 -2.1410
  151SAPE   O3116720   0.537   4.301  10.066  0.8688  0.1202 -0.0933
  151SAPE   C3116721   0.599   4.364   9.962 -0.1323  0.9904 -0.4324
  151SAPE   O3216722   0.696   4.427   9.975 -0.5711 -0.0065 -0.4004
  151SAPE   C3216723   0.523   4.338   9.826  0.6193  0.0025 -0.4571
  151SAPE   H2X16724   0.418   4.369   9.843  1.2947  1.5949  1.1573
  151SAPE   H2Y16725   0.531   4.228   9.812 -0.1444 -0.4536  2.3041
  151SAPE   C2316726   0.717   4.753   9.939  0.3464  0.4935 -0.6784
  151SAPE   H3R16727   0.698   4.658   9.886  0.0385 -0.6601  1.3949
  151SAPE   H3S16728   0.818   4.736   9.983  0.0056 -0.9985 -0.4321
  151SAPE   C2416729   0.725   4.867   9.839 -0.2464 -0.6541 -0.0325
  151SAPE   H4R16730   0.768   4.958   9.887  2.3565 -0.3385 -2.6317
  151SAPE   H4S16731   0.626   4.898   9.800  1.1930  1.8921 -2.0373
  151SAPE   C2516732   0.817   4.841   9.728  0.2932  0.4903  0.4315
  151SAPE   H5R16733   0.919   4.839   9.770  0.3164 -1.5742  0.3666
  151SAPE   C2616734   0.790   4.815   9.599 -0.3459  0.6652  0.3415
  151SAPE   H6R16735   0.873   4.793   9.530 -0.9679  0.9457 -0.4997
  151SAPE   C2716736   0.660   4.795   9.531 -0.0169  1.0314  0.1319
  151SAPE   H7R16737   0.594   4.754   9.610  1.2710 -2.2036 -0.3106
  151SAPE   H7S16738   0.660   4.704   9.466  1.2149  0.2677  1.1511
  151SAPE   C2816739   0.598   4.906   9.452 -0.4966 -0.3665  0.3702
  151SAPE   H8R16740   0.553   4.988   9.509 -0.8788 -0.1108 -0.2995
  151SAPE   C2916741   0.619   4.931   9.324 -0.8298 -0.1069  0.1080
  151SAPE   H9R16742   0.584   5.028   9.287 -0.4594 -0.9410 -2.7394
  151SAPE  C21016743   0.698   4.854   9.221  0.1278 -0.6111  0.7939
  151SAPE  H10R16744   0.663   4.749   9.214  3.1199 -1.9161  2.8990
  151SAPE  H10S16745   0.798   4.866   9.267 -0.5213 -0.4854  2.2195
  151SAPE  C21116746   0.710   4.918   9.082 -0.6637  0.3722  0.1156
  151SAPE  H11R16747   0.807   4.966   9.064 -0.5692  1.0079  2.0515
  151SAPE  C21216748   0.618   4.930   8.982 -0.5586 -0.3091  0.4575
  151SAPE  H12R16749   0.646   5.008   8.909  1.0279 -1.0212  0.2653
  151SAPE  C21316750   0.485   4.867   8.979  0.1743  0.1034  0.8726
  151SAPE  H13R16751   0.461   4.820   9.077 -0.1527 -0.3720  0.5655
  151SAPE  H13S16752   0.498   4.789   8.901 -3.4138 -0.5893  0.8022
  151SAPE  C21416753   0.377   4.963   8.939  0.5529 -0.2632 -0.5183
  151SAPE  H14R16754   0.306   4.985   9.021  0.6902  0.9006 -0.6894
  151SAPE  C21516755   0.340   5.014   8.827  0.0464 -1.0492 -0.3539
  151SAPE  H15R16756   0.251   5.079   8.829  1.5674  1.1989 -1.6384
  151SAPE  C21616757   0.412   5.010   8.692  0.0088  0.6791 -0.1477
  151SAPE  H16R16758   0.522   5.005   8.711  0.2973  3.3824 -0.6590
  151SAPE  H16S16759   0.384   5.107   8.644 -2.4246 -0.1292 -0.4909
  151SAPE  C21716760   0.385   4.894   8.595  0.0595  0.3097  0.0537
  151SAPE  H17R16761   0.392   4.794   8.644 -2.5418  1.3903  2.9351
  151SAPE  H17S16762   0.464   4.886   8.517  1.9908  2.5914  1.6467
  151SAPE  C21816763   0.250   4.900   8.533 -0.0587 -0.5443 -0.4002
  151SAPE  H18R16764   0.243   4.986   8.464 -0.0984  0.9458  1.3923
  151SAPE  H18S16765   0.176   4.910   8.615  2.5542  1.1251  1.9177
  151SAPE  C21916766   0.224   4.772   8.452 -0.0350  0.6141 -0.4982
  151SAPE  H19R16767   0.260   4.684   8.509 -0.2191  1.7988  1.5436
  151SAPE  H19S16768   0.298   4.779   8.369  0.9795  1.9171  0.4787
  151SAPE  C22016769   0.076   4.747   8.406 -0.1442  0.0512 -0.3559
  151SAPE  H20R16770   0.015   4.720   8.495  0.7898  2.7557  1.2235
  151SAPE  H20S16771   0.086   4.669   8.327 -2.1120 -3.7713  2.8412
  151SAPE  H20T16772   0.033   4.835   8.354 -0.6039  0.0557  0.0229
  151SAPE   C3316773   0.562   4.422   9.698  0.5119  0.8582 -0.7388
  151SAPE   H3X16774   0.673   4.429   9.702  0.6957 -1.2468 -1.2108
  151SAPE   H3Y16775   0.529   4.527   9.715 -3.0221 -0.4090  1.1739
  151SAPE   C3416776   0.507   4.367   9.561  0.2856 -0.6875 -0.0940
  151SAPE   H4X16777   0.397   4.360   9.555  0.2421 -0.3018  0.2612
  151SAPE   H4Y16778   0.543   4.264   9.541 -1.2705 -1.2887  0.1197
  151SAPE   C3516779   0.555   4.448   9.436 -0.0615  0.1323  0.6317
  151SAPE   H5X16780   0.659   4.483   9.456  1.0462 -1.6776 -1.4917
  151SAPE   H5Y16781   0.490   4.538   9.444  1.8628  1.7246 -0.6685
  151SAPE   C3616782   0.541   4.373   9.302 -0.0219  0.3444 -0.1451
  151SAPE   H6X16783   0.437   4.335   9.310  0.6381 -1.1957  2.8759
  151SAPE   H6Y16784   0.622   4.297   9.295 -0.9780 -0.7747  0.5669
  151SAPE   C3716785   0.541   4.469   9.179  0.2416 -1.1380  0.3673
  151SAPE   H7X16786   0.636   4.525   9.186  0.5727 -1.5427 -0.7054
  151SAPE   H7Y16787   0.471   4.553   9.197  0.8666 -1.0029  2.4332
  151SAPE   C3816788   0.537   4.397   9.044 -0.5932 -0.4885  0.7197
  151SAPE   H8X16789   0.434   4.354   9.043 -1.0727  0.5813 -0.6220
  151SAPE   H8Y16790   0.615   4.319   9.038 -0.6541 -0.5235  0.3037
  151SAPE   C3916791   0.559   4.493   8.925  0.1994  1.1528  0.0302
  151SAPE   H9X16792   0.656   4.547   8.921  1.2363 -0.4582  1.7600
  151SAPE   H9Y16793   0.485   4.575   8.936  0.8999  1.5591  2.3115
  151SAPE  C31016794   0.524   4.403   8.805  0.4236  0.0405  0.6164
  151SAPE  H10X16795   0.420   4.366   8.820  0.6150  0.0302  2.0102
  151SAPE  H10Y16796   0.592   4.317   8.788  0.0182  0.1006 -1.6198
  151SAPE  C31116797   0.520   4.490   8.680  0.5829 -0.4340 -0.2142
  151SAPE  H11X16798   0.614   4.548   8.673 -0.5209  1.2602 -1.8435
  151SAPE  H11Y16799   0.431   4.556   8.685 -1.0618 -2.5424 -0.1348
  151SAPE  C31216800   0.521   4.418   8.547  0.3865 -0.7088  0.4145
  151SAPE  H12X16801   0.454   4.330   8.546  0.0779 -0.5084  1.6372
  151SAPE  H12Y16802   0.625   4.378   8.540  1.2135  1.5998 -1.8937
  151SAPE  C31316803   0.503   4.503   8.419  0.2951 -0.0515  0.5259
  151SAPE  H13X16804   0.396   4.533   8.421 -0.3985 -2.1176 -0.9987
  151SAPE  H13Y16805   0.495   4.430   8.335 -3.6027  3.0105 -2.1264
  151SAPE  C31416806   0.602   4.619   8.402  0.1476  0.2468  0.0649
  151SAPE  H14X16807   0.708   4.586   8.413 -0.6505 -1.8639  2.2840
  151SAPE  H14Y16808   0.584   4.676   8.496 -1.9289 -0.5716  0.2041
  151SAPE  C31516809   0.582   4.698   8.277  0.1266  0.7022 -0.2096
  151SAPE  H15X16810   0.473   4.718   8.272  0.1707  1.1302  0.3384
  151SAPE  H15Y16811   0.611   4.638   8.188 -0.6855  0.9077 -0.6165
  151SAPE  C31616812   0.654   4.830   8.265 -0.1337  0.5060  0.1360
  151SAPE  H16X16813   0.728   4.851   8.346  0.9491 -0.2202 -0.6424
  151SAPE  H16Y16814   0.583   4.916   8.269 -1.8739 -0.7345 -2.0274
  151SAPE  C31716815   0.719   4.848   8.127 -0.5064 -0.1091 -0.4432
  151SAPE  H17X16816   0.639   4.829   8.053  0.2369 -2.3247 -0.7401
  151SAPE  H17Y16817   0.788   4.764   8.103 -1.9301 -1.2021 -0.8692
  151SAPE  C31816818   0.779   4.990   8.118 -0.0445  0.6390  0.5974
  151SAPE  H18X16819   0.807   5.016   8.014  1.1279  0.7559  0.9202
  151SAPE  H18Y16820   0.871   4.998   8.180 -1.9277 -1.9596  4.1072
  151SAPE  H18Z16821   0.706   5.064   8.157  0.7196  1.3789  0.6521
  152SAPE     N16822   0.157   3.572  10.860 -0.1925  0.5290  0.5140
  152SAPE   HN116823   0.137   3.484  10.911  0.3590  0.1223  0.0405
  152SAPE   HN216824   0.238   3.556  10.797 -1.7615  0.9124 -1.7595
  152SAPE   HN316825   0.178   3.646  10.930 -0.5774  0.3669  0.8083
  152SAPE   C1216826   0.030   3.603  10.779 -1.3072 -0.0808  0.3121
  152SAPE  H12A16827  -0.059   3.581  10.843 -1.9400  0.7513 -0.2598
  152SAPE  H12B16828   0.029   3.530  10.695 -1.5781  1.8098 -1.4073
  152SAPE   C1116829   0.042   3.740  10.709  0.5008  0.8557 -0.8536
  152SAPE  H11A16830   0.040   3.810  10.795  1.2141 -1.2434  0.9625
  152SAPE  H11B16831  -0.051   3.748  10.649  0.3530  1.2212 -0.5776
  152SAPE     P16832   0.210   3.865  10.567  0.4702  0.2178  0.3092
  152SAPE   O1316833   0.117   3.977  10.598 -0.8793 -0.0872  0.3973
  152SAPE   O1416834   0.350   3.880  10.612  0.3532  0.3844 -0.2325
  152SAPE   O1216835   0.158   3.731  10.629  0.4501 -0.1767  0.5512
  152SAPE   O1116836   0.203   3.839  10.411 -0.6175  0.7394 -0.3165
  152SAPE    C116837   0.082   3.784  10.362 -0.0702 -0.3764  0.2060
  152SAPE    HA16838  -0.012   3.827  10.405 -1.4615  0.3579 -3.2201
  152SAPE    HB16839   0.064   3.826  10.261  1.2532  0.7517  0.4152
  152SAPE    C216840   0.092   3.629  10.350  0.3106 -0.1847  0.0590
  152SAPE    HS16841   0.128   3.592  10.448 -1.8485 -1.6448  0.3869
  152SAPE   O2116842   0.195   3.604  10.245 -0.1489  0.1178  0.5003
  152SAPE   C2116843   0.266   3.495  10.277  0.4274  0.8998  0.3423
  152SAPE   O2216844   0.236   3.411  10.359 -1.0168 -0.4840 -0.2768
  152SAPE   C2216845   0.388   3.493  10.186 -0.4369 -0.0977  0.4277
  152SAPE   H2R16846   0.360   3.476  10.080 -1.0403 -1.5728  0.8010
  152SAPE   H2S16847   0.447   3.587  10.189  1.2648 -0.9654 -2.2362
  152SAPE    C316848  -0.039   3.555  10.319  0.0855 -0.3360  0.0600
  152SAPE    HX16849  -0.099   3.549  10.412  1.0624 -1.4555  0.6320
  152SAPE    HY16850  -0.014   3.449  10.300  3.4082  0.5147 -0.9969
  152SAPE   O3116851  -0.118   3.617  10.214  0.1917 -0.0030 -0.0666
  152SAPE   C3116852  -0.115   3.554  10.099  0.2549  0.0153  0.0836
  152SAPE   O3216853  -0.072   3.440  10.076  0.5389  0.4455 -0.9742
  152SAPE   C3216854  -0.153   3.655   9.990  0.4167  0.2824 -0.5048
  152SAPE   H2X16855  -0.071   3.730   9.993  0.1233  0.6179 -0.8522
  152SAPE   H2Y16856  -0.257   3.690  10.008 -0.0690 -1.1657 -0.3311
  152SAPE   C2316857   0.501   3.386  10.225  0.0853 -0.4466  0.6964
  152SAPE   H3R16858   0.453   3.288  10.247  2.0976 -1.3934  1.0697
  152SAPE   H3S16859   0.552   3.436  10.310 -1.5903  4.3699 -0.7925
  152SAPE   C2416860   0.587   3.346  10.096 -0.1273  0.0997 -0.0311
  152SAPE   H4R16861   0.522   3.349  10.006  1.2771  1.1356 -1.0563
  152SAPE   H4S16862   0.621   3.240  10.098  1.2693  0.4994 -1.2022
  152SAPE   C2516863   0.705   3.441  10.087 -0.4780 -1.0819 -0.9249
  152SAPE   H5R16864   0.779   3.449  10.169  2.1420  0.9909 -3.2675
  152SAPE   C2616865   0.740   3.523   9.980  0.7657  0.2811 -0.9059
  152SAPE   H6R16866   0.826   3.591   9.990 -0.3755  1.7106 -0.4084
  152SAPE   C2716867   0.644   3.527   9.858 -0.2532 -0.2500 -0.6428
  152SAPE   H7R16868   0.548   3.565   9.899  1.0502  0.8769  1.6210
  152SAPE   H7S16869   0.623   3.423   9.827  0.1668 -0.9283  1.2257
  152SAPE   C2816870   0.715   3.617   9.760  0.5146 -0.4082 -0.5761
  152SAPE   H8R16871   0.737   3.721   9.791  1.6461 -1.2396  1.6097
  152SAPE   C2916872   0.743   3.589   9.633  0.4133 -0.5998 -0.6633
  152SAPE   H9R16873   0.798   3.665   9.576  1.8125 -0.5203  0.6941
  152SAPE  C21016874   0.722   3.452   9.565 -1.2326 -0.2888 -0.4664
  152SAPE  H10R16875   0.664   3.380   9.627  2.0711 -3.0073 -0.2339
  152SAPE  H10S16876   0.826   3.415   9.573 -1.8959 -1.8067  3.0967
  152SAPE  C21116877   0.669   3.455   9.424  0.6887 -0.2820  0.2345
  152SAPE  H11R16878   0.563   3.469   9.401  0.8979  2.5115  0.6153
  152SAPE  C21216879   0.742   3.434   9.316  0.3801  0.3640 -0.4556
  152SAPE  H12R16880   0.693   3.446   9.218  1.2176  3.2493 -0.6236
  152SAPE  C21316881   0.888   3.407   9.308  0.0885  0.1683 -0.7631
  152SAPE  H13R16882   0.912   3.347   9.217  1.9351 -2.4884  1.2825
  152SAPE  H13S16883   0.923   3.337   9.388 -0.7632 -2.3972 -2.4872
  152SAPE  C21416884   0.980   3.532   9.306  0.6233  1.0470 -0.8909
  152SAPE  H14R16885   0.959   3.599   9.390 -0.9147 -0.9648  0.4272
  152SAPE  C21516886   1.087   3.539   9.228  0.5878 -0.0537  0.2486
  152SAPE  H15R16887   1.147   3.631   9.239 -0.5110  0.8169 -0.8643
  152SAPE  C21616888   1.142   3.435   9.129 -0.1845 -0.5861 -0.4236
  152SAPE  H16R16889   1.073   3.439   9.042 -1.0295  1.2550  0.2855
  152SAPE  H16S16890   1.129   3.330   9.163 -0.9976 -0.2336  0.3885
  152SAPE  C21716891   1.283   3.474   9.068  0.2590 -0.4714 -0.2719
  152SAPE  H17R16892   1.323   3.390   9.009  0.3307  0.5942 -1.7975
  152SAPE  H17S16893   1.354   3.481   9.153 -0.2641 -1.5423  0.2701
  152SAPE  C21816894   1.264   3.605   8.989 -0.6539  0.1234  0.4646
  152SAPE  H18R16895   1.254   3.687   9.064  0.8868 -0.4234  1.3210
  152SAPE  H18S16896   1.173   3.601   8.927  0.7112  0.6077 -1.6718
  152SAPE  C21916897   1.375   3.611   8.889  0.3360 -1.5982 -0.3215
  152SAPE  H19R16898   1.367   3.702   8.826  2.2135 -0.8133  0.4933
  152SAPE  H19S16899   1.368   3.529   8.815  2.0203 -2.0872  0.0251
  152SAPE  C22016900   1.520   3.616   8.936  0.0936  0.3191 -0.4207
  152SAPE  H20R16901   1.546   3.521   8.988 -0.3684 -0.2536 -1.2075
  152SAPE  H20S16902   1.552   3.694   9.008 -0.3643  1.0873 -1.0380
  152SAPE  H20T16903   1.585   3.622   8.847  0.7992  0.6642  0.1082
  152SAPE   C3316904  -0.147   3.590   9.847 -0.1320  0.1461 -0.2836
  152SAPE   H3X16905  -0.207   3.498   9.833  0.2386 -0.1447  0.0286
  152SAPE   H3Y16906  -0.046   3.544   9.839 -0.3808 -0.4664  0.0332
  152SAPE   C3416907  -0.165   3.702   9.745  0.8669 -0.3184  0.0828
  152SAPE   H4X16908  -0.069   3.753   9.721 -0.8118  2.1833 -1.8514
  152SAPE   H4Y16909  -0.236   3.777   9.786  1.3011  0.4874 -0.5989
  152SAPE   C3516910  -0.217   3.648   9.604  0.3042 -0.6215 -0.2442
  152SAPE   H5X16911  -0.295   3.583   9.650 -0.6774  1.7282  1.6066
  152SAPE   H5Y16912  -0.136   3.597   9.548  0.6836  1.0560 -1.2860
  152SAPE   C3616913  -0.276   3.752   9.513  0.0002  0.0429  0.6554
  152SAPE   H6X16914  -0.216   3.845   9.499 -1.8972  1.0627 -1.2780
  152SAPE   H6Y16915  -0.374   3.777   9.558 -1.8451 -4.4104 -0.3353
  152SAPE   C3716916  -0.325   3.687   9.383  0.6843 -0.6828 -0.2279
  152SAPE   H7X16917  -0.381   3.767   9.330  2.1365  1.2584  1.0286
  152SAPE   H7Y16918  -0.386   3.596   9.397  1.4373 -0.9004  2.1550
  152SAPE   C3816919  -0.209   3.640   9.293 -0.2869 -0.4770 -0.6311
  152SAPE   H8X16920  -0.170   3.548   9.342  1.1817 -0.9448 -2.5937
  152SAPE   H8Y16921  -0.131   3.720   9.299  0.0717 -0.8951  0.6498
  152SAPE   C3916922  -0.234   3.613   9.146 -0.3466  0.2745 -0.2212
  152SAPE   H9X16923  -0.307   3.690   9.113  0.7842  1.1850 -0.6408
  152SAPE   H9Y16924  -0.273   3.509   9.138 -0.1678 -0.0642  2.5894
  152SAPE  C31016925  -0.097   3.615   9.075  0.0288 -0.2317 -0.3915
  152SAPE  H10X16926  -0.020   3.552   9.125  0.2779  1.7877  1.9871
  152SAPE  H10Y16927  -0.052   3.717   9.081 -1.9476  0.6313  0.5602
  152SAPE  C31116928  -0.115   3.566   8.928 -0.0625  0.1817  0.4629
  152SAPE  H11X16929  -0.179   3.641   8.877 -0.2047  0.2248  0.7028
  152SAPE  H11Y16930  -0.160   3.465   8.933  2.6384 -1.1159  0.5953
  152SAPE  C31216931   0.019   3.570   8.859 -0.2775  0.1324 -0.3382
  152SAPE  H12X16932   0.107   3.552   8.925 -0.5925  0.6912  0.2415
  152SAPE  H12Y16933   0.039   3.668   8.809 -1.6263 -0.3386 -1.9057
  152SAPE  C31316934   0.021   3.476   8.734 -0.5368 -0.2892  0.1860
  152SAPE  H13X16935  -0.030   3.518   8.646  1.1328 -0.8676 -1.1100
  152SAPE  H13Y16936  -0.037   3.384   8.756  0.7124 -1.3599 -0.8329
  152SAPE  C31416937   0.170   3.445   8.696  0.4282  0.0131  0.2740
  152SAPE  H14X16938   0.228   3.408   8.784  1.0677  2.4424  0.9512
  152SAPE  H14Y16939   0.216   3.544   8.675 -0.5653  0.3521 -0.3975
  152SAPE  C31516940   0.170   3.365   8.567  0.3472 -0.2589 -0.5747
  152SAPE  H15X16941   0.115   3.418   8.487  0.3459  0.6624  0.0201
  152SAPE  H15Y16942   0.119   3.268   8.586 -0.7425  0.2461 -0.8708
  152SAPE  C31616943   0.307   3.332   8.521 -0.1069  0.0322  0.1190
  152SAPE  H16X16944   0.317   3.248   8.449 -0.9805 -0.5602  0.6704
  152SAPE  H16Y16945   0.376   3.326   8.609 -1.0563 -1.1066  0.8199
  152SAPE  C31716946   0.372   3.458   8.442 -0.3646  0.1747 -0.0728
  152SAPE  H17X16947   0.399   3.524   8.527 -0.7536 -1.0762  1.0670
  152SAPE  H17Y16948   0.289   3.514   8.393  0.3212  0.1575 -1.2941
  152SAPE  C31816949   0.500   3.428   8.356  0.7663 -0.4957  0.4259
  152SAPE  H18X16950   0.474   3.341   8.292 -0.8193  0.7545 -0.7186
  152SAPE  H18Y16951   0.586   3.404   8.422  1.1593 -1.4447 -0.4002
  152SAPE  H18Z16952   0.521   3.508   8.282 -0.5919  0.0190  0.5689
  153SAPE     N16953   1.172   5.553  10.931  0.0628 -0.4724  0.2943
  153SAPE   HN116954   1.210   5.579  11.025 -0.0518 -1.9721  0.7789
  153SAPE   HN216955   1.206   5.456  10.913  1.5107 -0.0540  0.6033
  153SAPE   HN316956   1.212   5.628  10.870 -0.1496  1.0854  1.9717
  153SAPE   C1216957   1.020   5.562  10.928  0.1027  0.4519 -0.8645
  153SAPE  H12A16958   1.001   5.670  10.942  2.0450  0.6657  0.5544
  153SAPE  H12B16959   0.986   5.494  11.009  1.5750 -0.3274 -0.8684
  153SAPE   C1116960   0.956   5.516  10.793  0.2042  0.2901 -0.5393
  153SAPE  H11A16961   0.977   5.411  10.764 -1.5520 -0.2127 -0.1323
  153SAPE  H11B16962   1.004   5.579  10.716  0.5704 -2.9738 -3.2320
  153SAPE     P16963   0.737   5.656  10.755 -0.1073 -0.7136  0.3696
  153SAPE   O1316964   0.589   5.617  10.746 -0.8410 -0.3704 -0.8441
  153SAPE   O1416965   0.765   5.766  10.843 -0.4049  0.3165 -0.4758
  153SAPE   O1216966   0.816   5.527  10.805  0.2342 -0.6290 -0.3102
  153SAPE   O1116967   0.801   5.695  10.617  0.6363  0.2749 -0.2776
  153SAPE    C116968   0.749   5.625  10.504  0.4815 -0.6483  1.2198
  153SAPE    HA16969   0.728   5.518  10.526 -0.1995 -0.8554 -0.2979
  153SAPE    HB16970   0.647   5.663  10.483 -0.4106 -1.5200  3.6360
  153SAPE    C216971   0.846   5.631  10.382  0.6802 -0.4790 -0.0997
  153SAPE    HS16972   0.879   5.735  10.361 -0.4435  0.1702  1.1962
  153SAPE   O2116973   0.785   5.552  10.268  0.6133 -0.4397  0.0440
  153SAPE   C2116974   0.706   5.627  10.188  0.2770 -0.0606 -0.0090
  153SAPE   O2216975   0.688   5.747  10.208 -0.2683 -0.7639  0.7511
  153SAPE   C2216976   0.627   5.548  10.089  0.1196  0.6238 -0.0656
  153SAPE   H2R16977   0.710   5.501  10.032  2.0116 -0.2815  3.1734
  153SAPE   H2S16978   0.569   5.472  10.146  2.6774 -0.8622  0.7052
  153SAPE    C316979   0.986   5.572  10.415 -0.1451 -0.4829  0.3885
  153SAPE    HX16980   0.986   5.473  10.465  0.3762 -0.4683  0.4198
  153SAPE    HY16981   1.029   5.643  10.488 -1.1268  2.0069 -1.3207
  153SAPE   O3116982   1.064   5.572  10.290 -0.4892 -0.1284  0.5534
  153SAPE   C3116983   1.120   5.456  10.261 -0.1951  0.3670  1.1047
  153SAPE   O3216984   1.089   5.344  10.297 -0.4147  0.3651  0.7660
  153SAPE   C3216985   1.223   5.493  10.153 -0.0368 -0.2438  0.5563
  153SAPE   H2X16986   1.267   5.588  10.190  0.8446 -0.0837 -0.8362
  153SAPE   H2Y16987   1.165   5.514  10.060  0.6348  0.6874  0.3335
  153SAPE   C2316988   0.535   5.634  10.002  0.0039 -0.9591  0.0249
  153SAPE   H3R16989   0.484   5.707  10.069 -0.9041 -0.7201 -0.9080
  153SAPE   H3S16990   0.466   5.560   9.956 -0.7893 -0.3709  0.2393
  153SAPE   C2416991   0.608   5.701   9.887 -0.5501  0.8379  0.2455
  153SAPE   H4R16992   0.661   5.620   9.833 -1.0599 -0.0192  0.9821
  153SAPE   H4S16993   0.687   5.767   9.929  2.1031 -1.2748 -1.1156
  153SAPE   C2516994   0.519   5.773   9.800 -0.2347  0.0377  0.3531
  153SAPE   H5R16995   0.463   5.848   9.858  0.9453 -0.7367  2.5737
  153SAPE   C2616996   0.509   5.760   9.663 -0.1423 -0.1083  0.4698
  153SAPE   H6R16997   0.436   5.832   9.623  0.8920  1.5481  1.4251
  153SAPE   C2716998   0.585   5.665   9.573 -0.6375 -0.0327  0.3826
  153SAPE   H7R16999   0.514   5.610   9.508  1.3953 -1.5948 -0.6358
  153SAPE   H7S17000   0.647   5.592   9.631 -1.6000 -0.0221  1.4683
  153SAPE   C2817001   0.689   5.738   9.493 -0.7937  0.2309 -0.6849
  153SAPE   H8R17002   0.791   5.758   9.530 -0.1453 -1.1161 -1.6639
  153SAPE   C2917003   0.661   5.790   9.372 -0.0012 -0.2475  0.7292
  153SAPE   H9R17004   0.747   5.832   9.317 -0.7317 -1.2232 -1.2531
  153SAPE  C21017005   0.538   5.783   9.290  0.2732 -0.7351 -0.1203
  153SAPE  H10R17006   0.448   5.776   9.354  2.0978 -0.7099  2.6156
  153SAPE  H10S17007   0.536   5.685   9.239 -2.4767 -1.2667  0.8402
  153SAPE  C21117008   0.521   5.902   9.199 -0.4813  0.1143  0.1648
  153SAPE  H11R17009   0.467   5.988   9.241 -1.3096  0.0510 -0.7190
  153SAPE  C21217010   0.587   5.903   9.078 -0.0225  0.0671 -1.0538
  153SAPE  H12R17011   0.571   5.990   9.012  0.6097 -0.7545 -2.3147
  153SAPE  C21317012   0.668   5.793   9.018 -0.5021 -0.2098 -0.7419
  153SAPE  H13R17013   0.611   5.762   8.928 -0.8870 -3.4878  0.4819
  153SAPE  H13S17014   0.677   5.707   9.087 -2.9674  1.5081  1.9789
  153SAPE  C21417015   0.807   5.846   8.985 -0.3100 -0.2533  0.2899
  153SAPE  H14R17016   0.866   5.888   9.067  1.0194 -0.0004 -0.7571
  153SAPE  C21517017   0.868   5.845   8.867  0.6686  0.8733 -0.0773
  153SAPE  H15R17018   0.966   5.889   8.842  1.1293 -0.0968 -0.0465
  153SAPE  C21617019   0.815   5.785   8.737  0.4498 -0.9565  0.8070
  153SAPE  H16R17020   0.731   5.718   8.766 -0.6697  0.5360  1.1153
  153SAPE  H16S17021   0.891   5.715   8.695  1.6495  0.8975 -0.2695
  153SAPE  C21717022   0.762   5.879   8.634 -0.6176  0.1268 -0.0048
  153SAPE  H17R17023   0.734   5.828   8.540  2.1695 -1.5426 -0.0546
  153SAPE  H17S17024   0.835   5.958   8.607  2.5294 -1.7090  2.4350
  153SAPE  C21817025   0.628   5.938   8.687  0.3469 -0.6557  0.9150
  153SAPE  H18R17026   0.638   5.972   8.792 -1.7625  2.4604  0.2432
  153SAPE  H18S17027   0.551   5.858   8.679 -1.1417  0.8862 -1.3509
  153SAPE  C21917028   0.573   6.065   8.613  0.1086  0.1778 -0.2576
  153SAPE  H19R17029   0.547   6.024   8.513  2.4192 -1.1424 -0.3680
  153SAPE  H19S17030   0.649   6.145   8.598 -2.0345  2.6370  0.9909
  153SAPE  C22017031   0.445   6.122   8.681 -0.2003 -0.3862 -0.3626
  153SAPE  H20R17032   0.454   6.134   8.792 -1.6163 -0.3764 -0.2405
  153SAPE  H20S17033   0.362   6.051   8.661 -0.6718  0.6951 -2.5303
  153SAPE  H20T17034   0.428   6.213   8.620 -0.1604 -0.6762 -0.8097
  153SAPE   C3317035   1.333   5.386  10.125  0.6799 -0.9792 -0.7788
  153SAPE   H3X17036   1.287   5.285  10.110  0.8587 -1.4316  1.3242
  153SAPE   H3Y17037   1.404   5.371  10.210 -0.1161 -0.4827 -0.0031
  153SAPE   C3417038   1.416   5.405  10.000 -0.1017 -0.4478  0.0606
  153SAPE   H4X17039   1.479   5.313  10.000  0.4146 -0.1056 -1.0032
  153SAPE   H4Y17040   1.479   5.496  10.009  1.0393 -1.3101  1.2032
  153SAPE   C3517041   1.343   5.410   9.865  0.6056  0.9209 -0.2602
  153SAPE   H5X17042   1.416   5.472   9.809  1.5550 -0.0715 -0.1485
  153SAPE   H5Y17043   1.242   5.455   9.871 -0.5950 -1.5109 -0.7712
  153SAPE   C3617044   1.323   5.274   9.795  0.4947 -0.2062 -0.0862
  153SAPE   H6X17045   1.252   5.213   9.855  0.5760  1.4476  1.8203
  153SAPE   H6Y17046   1.416   5.213   9.801  1.3105  0.8903 -1.0565
  153SAPE   C3717047   1.283   5.299   9.648  0.4371  0.0601 -0.6330
  153SAPE   H7X17048   1.215   5.387   9.644  0.8854  0.4405 -0.0610
  153SAPE   H7Y17049   1.218   5.216   9.612 -0.4418  0.8301 -0.8689
  153SAPE   C3817050   1.399   5.317   9.554  0.0123  0.1850 -0.1035
  153SAPE   H8X17051   1.472   5.234   9.557  0.6059  0.7069  2.1282
  153SAPE   H8Y17052   1.464   5.404   9.578 -1.2843  1.6333 -1.6285
  153SAPE   C3917053   1.360   5.337   9.411  0.0932 -0.6417  0.2848
  153SAPE   H9X17054   1.305   5.434   9.419 -1.4391 -1.6243  2.4277
  153SAPE   H9Y17055   1.294   5.258   9.369  0.5156 -2.5770  3.0669
  153SAPE  C31017056   1.483   5.351   9.319 -0.4330  0.1225  0.2319
  153SAPE  H10X17057   1.577   5.379   9.372 -0.5334  0.2178  0.3576
  153SAPE  H10Y17058   1.458   5.414   9.232  0.5529  1.4954  0.9055
  153SAPE  C31117059   1.514   5.217   9.254 -0.0106  0.3902 -0.2077
  153SAPE  H11X17060   1.441   5.192   9.174  0.8326 -4.2320  0.1791
  153SAPE  H11Y17061   1.501   5.144   9.337 -0.7899  0.9193  0.1526
  153SAPE  C31217062   1.652   5.204   9.194  0.4682  0.6041 -1.1118
  153SAPE  H12X17063   1.666   5.099   9.160 -0.2715  0.5184 -1.1797
  153SAPE  H12Y17064   1.733   5.225   9.267 -0.1100  2.4320 -0.9466
  153SAPE  C31317065   1.678   5.297   9.084  0.0168 -0.2263  0.3341
  153SAPE  H13X17066   1.787   5.296   9.060  0.2182  1.1337  1.0553
  153SAPE  H13Y17067   1.653   5.403   9.109 -1.0052 -0.9259  2.5214
  153SAPE  C31417068   1.589   5.272   8.963 -0.4298 -0.6597  0.0732
  153SAPE  H14X17069   1.483   5.280   8.995 -1.4631 -2.5120 -2.5109
  153SAPE  H14Y17070   1.606   5.167   8.930 -1.2360 -0.9965  0.6828
  153SAPE  C31517071   1.618   5.374   8.841 -0.5766  0.2589 -0.1575
  153SAPE  H15X17072   1.609   5.484   8.854 -0.7006  0.2372 -0.0665
  153SAPE  H15Y17073   1.537   5.351   8.769  0.8517  0.4395 -1.9036
  153SAPE  C31617074   1.749   5.339   8.764  0.2566  0.3790 -0.1619
  153SAPE  H16X17075   1.745   5.231   8.739  2.4734  0.0939  0.5525
  153SAPE  H16Y17076   1.837   5.367   8.826  0.6966  0.4363 -0.7969
  153SAPE  C31717077   1.750   5.414   8.629 -0.0016  0.2633 -0.3722
  153SAPE  H17X17078   1.745   5.524   8.634 -1.4632  0.3809 -2.9822
  153SAPE  H17Y17079   1.666   5.382   8.563  0.2870 -2.8055  0.5876
  153SAPE  C31817080   1.884   5.380   8.560  0.6261  0.7924 -0.1416
  153SAPE  H18X17081   1.908   5.272   8.551 -0.1676  0.5165  0.8401
  153SAPE  H18Y17082   1.968   5.431   8.611  1.7684  0.5616 -1.7177
  153SAPE  H18Z17083   1.883   5.413   8.453  1.6060 -2.6452 -1.3463
  154SAPE     N17084   0.438   5.816  10.655 -0.8092  0.1219  0.1726
  154SAPE   HN117085   0.496   5.890  10.611 -1.4346  0.4516 -0.1288
  154SAPE   HN217086   0.491   5.737  10.696 -0.2395 -0.1545 -1.0585
  154SAPE   HN317087   0.371   5.774  10.587  0.4891 -1.0357 -0.4236
  154SAPE   C1217088   0.353   5.886  10.758  0.2022 -1.0025 -0.3236
  154SAPE  H12A17089   0.417   5.935  10.834 -2.7439 -1.5331  2.7580
  154SAPE  H12B17090   0.297   5.806  10.813  0.9405 -1.3017  0.0097
  154SAPE   C1117091   0.272   6.001  10.689  0.7276 -0.0353  0.2827
  154SAPE  H11A17092   0.349   6.077  10.664 -0.2572  0.2987 -2.0191
  154SAPE  H11B17093   0.201   6.033  10.768 -1.4514 -2.0223 -0.7205
  154SAPE     P17094   0.087   6.033  10.504 -0.1921 -0.0094  0.0065
  154SAPE   O1317095   0.065   5.977  10.367 -0.1560  0.3521 -0.0067
  154SAPE   O1417096  -0.034   6.035  10.591 -0.2398 -0.5873  0.3165
  154SAPE   O1217097   0.200   5.950  10.571  0.6520  0.7678  0.0959
  154SAPE   O1117098   0.151   6.179  10.495  0.1506 -0.0280  0.2133
  154SAPE    C117099   0.280   6.206  10.437 -0.0476  0.4324 -0.2704
  154SAPE    HA17100   0.335   6.292  10.481 -0.9387 -0.3076  2.4367
  154SAPE    HB17101   0.352   6.122  10.443 -1.1541 -0.6742 -1.5758
  154SAPE    C217102   0.261   6.236  10.281  0.3247 -0.3148 -0.1064
  154SAPE    HS17103   0.190   6.162  10.238  1.3196 -0.2279 -2.0128
  154SAPE   O2117104   0.393   6.219  10.216 -0.8711 -0.0255  0.3672
  154SAPE   C2117105   0.410   6.128  10.124 -0.6007  0.0258  0.4560
  154SAPE   O2217106   0.316   6.065  10.077 -0.2823  0.1176 -0.6276
  154SAPE   C2217107   0.563   6.100  10.089 -0.7750 -0.6451 -0.1188
  154SAPE   H2R17108   0.610   6.085  10.188  1.4425 -0.3845 -1.0663
  154SAPE   H2S17109   0.567   6.005  10.032 -1.2362 -1.3533  1.0099
  154SAPE    C317110   0.198   6.375  10.239 -0.1836 -0.3736 -0.4395
  154SAPE    HX17111   0.269   6.444  10.290  1.3148 -2.1854  0.0466
  154SAPE    HY17112   0.098   6.393  10.283 -0.1171  0.4689 -0.6191
  154SAPE   O3117113   0.203   6.383  10.096  0.6129 -0.1555  0.7202
  154SAPE   C3117114   0.108   6.329  10.030 -0.3761  0.2295 -0.5962
  154SAPE   O3217115   0.005   6.288  10.085  0.4192  0.3859  0.2550
  154SAPE   C3217116   0.144   6.304   9.882 -0.0876 -0.5275  0.0876
  154SAPE   H2X17117   0.254   6.298   9.866 -0.0074  0.5454  0.1672
  154SAPE   H2Y17118   0.113   6.389   9.819  5.6216 -0.0961 -2.7073
  154SAPE   C2317119   0.634   6.219  10.029  0.2085  0.1059 -0.5290
  154SAPE   H3R17120   0.743   6.215  10.048  0.4696  2.1330 -1.2767
  154SAPE   H3S17121   0.598   6.314  10.076 -1.8803 -0.7385 -0.2913
  154SAPE   C2417122   0.607   6.250   9.885  0.2344 -0.4204  0.2846
  154SAPE   H4R17123   0.682   6.329   9.865  0.1866  0.3822  2.8318
  154SAPE   H4S17124   0.509   6.297   9.860  0.2930  0.3298  1.3736
  154SAPE   C2517125   0.631   6.138   9.787  0.0804  0.3875  0.6840
  154SAPE   H5R17126   0.648   6.039   9.832  2.8849 -0.3515 -1.6691
  154SAPE   C2617127   0.628   6.150   9.651  0.4176 -0.3665 -0.9243
  154SAPE   H6R17128   0.647   6.063   9.586 -0.4766 -1.4882  0.2463
  154SAPE   C2717129   0.604   6.282   9.578 -0.6925  0.0720 -0.7265
  154SAPE   H7R17130   0.652   6.360   9.641  0.5064  0.1622 -1.7040
  154SAPE   H7S17131   0.496   6.307   9.580  0.1113  4.0966  0.1734
  154SAPE   C2817132   0.656   6.291   9.439  0.1336  0.1804 -0.2799
  154SAPE   H8R17133   0.693   6.196   9.397  0.2000  0.5394 -1.0488
  154SAPE   C2917134   0.687   6.395   9.367  0.2613  0.4045  0.6699
  154SAPE   H9R17135   0.728   6.380   9.266 -0.1729 -1.0553  0.6980
  154SAPE  C21017136   0.645   6.536   9.409 -0.6848  1.2428  0.7638
  154SAPE  H10R17137   0.646   6.560   9.517  0.3749  1.7380  0.6520
  154SAPE  H10S17138   0.546   6.557   9.362 -1.0529 -0.2714  0.8090
  154SAPE  C21117139   0.745   6.634   9.349  0.3215  0.0670 -0.0601
  154SAPE  H11R17140   0.811   6.672   9.429 -1.8629  0.7645  1.4857
  154SAPE  C21217141   0.754   6.675   9.219 -0.7450  0.5094  0.3053
  154SAPE  H12R17142   0.842   6.735   9.191  0.1697 -0.2735  1.4188
  154SAPE  C21317143   0.658   6.629   9.105  0.0862 -0.2030 -0.2659
  154SAPE  H13R17144   0.643   6.519   9.110  0.4482 -0.4202 -2.6615
  154SAPE  H13S17145   0.704   6.644   9.005  0.2870  3.1578  0.2257
  154SAPE  C21417146   0.524   6.703   9.113  0.3985  0.5296 -0.2782
  154SAPE  H14R17147   0.516   6.773   9.198  0.7636  2.6291 -1.8628
  154SAPE  C21517148   0.415   6.701   9.030 -0.3408 -0.0728  0.2928
  154SAPE  H15R17149   0.325   6.760   9.054  0.2347  1.9919 -2.1540
  154SAPE  C21617150   0.394   6.612   8.911 -0.3016  0.5465 -0.2416
  154SAPE  H16R17151   0.332   6.528   8.949  2.5903 -1.6117  0.0332
  154SAPE  H16S17152   0.487   6.567   8.870 -2.0134 -1.7070 -1.9380
  154SAPE  C21717153   0.333   6.685   8.794 -0.5399 -0.1170  0.6160
  154SAPE  H17R17154   0.408   6.760   8.762  0.0173 -1.4751 -1.4891
  154SAPE  H17S17155   0.238   6.742   8.804  0.1180  1.3538 -0.9410
  154SAPE  C21817156   0.315   6.592   8.669 -1.1023 -0.0454  0.0096
  154SAPE  H18R17157   0.310   6.648   8.573 -1.4787 -1.4730 -0.8224
  154SAPE  H18S17158   0.225   6.528   8.670 -1.1968  0.0812 -0.2154
  154SAPE  C21917159   0.428   6.496   8.642  0.1037 -0.0694 -0.2565
  154SAPE  H19R17160   0.429   6.408   8.710  0.1405  0.1199 -0.0102
  154SAPE  H19S17161   0.522   6.550   8.663  0.3281 -0.5194 -0.0780
  154SAPE  C22017162   0.432   6.448   8.498  0.2204  0.3228  0.4471
  154SAPE  H20R17163   0.443   6.535   8.430  1.7249 -1.3468 -1.5953
  154SAPE  H20S17164   0.332   6.404   8.480 -0.2317  0.5515  2.2022
  154SAPE  H20T17165   0.509   6.372   8.470 -0.2856  0.1724 -0.5706
  154SAPE   C3317166   0.065   6.187   9.835  0.1889 -0.7023 -0.0995
  154SAPE   H3X17167  -0.044   6.186   9.858  0.0449  2.1849 -0.2808
  154SAPE   H3Y17168   0.102   6.089   9.872  1.3152  0.1415  1.1301
  154SAPE   C3417169   0.086   6.174   9.681 -0.4408 -0.1463  0.3585
  154SAPE   H4X17170   0.036   6.265   9.641 -0.4584  0.4925  1.7584
  154SAPE   H4Y17171   0.027   6.083   9.657  0.1149  0.2023 -2.8334
  154SAPE   C3517172   0.221   6.184   9.627  0.0274  0.4345  1.0024
  154SAPE   H5X17173   0.274   6.094   9.665 -0.6529  0.4290  1.9731
  154SAPE   H5Y17174   0.274   6.278   9.654  0.2061  1.1659 -1.6479
  154SAPE   C3617175   0.220   6.184   9.477  0.0221  0.5115 -0.1100
  154SAPE   H6X17176   0.134   6.120   9.448 -0.5725  0.4965  1.5855
  154SAPE   H6Y17177   0.315   6.148   9.432 -0.5824 -3.2830  1.2840
  154SAPE   C3717178   0.189   6.321   9.411  0.2733 -0.7373  0.2595
  154SAPE   H7X17179   0.255   6.390   9.468 -1.4450 -0.9776  2.7056
  154SAPE   H7Y17180   0.079   6.335   9.418  0.4751  2.2521 -1.1321
  154SAPE   C3817181   0.203   6.320   9.258  0.8619  0.0749  0.4822
  154SAPE   H8X17182   0.309   6.318   9.227  1.1275 -0.1089  1.3944
  154SAPE   H8Y17183   0.173   6.420   9.219  0.8573  0.6474  1.8918
  154SAPE   C3917184   0.127   6.205   9.188 -1.2486 -0.2280  0.0514
  154SAPE   H9X17185   0.017   6.204   9.205 -1.6057  2.9405 -1.4368
  154SAPE   H9Y17186   0.167   6.111   9.231  1.5455  0.3595 -1.0509
  154SAPE  C31017187   0.159   6.199   9.036  0.1270  0.4247 -0.3153
  154SAPE  H10X17188   0.125   6.102   8.995  0.7861  1.1974 -2.8422
  154SAPE  H10Y17189   0.269   6.194   9.026  0.1423  2.3861 -1.6056
  154SAPE  C31117190   0.098   6.314   8.953 -0.3181  0.8643 -1.0026
  154SAPE  H11X17191   0.145   6.411   8.978  1.9871 -0.7058  1.2540
  154SAPE  H11Y17192   0.001   6.330   9.005 -0.7566 -1.2705 -1.0413
  154SAPE  C31217193   0.066   6.286   8.806  0.7081 -0.1032  0.0651
  154SAPE  H12X17194   0.011   6.190   8.791  2.3018 -0.9786 -0.3962
  154SAPE  H12Y17195   0.161   6.258   8.756 -0.5268 -2.3013 -1.2417
  154SAPE  C31317196  -0.005   6.400   8.731  0.2533  0.2183 -0.7292
  154SAPE  H13X17197   0.052   6.489   8.767  0.6296 -0.8952  1.6172
  154SAPE  H13Y17198  -0.103   6.425   8.775  1.7910  2.2940  1.8038
  154SAPE  C31417199  -0.027   6.385   8.584  0.4121  0.8140  0.1297
  154SAPE  H14X17200  -0.115   6.321   8.563 -1.0405  2.5648  0.6705
  154SAPE  H14Y17201   0.069   6.356   8.536  0.4220  0.2862  0.4640
  154SAPE  C31517202  -0.071   6.519   8.519 -0.4885 -0.0137  0.5528
  154SAPE  H15X17203  -0.019   6.614   8.543 -1.1092  0.5313 -0.1928
  154SAPE  H15Y17204  -0.178   6.537   8.543 -0.4936  2.9963 -1.2703
  154SAPE  C31617205  -0.066   6.518   8.365 -0.1705  0.2994 -0.0821
  154SAPE  H16X17206  -0.114   6.426   8.325 -0.0512 -0.3742  1.2810
  154SAPE  H16Y17207   0.040   6.524   8.332 -0.2490  0.2503 -0.3448
  154SAPE  C31717208  -0.136   6.641   8.304  0.7688 -0.3242  0.0362
  154SAPE  H17X17209  -0.105   6.731   8.362  0.8024 -0.3278  0.0245
  154SAPE  H17Y17210  -0.246   6.632   8.314  0.5109  1.7198 -0.4359
  154SAPE  C31817211  -0.096   6.658   8.160 -0.5891  0.3148  0.6466
  154SAPE  H18X17212  -0.047   6.569   8.116 -1.4163  0.9265 -1.6508
  154SAPE  H18Y17213  -0.030   6.747   8.169 -0.6995  0.3526  1.0905
  154SAPE  H18Z17214  -0.174   6.689   8.087 -0.9306 -2.4328 -0.2625
  155SAPE     N17215   1.250   0.776  10.727 -0.6797 -0.1841 -0.2149
  155SAPE   HN117216   1.313   0.694  10.727 -0.4594 -0.0769  2.2373
  155SAPE   HN217217   1.224   0.802  10.629  0.2127 -2.1889 -1.0263
  155SAPE   HN317218   1.303   0.857  10.765  0.8298 -1.2767  0.0985
  155SAPE   C1217219   1.126   0.759  10.809 -0.0938 -0.5530  0.1454
  155SAPE  H12A17220   1.083   0.862  10.806 -0.0194 -0.4679  1.4362
  155SAPE  H12B17221   1.158   0.733  10.912  0.8203 -3.4696 -0.7885
  155SAPE   C1117222   1.036   0.658  10.742 -0.6162 -0.3563  0.1842
  155SAPE  H11A17223   1.018   0.684  10.635  0.7812  0.9236  0.2242
  155SAPE  H11B17224   0.933   0.665  10.785 -1.2932  1.1176 -1.5434
  155SAPE     P17225   1.010   0.397  10.791 -0.3560  0.1081 -0.0612
  155SAPE   O1317226   1.103   0.289  10.833  0.3588  0.4237 -0.2549
  155SAPE   O1417227   0.913   0.444  10.892 -0.6228 -0.2170  0.4672
  155SAPE   O1217228   1.094   0.527  10.747 -0.0801 -0.1528  0.2107
  155SAPE   O1117229   0.928   0.353  10.664 -0.0662 -0.1155 -0.3802
  155SAPE    C117230   0.989   0.286  10.554 -0.3250 -0.3794 -0.0860
  155SAPE    HA17231   1.029   0.188  10.587 -0.3766  0.0947  1.4406
  155SAPE    HB17232   0.909   0.270  10.479 -1.2392 -1.6951  1.1169
  155SAPE    C217233   1.098   0.364  10.474  0.4363 -0.6609 -0.1206
  155SAPE    HS17234   1.165   0.409  10.550 -0.2919  3.1115 -1.5201
  155SAPE   O2117235   1.032   0.458  10.391 -0.8103  0.6290  0.2468
  155SAPE   C2117236   1.113   0.551  10.359  0.5781 -0.8229 -0.5058
  155SAPE   O2217237   1.220   0.572  10.407 -0.2934 -0.2034 -0.1283
  155SAPE   C2217238   1.049   0.648  10.254 -0.4537 -0.7003  0.4362
  155SAPE   H2R17239   0.941   0.641  10.277 -0.4137 -3.9244  0.0864
  155SAPE   H2S17240   1.079   0.754  10.269 -1.4803 -0.6154  2.0429
  155SAPE    C317241   1.194   0.265  10.401  0.0804 -0.3613  0.3508
  155SAPE    HX17242   1.236   0.202  10.483 -0.5012 -2.3726 -0.8316
  155SAPE    HY17243   1.279   0.329  10.369 -0.8394  0.2659 -0.9233
  155SAPE   O3117244   1.126   0.194  10.290  0.1249  0.1283  0.6300
  155SAPE   C3117245   1.212   0.143  10.203 -0.1009 -0.6286 -0.1470
  155SAPE   O3217246   1.333   0.165  10.208 -0.1855  0.4302  0.3257
  155SAPE   C3217247   1.148   0.057  10.093 -0.1663  0.6199 -0.3476
  155SAPE   H2X17248   1.039   0.075  10.103 -0.7776 -3.1501  1.8801
  155SAPE   H2Y17249   1.167  -0.051  10.112 -1.3340  0.5411  0.4407
  155SAPE   C2317250   1.072   0.615  10.107 -0.2015  0.4423 -0.3368
  155SAPE   H3R17251   0.994   0.654  10.039  1.3467  0.6962 -2.0681
  155SAPE   H3S17252   1.066   0.504  10.108  1.4805  0.3177  0.0087
  155SAPE   C2417253   1.212   0.659  10.056 -1.2590  0.3998  0.4024
  155SAPE   H4R17254   1.237   0.601   9.965 -1.6450 -0.9995  1.1579
  155SAPE   H4S17255   1.281   0.621  10.134  2.6671  2.3919 -1.8132
  155SAPE   C2517256   1.242   0.812  10.031  0.0326  0.3400 -0.5828
  155SAPE   H5R17257   1.244   0.864  10.127  1.7550 -1.4614  0.4408
  155SAPE   C2617258   1.255   0.873   9.911 -0.0129 -0.5077 -0.3391
  155SAPE   H6R17259   1.261   0.982   9.895 -1.2788 -0.3524  0.0968
  155SAPE   C2717260   1.262   0.797   9.781 -0.5896  0.0678  0.1462
  155SAPE   H7R17261   1.229   0.861   9.697 -2.1692 -0.2850  0.4475
  155SAPE   H7S17262   1.175   0.728   9.791 -0.2465 -0.3954 -0.0320
  155SAPE   C2817263   1.392   0.733   9.752  0.3862 -0.4292 -0.0293
  155SAPE   H8R17264   1.457   0.720   9.840  0.1013 -4.7426 -0.2257
  155SAPE   C2917265   1.420   0.679   9.637 -0.0465  0.5893 -0.7087
  155SAPE   H9R17266   1.515   0.622   9.634 -1.6092 -2.3496  1.1245
  155SAPE  C21017267   1.326   0.679   9.517  0.0221 -0.2350  1.5090
  155SAPE  H10R17268   1.343   0.773   9.461 -2.3595  0.2579  1.4913
  155SAPE  H10S17269   1.219   0.687   9.546 -0.7430 -0.9898 -0.8179
  155SAPE  C21117270   1.336   0.554   9.431 -0.0122  0.5450 -0.1646
  155SAPE  H11R17271   1.363   0.459   9.480 -1.1370 -0.9259 -2.1987
  155SAPE  C21217272   1.332   0.540   9.294 -0.5907  0.1785 -0.2575
  155SAPE  H12R17273   1.346   0.440   9.251  1.0003 -0.2845  1.2466
  155SAPE  C21317274   1.301   0.637   9.184  0.2499  0.1153  0.5034
  155SAPE  H13R17275   1.388   0.666   9.122  0.9087 -2.9300 -0.1267
  155SAPE  H13S17276   1.268   0.737   9.221  1.1200  0.9986 -1.0123
  155SAPE  C21417277   1.186   0.578   9.103  0.1331  0.4631  0.9144
  155SAPE  H14R17278   1.200   0.500   9.027 -4.1042  1.4072 -1.1433
  155SAPE  C21517279   1.056   0.615   9.101 -0.5477  0.3402 -0.4860
  155SAPE  H15R17280   0.985   0.553   9.045 -1.2838  0.3636  0.3849
  155SAPE  C21617281   1.001   0.725   9.173 -0.0249  0.5196  0.3251
  155SAPE  H16R17282   1.069   0.812   9.160  0.7523 -0.1987 -0.6100
  155SAPE  H16S17283   0.991   0.698   9.280  0.4408 -1.2092 -0.0314
  155SAPE  C21717284   0.857   0.751   9.127 -0.6045 -1.0729  0.2328
  155SAPE  H17R17285   0.804   0.815   9.201  0.6632  0.7248 -0.3416
  155SAPE  H17S17286   0.790   0.663   9.127  0.4341 -1.8817  0.9928
  155SAPE  C21817287   0.854   0.811   8.984 -0.3230 -0.4259 -0.4908
  155SAPE  H18R17288   0.889   0.733   8.912  1.7052 -1.3905  1.4170
  155SAPE  H18S17289   0.921   0.899   8.993  0.8278 -1.3958  0.9362
  155SAPE  C21917290   0.718   0.860   8.937  0.4505  0.1145 -0.1261
  155SAPE  H19R17291   0.696   0.941   9.011  1.1521  0.1506  0.0524
  155SAPE  H19S17292   0.640   0.783   8.954  1.2822 -0.7060  0.0205
  155SAPE  C22017293   0.722   0.913   8.795  0.2232 -0.4031  0.1306
  155SAPE  H20R17294   0.618   0.935   8.763  0.2163  0.5588  0.7719
  155SAPE  H20S17295   0.748   0.835   8.721 -1.4903 -0.6425 -0.2539
  155SAPE  H20T17296   0.798   0.995   8.789  0.9203 -0.8666  2.0100
  155SAPE   C3317297   1.204   0.100   9.953  0.2747 -0.2496 -0.0432
  155SAPE   H3X17298   1.179   0.014   9.888  0.3040 -0.0582 -0.3068
  155SAPE   H3Y17299   1.314   0.108   9.942  0.3059 -1.3395 -0.7129
  155SAPE   C3417300   1.146   0.230   9.896 -0.0889 -0.1850 -0.3973
  155SAPE   H4X17301   1.214   0.313   9.923 -0.1239 -0.7794  1.6816
  155SAPE   H4Y17302   1.053   0.237   9.956 -0.8526 -0.3940 -1.5197
  155SAPE   C3517303   1.109   0.218   9.746  0.1856 -0.2504  1.3860
  155SAPE   H5X17304   1.032   0.138   9.737  0.8015 -0.6727 -0.5166
  155SAPE   H5Y17305   1.198   0.180   9.692  0.5752  1.6758  0.5995
  155SAPE   C3617306   1.067   0.355   9.683 -0.0355 -0.1719 -0.0180
  155SAPE   H6X17307   1.136   0.439   9.707 -0.3168 -0.2264  1.0382
  155SAPE   H6Y17308   0.975   0.379   9.742 -0.0971  1.0976 -0.5832
  155SAPE   C3717309   1.032   0.347   9.534  0.3613  0.4690  0.3215
  155SAPE   H7X17310   1.114   0.301   9.474 -0.4936  2.5304 -2.6756
  155SAPE   H7Y17311   1.035   0.451   9.495  2.4482  0.5818  0.6948
  155SAPE   C3817312   0.893   0.274   9.512  0.4215 -0.1624  0.2353
  155SAPE   H8X17313   0.824   0.316   9.588  0.6565 -0.2674  0.5058
  155SAPE   H8Y17314   0.915   0.166   9.525 -1.5056 -0.7008 -0.5428
  155SAPE   C3917315   0.839   0.305   9.367  0.3504  0.1797 -0.4909
  155SAPE   H9X17316   0.909   0.286   9.284 -1.4406  0.7813 -2.2158
  155SAPE   H9Y17317   0.804   0.409   9.385  1.1993  0.1686  1.5511
  155SAPE  C31017318   0.722   0.212   9.342 -0.8064 -0.3230 -0.3161
  155SAPE  H10X17319   0.640   0.225   9.415 -1.2032 -1.1413 -0.5991
  155SAPE  H10Y17320   0.745   0.105   9.361 -1.0912 -0.3472 -0.1000
  155SAPE  C31117321   0.660   0.221   9.198  0.4710 -0.0548  0.4297
  155SAPE  H11X17322   0.567   0.161   9.205  0.6761 -0.5861 -1.0225
  155SAPE  H11Y17323   0.728   0.172   9.125  2.2671  0.1478  1.8973
  155SAPE  C31217324   0.627   0.356   9.144  0.4229 -0.4822 -0.2016
  155SAPE  H12X17325   0.723   0.410   9.131 -0.2749  1.3578  1.6673
  155SAPE  H12Y17326   0.556   0.408   9.213  0.0260 -1.4832  0.1702
  155SAPE  C31317327   0.560   0.343   9.010 -0.2934 -0.0267 -0.4467
  155SAPE  H13X17328   0.467   0.282   9.012 -0.8863  0.8864  0.6420
  155SAPE  H13Y17329   0.629   0.302   8.933 -1.3500  3.1931 -3.3816
  155SAPE  C31417330   0.534   0.483   8.953 -0.1261 -0.1247  0.0714
  155SAPE  H14X17331   0.623   0.549   8.966 -3.6791  4.7704  3.8248
  155SAPE  H14Y17332   0.455   0.533   9.013  0.6313  2.0591 -0.6409
  155SAPE  C31517333   0.505   0.472   8.805  0.3256 -0.5805  0.6090
  155SAPE  H15X17334   0.410   0.423   8.774  0.9717  0.4198 -3.5617
  155SAPE  H15Y17335   0.584   0.413   8.754 -0.1244 -0.3287 -0.4023
  155SAPE  C31617336   0.501   0.607   8.724 -0.7028  0.4372  0.1185
  155SAPE  H16X17337   0.610   0.625   8.714  0.0829 -3.3084  0.2682
  155SAPE  H16Y17338   0.440   0.687   8.770 -0.8740  1.5850 -1.9725
  155SAPE  C31717339   0.451   0.578   8.579 -0.0269  0.6215 -0.4596
  155SAPE  H17X17340   0.455   0.674   8.523 -0.2692  0.6175 -0.4853
  155SAPE  H17Y17341   0.343   0.561   8.598  0.1799  0.7450  0.9614
  155SAPE  C31817342   0.526   0.474   8.480  0.0790  0.0081  0.1645
  155SAPE  H18X17343   0.637   0.478   8.489 -0.0475 -0.1858  2.1899
  155SAPE  H18Y17344   0.492   0.505   8.379 -3.1936 -0.5189  0.9855
  155SAPE  H18Z17345   0.488   0.371   8.495 -0.3352  0.2269  0.6369
  156SAPE     N17346   6.162   3.518  10.641  0.8843  0.0148 -0.6913
  156SAPE   HN117347   6.198   3.570  10.723  0.4761 -0.5005 -0.1656
  156SAPE   HN217348   6.074   3.560  10.606 -1.2464 -1.0545  2.8074
  156SAPE   HN317349   6.127   3.428  10.681 -2.3470  0.2150 -2.6752
  156SAPE   C1217350   6.273   3.496  10.540  0.4185 -0.0428 -0.0259
  156SAPE  H12A17351   6.238   3.409  10.480 -1.8993  0.5499  0.3830
  156SAPE  H12B17352   6.360   3.468  10.604  0.5650 -1.4901 -0.8180
  156SAPE   C1117353   6.309   3.627  10.468  0.5198  0.0334 -0.2602
  156SAPE  H11A17354   6.241   3.652  10.385  1.1463  2.2965 -0.1720
  156SAPE  H11B17355   6.408   3.617  10.418 -0.2098  1.8712 -2.2151
  156SAPE     P17356   6.410   3.860  10.572  0.2592  0.2805  0.0718
  156SAPE   O1317357   6.344   3.969  10.642  0.7940  0.1175  0.1226
  156SAPE   O1417358   6.537   3.811  10.631 -0.3073  0.2420 -0.3111
  156SAPE   O1217359   6.314   3.736  10.564  0.2846 -0.2825  0.1906
  156SAPE   O1117360   6.425   3.902  10.421 -0.4023  0.4210  0.4850
  156SAPE    C117361   6.528   3.997  10.395 -0.6632 -0.1747  0.1924
  156SAPE    HA17362   6.515   4.086  10.461  0.3331  0.7047 -0.7586
  156SAPE    HB17363   6.631   3.961  10.418 -0.8998 -1.0285 -0.0507
  156SAPE    C217364   6.519   4.055  10.246 -0.1996  0.6638 -0.7294
  156SAPE    HS17365   6.559   4.158  10.259 -0.2528  0.5112  0.8297
  156SAPE   O2117366   6.384   4.055  10.196 -0.3025 -0.2661 -0.0604
  156SAPE   C2117367   6.301   4.115  10.270  0.2626  0.2269  0.2541
  156SAPE   O2217368   6.319   4.206  10.351 -0.2571 -0.5387  0.0334
  156SAPE   C2217369   6.163   4.062  10.218 -0.1350 -0.1262 -0.4652
  156SAPE   H2R17370   6.179   3.960  10.176 -1.8648  0.2036 -2.0385
  156SAPE   H2S17371   6.100   4.049  10.308  0.4934  2.2088  0.3695
  156SAPE    C317372   6.622   3.986  10.149  0.0550 -0.4581 -0.4742
  156SAPE    HX17373   6.613   3.878  10.175  1.7488 -0.2798  1.0842
  156SAPE    HY17374   6.726   4.015  10.173 -0.7327  1.2634  1.0255
  156SAPE   O3117375   6.596   4.002  10.008  0.0038 -0.1443 -0.1354
  156SAPE   C3117376   6.641   4.114   9.956  0.0867  0.2237 -0.0794
  156SAPE   O3217377   6.734   4.182   9.995 -0.3652 -0.3198 -0.7393
  156SAPE   C3217378   6.564   4.145   9.834  0.9905  0.5955  0.2633
  156SAPE   H2X17379   6.543   4.254   9.844 -0.1216  0.3938  0.1786
  156SAPE   H2Y17380   6.471   4.086   9.822  1.7989 -0.9139  1.0293
  156SAPE   C2317381   6.099   4.149  10.109 -0.4066  0.2935  0.1549
  156SAPE   H3R17382   6.114   4.259  10.121 -0.1436  0.2206  0.5150
  156SAPE   H3S17383   5.993   4.118  10.107 -0.1798 -0.5311  0.4270
  156SAPE   C2417384   6.152   4.099   9.968 -0.9384  0.7027  0.0734
  156SAPE   H4R17385   6.145   3.988   9.968 -1.7737  0.7400  0.9410
  156SAPE   H4S17386   6.260   4.123   9.960 -0.7379 -0.0033  0.5891
  156SAPE   C2517387   6.061   4.145   9.860  0.2166 -0.2137 -0.1948
  156SAPE   H5R17388   5.975   4.199   9.902 -1.2489 -2.5605  0.0400
  156SAPE   C2617389   6.074   4.129   9.725  0.5778 -0.4357 -0.2305
  156SAPE   H6R17390   6.005   4.184   9.659 -0.0480 -1.0459 -0.0964
  156SAPE   C2717391   6.191   4.065   9.662 -0.3658 -0.2418  0.0195
  156SAPE   H7R17392   6.260   3.993   9.710 -2.7420 -2.7663 -0.0766
  156SAPE   H7S17393   6.246   4.148   9.612 -0.8273 -0.3446 -0.6778
  156SAPE   C2817394   6.134   3.983   9.555 -0.0972 -0.1934  0.6218
  156SAPE   H8R17395   6.097   3.886   9.591  2.0775 -1.4983 -0.4305
  156SAPE   C2917396   6.142   4.002   9.420  0.2755  0.3452  0.1793
  156SAPE   H9R17397   6.079   3.936   9.359 -2.0871 -0.0574  2.8166
  156SAPE  C21017398   6.207   4.110   9.344  0.0489 -0.3842  0.0768
  156SAPE  H10R17399   6.271   4.076   9.260  1.6136  2.6136 -0.0538
  156SAPE  H10S17400   6.279   4.173   9.399  1.8938  0.0257 -2.6086
  156SAPE  C21117401   6.103   4.198   9.293  0.4685  0.0191 -0.3876
  156SAPE  H11R17402   6.084   4.280   9.363  0.9235  1.6210 -2.0599
  156SAPE  C21217403   6.050   4.182   9.170  0.5782  0.6732 -0.5603
  156SAPE  H12R17404   5.965   4.247   9.147 -0.8773 -1.0107 -0.1325
  156SAPE  C21317405   6.081   4.085   9.067 -0.8946  0.1465  0.5296
  156SAPE  H13R17406   5.984   4.054   9.021 -0.5783  1.4183 -1.0993
  156SAPE  H13S17407   6.124   3.997   9.118 -1.7488 -0.2261  0.6238
  156SAPE  C21417408   6.167   4.150   8.966  0.7099  0.3038  0.1555
  156SAPE  H14R17409   6.272   4.153   9.000  0.6895  0.0049  0.2488
  156SAPE  C21517410   6.129   4.224   8.859  0.1041 -0.6472  0.4186
  156SAPE  H15R17411   6.210   4.265   8.796 -1.7389 -0.3149 -1.8898
  156SAPE  C21617412   5.988   4.251   8.796 -0.1733 -0.2516  0.0556
  156SAPE  H16R17413   5.963   4.359   8.799 -1.9425 -0.6011 -0.6898
  156SAPE  H16S17414   5.905   4.201   8.850  0.0407 -0.3910  0.2587
  156SAPE  C21717415   5.995   4.215   8.644  0.0402  0.2049 -0.1184
  156SAPE  H17R17416   6.052   4.121   8.630 -0.1673  0.1735 -0.8192
  156SAPE  H17S17417   6.052   4.295   8.593  0.1568  0.7411  0.8295
  156SAPE  C21817418   5.854   4.201   8.569 -0.8632  0.0932  0.2644
  156SAPE  H18R17419   5.806   4.117   8.624 -1.1533 -0.3019 -0.5656
  156SAPE  H18S17420   5.868   4.161   8.466  1.9243  2.4162 -0.4096
  156SAPE  C21917421   5.768   4.329   8.582  0.9127  0.3028  0.7712
  156SAPE  H19R17422   5.824   4.420   8.553  1.9757  0.0537  1.9415
  156SAPE  H19S17423   5.743   4.348   8.689  2.3397 -0.6162  1.2988
  156SAPE  C22017424   5.630   4.337   8.498 -0.1432 -0.1153  0.8878
  156SAPE  H20R17425   5.587   4.235   8.510  2.3824 -1.0596  2.9629
  156SAPE  H20S17426   5.650   4.349   8.389 -1.7223 -0.4523  0.5408
  156SAPE  H20T17427   5.573   4.425   8.535  1.4595  1.7622 -0.8791
  156SAPE   C3317428   6.660   4.118   9.710 -0.3820 -0.2490  0.2848
  156SAPE   H3X17429   6.707   4.019   9.692  2.5189  0.7794  1.5627
  156SAPE   H3Y17430   6.745   4.188   9.719 -0.2402 -0.1897 -1.2416
  156SAPE   C3417431   6.594   4.166   9.583 -0.1187  0.5298 -0.1961
  156SAPE   H4X17432   6.572   4.274   9.595 -0.3868  0.1893  3.2847
  156SAPE   H4Y17433   6.493   4.121   9.575  0.0066  0.5670 -3.5946
  156SAPE   C3517434   6.681   4.138   9.454 -0.3908  0.4941 -0.0097
  156SAPE   H5X17435   6.708   4.031   9.446 -3.0541 -0.1189 -2.2839
  156SAPE   H5Y17436   6.779   4.190   9.468 -0.8521  1.3861  0.0331
  156SAPE   C3617437   6.618   4.158   9.319 -0.2542  0.2914 -0.3008
  156SAPE   H6X17438   6.621   4.266   9.294 -2.3582  0.6781  0.8442
  156SAPE   H6Y17439   6.511   4.128   9.326 -0.1656 -0.5751 -2.0919
  156SAPE   C3717440   6.669   4.073   9.202 -0.7006 -0.0739  0.5884
  156SAPE   H7X17441   6.642   3.966   9.221  1.0125 -0.1687  2.9745
  156SAPE   H7Y17442   6.779   4.074   9.188 -0.8126 -2.5807 -1.2253
  156SAPE   C3817443   6.611   4.107   9.064 -0.0172 -0.0272 -0.2858
  156SAPE   H8X17444   6.666   4.201   9.038 -0.4882  0.3117 -0.0697
  156SAPE   H8Y17445   6.501   4.119   9.067 -0.2931 -1.5284 -2.2061
  156SAPE   C3917446   6.637   3.999   8.960  0.2944 -0.1016 -0.4810
  156SAPE   H9X17447   6.595   3.902   8.994 -3.0618  0.9365 -1.3590
  156SAPE   H9Y17448   6.746   3.987   8.941  0.4170 -1.0922  0.7599
  156SAPE  C31017449   6.561   4.032   8.822  0.3644 -0.3993  0.7405
  156SAPE  H10X17450   6.594   4.135   8.797 -0.8498 -0.4533 -1.3602
  156SAPE  H10Y17451   6.452   4.036   8.842  0.0135  0.2220 -1.0680
  156SAPE  C31117452   6.596   3.935   8.709 -1.0577  0.2667  0.6157
  156SAPE  H11X17453   6.536   3.974   8.625 -0.0342  0.4417 -0.0497
  156SAPE  H11Y17454   6.567   3.833   8.742 -1.3703 -1.0626 -3.2768
  156SAPE  C31217455   6.736   3.956   8.658  0.1111 -0.0824 -0.1648
  156SAPE  H12X17456   6.798   3.899   8.730 -2.0275 -2.0896  0.1956
  156SAPE  H12Y17457   6.762   4.061   8.685 -0.2985  0.3571 -1.3909
  156SAPE  C31317458   6.755   3.927   8.510 -0.7030  0.5856  0.2632
  156SAPE  H13X17459   6.698   3.994   8.442  0.4363  0.8910 -0.4288
  156SAPE  H13Y17460   6.729   3.822   8.488 -1.5828  0.6085  1.1446
  156SAPE  C31417461   6.901   3.950   8.474  0.3932 -0.2470  0.5924
  156SAPE  H14X17462   6.939   4.042   8.524  2.2865 -0.7368  0.1674
  156SAPE  H14Y17463   6.898   3.967   8.364  0.2328 -1.8960  0.3038
  156SAPE  C31517464   6.992   3.827   8.493  0.3763  0.5965  0.1649
  156SAPE  H15X17465   6.924   3.739   8.492 -1.4828  1.9249 -2.1831
  156SAPE  H15Y17466   7.043   3.841   8.591  1.7744  0.4442 -0.5136
  156SAPE  C31617467   7.107   3.827   8.393 -0.1597  0.3438 -0.5818
  156SAPE  H16X17468   7.182   3.752   8.428  0.1682  0.7252 -0.4604
  156SAPE  H16Y17469   7.148   3.930   8.387 -0.5257  0.5710  0.5672
  156SAPE  C31717470   7.059   3.772   8.257 -0.0970  0.1811  0.5148
  156SAPE  H17X17471   6.996   3.843   8.198 -0.1668 -1.2369 -1.2180
  156SAPE  H17Y17472   7.001   3.680   8.278  1.7661 -1.0964  0.3159
  156SAPE  C31817473   7.162   3.734   8.147  0.3399  0.2662 -0.0168
  156SAPE  H18X17474   7.184   3.821   8.080  0.6461  2.0872  2.3118
  156SAPE  H18Y17475   7.116   3.661   8.077  0.7863 -1.0800  1.0636
  156SAPE  H18Z17476   7.250   3.685   8.193 -0.0625 -0.2633  0.1974
  157SAPE     N17477   5.453   3.774  10.736  0.0052 -0.2202 -0.1776
  157SAPE   HN117478   5.452   3.839  10.655 -0.0277  0.4020  0.3190
  157SAPE   HN217479   5.413   3.681  10.713 -1.1013  0.2593 -0.2350
  157SAPE   HN317480   5.390   3.820  10.805  0.2475 -2.2967  1.5237
  157SAPE   C1217481   5.600   3.758  10.781  0.3931 -0.0039  0.0825
  157SAPE  H12A17482   5.605   3.656  10.823 -0.1978  0.1094  0.4306
  157SAPE  H12B17483   5.616   3.833  10.862  1.1458  1.2713 -1.1848
  157SAPE   C1117484   5.706   3.784  10.668  0.7137  0.3536  0.0378
  157SAPE  H11A17485   5.811   3.785  10.705  0.4734  3.7009  0.9693
  157SAPE  H11B17486   5.689   3.890  10.639  2.7205  0.4337 -0.9740
  157SAPE     P17487   5.775   3.567  10.516 -0.0667 -0.2189 -0.2279
  157SAPE   O1317488   5.915   3.588  10.562 -0.0213  0.4683 -0.0983
  157SAPE   O1417489   5.708   3.456  10.579 -0.1056  0.7460  0.1921
  157SAPE   O1217490   5.688   3.699  10.555  0.0562 -0.2726 -0.1304
  157SAPE   O1117491   5.762   3.560  10.362  0.0461  0.1064  0.1575
  157SAPE    C117492   5.648   3.511  10.293 -0.1509 -1.3063 -0.0911
  157SAPE    HA17493   5.555   3.519  10.352  0.1765  0.0906  0.2632
  157SAPE    HB17494   5.632   3.581  10.208  2.6870  0.6580  0.8315
  157SAPE    C217495   5.670   3.366  10.228  1.0557  0.0635 -0.2004
  157SAPE    HS17496   5.696   3.293  10.307  1.1304  1.7753  1.4233
  157SAPE   O2117497   5.778   3.358  10.135 -0.0920 -0.1383 -0.1078
  157SAPE   C2117498   5.895   3.394  10.195 -0.0413  0.1683  0.0434
  157SAPE   O2217499   5.922   3.352  10.306 -0.4663 -0.4224 -0.0866
  157SAPE   C2217500   5.973   3.489  10.098  0.1431  0.3674  0.4737
  157SAPE   H2R17501   6.010   3.432  10.010  0.5467  0.7249  0.4089
  157SAPE   H2S17502   5.898   3.560  10.057 -1.8689 -1.2575  1.1808
  157SAPE    C317503   5.545   3.302  10.157 -0.2173  0.1430 -0.1164
  157SAPE    HX17504   5.473   3.259  10.228  1.8745 -2.3411  0.6556
  157SAPE    HY17505   5.575   3.202  10.119 -1.9605 -0.4674  0.0743
  157SAPE   O3117506   5.487   3.376  10.044 -0.0649  0.1052 -0.4188
  157SAPE   C3117507   5.388   3.458  10.089 -0.6326  0.0697  0.0897
  157SAPE   O3217508   5.351   3.475  10.203 -0.0158  0.0986  0.2228
  157SAPE   C3217509   5.346   3.550   9.967 -0.0923 -0.3237 -0.9038
  157SAPE   H2X17510   5.298   3.488   9.888 -2.1540 -0.4396  0.3831
  157SAPE   H2Y17511   5.439   3.597   9.927  1.6246 -0.6970  2.3032
  157SAPE   C2317512   6.081   3.580  10.167  0.0379  0.0563 -0.0401
  157SAPE   H3R17513   6.156   3.510  10.211 -0.8526 -0.1944  1.1234
  157SAPE   H3S17514   6.030   3.642  10.243 -1.5736 -0.5318 -0.5955
  157SAPE   C2417515   6.164   3.671  10.081  0.3954 -0.9457  0.3207
  157SAPE   H4R17516   6.240   3.731  10.136 -0.5225 -0.2138  0.8250
  157SAPE   H4S17517   6.088   3.733  10.029  1.7203 -0.8661 -1.6456
  157SAPE   C2517518   6.246   3.583   9.981 -0.0508  0.0204 -0.7862
  157SAPE   H5R17519   6.323   3.517  10.024 -2.1400 -0.6903  2.2048
  157SAPE   C2617520   6.234   3.589   9.848 -0.6364 -0.3768 -0.2459
  157SAPE   H6R17521   6.312   3.531   9.796  0.7034 -0.6515  1.9343
  157SAPE   C2717522   6.145   3.668   9.765 -1.2361  0.6750 -0.4123
  157SAPE   H7R17523   6.204   3.716   9.684 -1.1783 -0.5659 -1.1352
  157SAPE   H7S17524   6.107   3.755   9.822 -0.3759  1.1206 -0.5053
  157SAPE   C2817525   6.034   3.587   9.705  0.4306 -0.6758 -0.0004
  157SAPE   H8R17526   5.983   3.532   9.785 -1.9360 -0.2083 -1.0968
  157SAPE   C2917527   5.996   3.567   9.579 -0.0611 -0.3070  0.3796
  157SAPE   H9R17528   5.901   3.516   9.557 -1.2086  1.8365  0.1769
  157SAPE  C21017529   6.073   3.618   9.455  0.4021  0.4309 -0.2864
  157SAPE  H10R17530   6.170   3.669   9.477  0.7159 -0.7887  1.3352
  157SAPE  H10S17531   6.002   3.695   9.418 -0.8517 -0.0319  1.0799
  157SAPE  C21117532   6.085   3.518   9.351  0.8694  0.6049  0.2745
  157SAPE  H11R17533   6.087   3.414   9.386 -0.9461  0.0952 -0.9996
  157SAPE  C21217534   6.090   3.540   9.215 -1.4305 -0.8299  0.0400
  157SAPE  H12R17535   6.101   3.458   9.143  1.1239  0.5377 -1.2499
  157SAPE  C21317536   6.076   3.670   9.148 -0.2242  0.2525  0.1309
  157SAPE  H13R17537   6.175   3.711   9.117 -0.1600 -0.8242 -1.1891
  157SAPE  H13S17538   6.037   3.745   9.221 -1.0207  1.3504 -1.3489
  157SAPE  C21417539   5.966   3.672   9.037 -0.3061  0.0512  0.3873
  157SAPE  H14R17540   5.871   3.620   9.057  0.7802 -1.5439  1.7231
  157SAPE  C21517541   5.992   3.703   8.910 -0.0454 -0.1723  0.1706
  157SAPE  H15R17542   5.907   3.690   8.842 -0.9467 -1.6627  1.5190
  157SAPE  C21617543   6.126   3.740   8.849 -0.0045  1.2805 -0.3509
  157SAPE  H16R17544   6.198   3.779   8.925  0.7842 -0.1642 -0.3287
  157SAPE  H16S17545   6.104   3.818   8.774 -2.5337 -1.4476 -2.6852
  157SAPE  C21717546   6.189   3.631   8.769 -0.4299 -0.0888  0.7093
  157SAPE  H17R17547   6.112   3.581   8.705 -0.5596 -0.1464  0.9081
  157SAPE  H17S17548   6.219   3.549   8.839  0.1197 -1.0665 -0.6255
  157SAPE  C21817549   6.308   3.667   8.676 -0.6981 -0.8196 -0.5227
  157SAPE  H18R17550   6.390   3.717   8.733 -1.1059  0.9428 -1.3965
  157SAPE  H18S17551   6.285   3.748   8.603 -0.4929  1.6913  2.0101
  157SAPE  C21917552   6.357   3.553   8.590  0.3618 -0.5571  0.5116
  157SAPE  H19R17553   6.271   3.521   8.528 -2.0184  1.0774  2.7048
  157SAPE  H19S17554   6.373   3.473   8.666 -0.0029  1.0213  2.3491
  157SAPE  C22017555   6.490   3.583   8.523  0.5227 -0.1768  0.1195
  157SAPE  H20R17556   6.482   3.663   8.446  0.9917 -0.7579 -0.5447
  157SAPE  H20S17557   6.530   3.501   8.460 -0.0728 -0.7908  0.5260
  157SAPE  H20T17558   6.576   3.603   8.590  2.2534 -2.5137 -1.2930
  157SAPE   C3317559   5.249   3.658  10.005  0.6632  0.3108 -0.4401
  157SAPE   H3X17560   5.279   3.722  10.091 -1.3313  0.7590 -0.0342
  157SAPE   H3Y17561   5.154   3.612  10.037 -0.1498  0.5728 -2.3429
  157SAPE   C3417562   5.212   3.754   9.886 -0.1506  0.4950  0.0257
  157SAPE   H4X17563   5.304   3.809   9.857  1.8048 -0.7965  3.3258
  157SAPE   H4Y17564   5.148   3.832   9.932  2.8363  2.6185  0.8646
  157SAPE   C3517565   5.132   3.684   9.774 -0.5596  0.1460  0.2129
  157SAPE   H5X17566   5.031   3.657   9.813 -0.3181 -0.0560  0.7066
  157SAPE   H5Y17567   5.174   3.591   9.731 -1.3088 -0.2101  0.2271
  157SAPE   C3617568   5.100   3.784   9.660 -0.4795 -0.1844  0.1693
  157SAPE   H6X17569   5.052   3.875   9.703  1.3671  0.6078  0.6840
  157SAPE   H6Y17570   5.031   3.742   9.585 -0.3107  0.2329 -0.2269
  157SAPE   C3717571   5.231   3.820   9.582  0.2126  0.5672  0.2091
  157SAPE   H7X17572   5.306   3.739   9.571 -1.2393 -0.8004 -0.1342
  157SAPE   H7Y17573   5.278   3.897   9.647  2.1210 -1.5438  1.4410
  157SAPE   C3817574   5.203   3.877   9.443 -0.8275 -0.1328  0.1041
  157SAPE   H8X17575   5.295   3.924   9.403 -1.0488 -2.0066 -2.8933
  157SAPE   H8Y17576   5.119   3.950   9.450 -0.9541 -0.4060  2.3513
  157SAPE   C3917577   5.165   3.766   9.339  0.0402 -0.7169  0.4071
  157SAPE   H9X17578   5.075   3.733   9.395 -1.5513  2.5361 -0.0013
  157SAPE   H9Y17579   5.239   3.683   9.337 -2.0835 -2.7394  1.4689
  157SAPE  C31017580   5.129   3.819   9.199  0.2661  0.3687 -0.0269
  157SAPE  H10X17581   5.216   3.870   9.152  0.9867  0.4368  1.3200
  157SAPE  H10Y17582   5.044   3.890   9.205  0.8257  0.9353  1.5356
  157SAPE  C31117583   5.101   3.697   9.106 -0.1727 -0.0088 -0.4745
  157SAPE  H11X17584   5.041   3.616   9.153  2.6476 -2.3436 -0.6139
  157SAPE  H11Y17585   5.201   3.647   9.106 -0.8257 -1.3454 -0.0669
  157SAPE  C31217586   5.043   3.724   8.970  0.2445  0.3028 -0.4291
  157SAPE  H12X17587   4.955   3.790   8.982  0.6256  0.5879  1.0764
  157SAPE  H12Y17588   5.000   3.626   8.940 -1.9256  0.3700  2.0306
  157SAPE  C31317589   5.148   3.774   8.871  0.0495 -0.0400 -0.1401
  157SAPE  H13X17590   5.202   3.677   8.867 -0.9647 -0.5759 -2.0444
  157SAPE  H13Y17591   5.202   3.858   8.920  1.6071 -2.1577  2.0153
  157SAPE  C31417592   5.078   3.793   8.736 -0.3763 -0.1081 -0.4378
  157SAPE  H14X17593   4.997   3.870   8.742 -0.3124 -0.0871  0.2561
  157SAPE  H14Y17594   5.023   3.700   8.709  0.9816 -0.4623 -2.1346
  157SAPE  C31517595   5.190   3.815   8.625  0.8960 -0.7208  0.1954
  157SAPE  H15X17596   5.238   3.911   8.651 -0.3811 -0.7281  2.8274
  157SAPE  H15Y17597   5.132   3.817   8.530 -1.0569 -0.6073  1.3382
  157SAPE  C31617598   5.293   3.700   8.626  0.1016 -0.6990 -0.0379
  157SAPE  H16X17599   5.239   3.603   8.636 -0.2287 -0.2936  2.7441
  157SAPE  H16Y17600   5.353   3.707   8.720  2.7971  1.3930 -1.7548
  157SAPE  C31717601   5.406   3.694   8.517 -0.0887 -0.1932 -0.0114
  157SAPE  H17X17602   5.479   3.612   8.536 -1.0977 -0.8404  1.2842
  157SAPE  H17Y17603   5.457   3.791   8.532 -1.0334  0.1389  1.3371
  157SAPE  C31817604   5.358   3.701   8.376  0.4473 -0.2536  0.5051
  157SAPE  H18X17605   5.267   3.764   8.362  0.1683 -1.1884 -2.7236
  157SAPE  H18Y17606   5.323   3.601   8.342 -0.2174  0.4811 -1.0722
  157SAPE  H18Z17607   5.437   3.738   8.307 -0.0601 -0.3331 -0.1254
  158SAPE     N17608   0.844   4.650  10.656 -0.7271 -0.0235 -0.1474
  158SAPE   HN117609   0.779   4.728  10.679  0.1189  1.4081 -2.2970
  158SAPE   HN217610   0.827   4.578  10.728  0.3390 -0.9173 -0.7669
  158SAPE   HN317611   0.941   4.683  10.669 -1.2602  1.9507 -0.7137
  158SAPE   C1217612   0.807   4.613  10.516  0.1960  0.2776  0.0056
  158SAPE  H12A17613   0.800   4.706  10.456 -1.1797 -1.1332 -2.1520
  158SAPE  H12B17614   0.709   4.565  10.532 -0.6042  1.7807 -0.2019
  158SAPE   C1117615   0.901   4.519  10.446  0.1832  0.0807 -0.3163
  158SAPE  H11A17616   1.002   4.564  10.433  0.2863  0.4242  1.4212
  158SAPE  H11B17617   0.855   4.512  10.345 -0.6648  1.7854 -0.0782
  158SAPE     P17618   0.854   4.263  10.495  0.3055  0.1900 -0.0101
  158SAPE   O1317619   0.914   4.154  10.577  0.6725 -0.0219 -0.3444
  158SAPE   O1417620   0.708   4.286  10.516 -0.1719  0.5547 -0.3240
  158SAPE   O1217621   0.926   4.397  10.525  0.8233 -0.7739 -0.6014
  158SAPE   O1117622   0.897   4.239  10.342  0.0828  0.4402 -0.1883
  158SAPE    C117623   1.030   4.192  10.315 -0.2567  0.5356  0.3281
  158SAPE    HA17624   1.102   4.266  10.357  0.2528  0.4696 -0.3947
  158SAPE    HB17625   1.059   4.097  10.364 -2.9071 -0.6268 -0.2033
  158SAPE    C217626   1.039   4.181  10.162 -0.2810 -0.7452  0.0999
  158SAPE    HS17627   1.140   4.146  10.131 -0.4405  0.5043 -1.9979
  158SAPE   O2117628   1.000   4.312  10.098 -0.3647  0.0368  0.4370
  158SAPE   C2117629   1.106   4.397  10.094  0.2753 -0.8788  0.5529
  158SAPE   O2217630   1.219   4.375  10.128  0.2185  0.4705 -0.3835
  158SAPE   C2217631   1.050   4.536  10.048 -0.0423  0.4793  0.3816
  158SAPE   H2R17632   0.947   4.525  10.008  0.0069  3.4301 -0.7400
  158SAPE   H2S17633   1.039   4.606  10.134 -0.1915  1.4302 -0.4066
  158SAPE    C317634   0.946   4.068  10.102  0.6503 -0.3281  0.7593
  158SAPE    HX17635   0.840   4.098  10.115  0.9289  0.6660  0.8240
  158SAPE    HY17636   0.958   3.976  10.163  0.4650  0.7437  2.4782
  158SAPE   O3117637   0.970   4.042   9.959  0.5859  0.2160  0.1628
  158SAPE   C3117638   0.863   4.043   9.880  0.9377 -0.3603 -0.4780
  158SAPE   O3217639   0.750   4.062   9.909  0.0942 -0.2352  0.5408
  158SAPE   C3217640   0.915   4.010   9.739 -0.0637 -0.2209 -0.0172
  158SAPE   H2X17641   0.967   3.912   9.742  0.1231 -0.1104  2.3534
  158SAPE   H2Y17642   0.996   4.079   9.708  0.5633 -0.9206  0.0293
  158SAPE   C2317643   1.142   4.600   9.944  0.5547  0.6466 -0.2891
  158SAPE   H3R17644   1.236   4.630   9.995  1.1180  0.4810 -1.1962
  158SAPE   H3S17645   1.100   4.691   9.896 -2.9828  0.0314  1.3094
  158SAPE   C2417646   1.174   4.493   9.821  1.1852 -1.1871  0.1186
  158SAPE   H4R17647   1.226   4.409   9.871  0.6621 -1.6968 -0.1868
  158SAPE   H4S17648   1.240   4.538   9.744  0.7246 -1.5316 -0.4884
  158SAPE   C2517649   1.043   4.432   9.761  0.5692 -0.2942 -0.0419
  158SAPE   H5R17650   0.971   4.401   9.838 -1.1507  1.0854 -1.0181
  158SAPE   C2617651   1.017   4.403   9.629 -0.2926  0.6102  0.1972
  158SAPE   H6R17652   0.919   4.360   9.603 -0.2007  0.3534  0.2669
  158SAPE   C2717653   1.103   4.420   9.513 -0.2817 -0.0356  0.7236
  158SAPE   H7R17654   1.103   4.327   9.452 -1.9970 -0.2764  1.0377
  158SAPE   H7S17655   1.206   4.451   9.542 -0.5656  0.9080  0.7485
  158SAPE   C2817656   1.050   4.538   9.432  0.7603  0.6272 -0.3596
  158SAPE   H8R17657   1.011   4.620   9.495 -0.5390  1.4058 -2.1021
  158SAPE   C2917658   1.035   4.565   9.302  0.1763 -0.5051  0.2473
  158SAPE   H9R17659   1.001   4.668   9.282 -0.3872 -0.7169  0.0880
  158SAPE  C21017660   1.075   4.477   9.190 -0.6289  0.1513  0.3649
  158SAPE  H10R17661   1.102   4.376   9.229 -4.0006 -1.8644 -1.9486
  158SAPE  H10S17662   1.162   4.519   9.136 -0.4572 -0.4151  0.1949
  158SAPE  C21117663   0.946   4.454   9.110  0.0584 -0.0959 -1.1032
  158SAPE  H11R17664   0.863   4.428   9.178  0.8251 -0.0437 -0.1156
  158SAPE  C21217665   0.934   4.470   8.976 -0.1905  1.1731 -0.3379
  158SAPE  H12R17666   0.842   4.439   8.925  0.2438 -2.5228  0.8404
  158SAPE  C21317667   1.049   4.512   8.885  0.0549 -0.4935  0.0303
  158SAPE  H13R17668   1.096   4.418   8.849  0.0728  0.3304 -2.2686
  158SAPE  H13S17669   1.134   4.561   8.939  0.1062  1.2590 -1.5300
  158SAPE  C21417670   1.006   4.611   8.790  0.0122 -0.3051  0.5306
  158SAPE  H14R17671   0.990   4.711   8.833 -1.2251 -0.3561  0.2118
  158SAPE  C21517672   0.977   4.605   8.662 -0.5171  0.5045  0.5275
  158SAPE  H15R17673   0.960   4.696   8.603  1.3787 -0.6917 -2.0492
  158SAPE  C21617674   1.008   4.490   8.573  0.0380  0.6829 -0.1382
  158SAPE  H16R17675   0.939   4.492   8.486 -1.5566  1.1417  1.0941
  158SAPE  H16S17676   0.992   4.400   8.635 -4.2847  1.9711  0.9158
  158SAPE  C21717677   1.151   4.506   8.520 -0.6850 -0.1948  0.3008
  158SAPE  H17R17678   1.171   4.404   8.480 -1.6831  0.1563 -1.1694
  158SAPE  H17S17679   1.215   4.522   8.609 -0.6231  1.7498 -0.0566
  158SAPE  C21817680   1.155   4.599   8.389 -0.0693 -0.5618 -0.0475
  158SAPE  H18R17681   1.062   4.613   8.330  0.1727  2.8702  0.1742
  158SAPE  H18S17682   1.221   4.549   8.315  0.6308  1.8775 -1.1750
  158SAPE  C21917683   1.206   4.742   8.420 -0.3435 -0.2688 -0.5898
  158SAPE  H19R17684   1.308   4.723   8.460 -0.6176 -1.0458 -0.2343
  158SAPE  H19S17685   1.137   4.779   8.499  0.3140  1.6313 -0.8485
  158SAPE  C22017686   1.199   4.839   8.300 -0.2794 -0.5365  0.1393
  158SAPE  H20R17687   1.245   4.937   8.325  0.3381 -0.6029 -0.6878
  158SAPE  H20S17688   1.093   4.846   8.269 -0.2771 -2.2655 -0.3861
  158SAPE  H20T17689   1.254   4.785   8.220 -0.8265 -2.6709  1.1331
  158SAPE   C3317690   0.816   4.012   9.623  0.1759 -0.0086  0.3818
  158SAPE   H3X17691   0.782   4.112   9.589  1.1087 -0.2028 -1.2108
  158SAPE   H3Y17692   0.728   3.952   9.653  0.1934 -0.5133 -0.5402
  158SAPE   C3417693   0.873   3.931   9.505 -0.2297  0.9598 -0.0595
  158SAPE   H4X17694   0.916   3.834   9.538  0.9362  1.3100 -0.5058
  158SAPE   H4Y17695   0.958   3.984   9.458  1.9814 -2.3722 -0.2170
  158SAPE   C3517696   0.762   3.911   9.398  0.7077  0.6513 -0.3406
  158SAPE   H5X17697   0.676   3.867   9.454  0.1732  2.6595  0.5268
  158SAPE   H5Y17698   0.797   3.837   9.323  4.6523  1.6980  0.2594
  158SAPE   C3617699   0.729   4.046   9.326  0.2878  0.3432  1.2026
  158SAPE   H6X17700   0.695   4.109   9.411 -0.2070 -1.5715  2.4937
  158SAPE   H6Y17701   0.646   4.022   9.256  2.6045  0.8950 -1.9667
  158SAPE   C3717702   0.840   4.109   9.241  0.1834  0.4932  0.3529
  158SAPE   H7X17703   0.920   4.164   9.295 -0.4596  1.3502  0.4664
  158SAPE   H7Y17704   0.793   4.187   9.177 -0.2677 -0.0032  0.0787
  158SAPE   C3817705   0.912   4.007   9.158  0.6730 -0.4921 -0.2413
  158SAPE   H8X17706   0.951   3.935   9.233  2.1648 -1.4756 -1.8609
  158SAPE   H8Y17707   0.992   4.067   9.108  0.4032  0.7367  0.7465
  158SAPE   C3917708   0.823   3.945   9.050  0.3225  0.2454  0.2653
  158SAPE   H9X17709   0.795   4.033   8.988  0.1350 -0.1497 -0.2156
  158SAPE   H9Y17710   0.733   3.893   9.090 -0.1063  0.4119 -0.4636
  158SAPE  C31017711   0.893   3.849   8.948 -0.4773  0.6944 -0.0643
  158SAPE  H10X17712   0.821   3.795   8.884  0.3455 -0.5241 -0.0104
  158SAPE  H10Y17713   0.942   3.766   9.004  2.1365  2.1811  0.0132
  158SAPE  C31117714   0.996   3.913   8.857  0.4623  0.3776  0.8672
  158SAPE  H11X17715   1.072   3.837   8.828 -0.5400 -0.0104 -0.8966
  158SAPE  H11Y17716   1.055   3.983   8.921  1.7520 -0.5678  0.7633
  158SAPE  C31217717   0.933   3.992   8.743 -0.5527 -0.0981  0.2944
  158SAPE  H12X17718   0.881   4.081   8.783  0.3739  1.3341 -1.5441
  158SAPE  H12Y17719   0.857   3.922   8.701 -2.5161  1.7053  0.6848
  158SAPE  C31317720   1.027   4.070   8.641 -0.0748 -0.1351  0.0868
  158SAPE  H13X17721   1.118   4.125   8.673  0.5371 -0.9097 -0.2720
  158SAPE  H13Y17722   0.964   4.146   8.590  1.1086  0.2926 -0.7972
  158SAPE  C31417723   1.083   3.992   8.518  0.3880 -0.1374  0.4404
  158SAPE  H14X17724   1.005   3.938   8.461  1.1959 -1.8399  0.8729
  158SAPE  H14Y17725   1.155   3.913   8.549  1.8659  0.5384 -1.1159
  158SAPE  C31517726   1.163   4.081   8.421  0.5374 -0.2767 -0.0209
  158SAPE  H15X17727   1.258   4.114   8.468  0.3810  0.0381  0.0746
  158SAPE  H15Y17728   1.109   4.167   8.377  1.5541  0.8805  0.9350
  158SAPE  C31617729   1.185   4.000   8.289 -0.4340  0.7318 -0.3883
  158SAPE  H16X17730   1.095   3.934   8.281  0.3943 -0.8690  2.0408
  158SAPE  H16Y17731   1.265   3.924   8.298 -1.5460 -0.4249  0.0979
  158SAPE  C31717732   1.197   4.090   8.160  0.7969  0.1877  0.0678
  158SAPE  H17X17733   1.302   4.123   8.149  0.7393  0.0629 -0.8659
  158SAPE  H17Y17734   1.111   4.160   8.170 -1.9214 -2.6021 -1.9699
  158SAPE  C31817735   1.161   4.006   8.036 -0.3729  0.6318 -0.9189
  158SAPE  H18X17736   1.243   3.931   8.031  0.0242  0.8456  1.2030
  158SAPE  H18Y17737   1.154   4.070   7.945  0.1199  0.2059 -1.2601
  158SAPE  H18Z17738   1.066   3.951   8.049  0.0314  0.0956 -0.1454
  159SAPE     N17739   2.700   2.315   6.243  1.0041 -0.0443  0.8302
  159SAPE   HN117740   2.640   2.329   6.160  0.6225  1.1914  1.2975
  159SAPE   HN217741   2.724   2.215   6.258  1.6229 -0.1839 -0.9214
  159SAPE   HN317742   2.641   2.351   6.320 -1.9482  2.1324 -2.2040
  159SAPE   C1217743   2.824   2.402   6.225 -0.0296 -0.0018  0.7332
  159SAPE  H12A17744   2.852   2.392   6.118 -1.8826 -1.5308  0.3192
  159SAPE  H12B17745   2.910   2.365   6.284  1.7992  0.8342 -1.2724
  159SAPE   C1117746   2.801   2.546   6.264 -0.2234 -0.7382 -0.7444
  159SAPE  H11A17747   2.710   2.581   6.211 -0.4405  1.6933  1.0594
  159SAPE  H11B17748   2.884   2.606   6.220 -0.5808 -1.4444 -2.4883
  159SAPE     P17749   2.892   2.586   6.507 -0.0981 -0.2477 -0.3482
  159SAPE   O1317750   3.004   2.656   6.441  0.1264  0.2457  0.7351
  159SAPE   O1417751   2.839   2.655   6.627  0.3692 -0.6597 -0.1157
  159SAPE   O1217752   2.777   2.561   6.408  0.0722 -0.0931 -0.4149
  159SAPE   O1117753   2.944   2.441   6.538  0.3386 -0.3432  0.2124
  159SAPE    C117754   2.859   2.344   6.594  0.2658  0.4498  0.7174
  159SAPE    HA17755   2.752   2.352   6.562  0.6386 -1.9941 -1.4944
  159SAPE    HB17756   2.885   2.240   6.567 -2.3299 -0.5683  1.7945
  159SAPE    C217757   2.854   2.339   6.748 -0.5282 -0.3483 -0.4996
  159SAPE    HS17758   2.819   2.440   6.780  0.0708  0.3127 -1.8643
  159SAPE   O2117759   2.985   2.312   6.804 -0.1710  0.1140 -0.4047
  159SAPE   C2117760   3.005   2.362   6.925 -0.7074  0.5256 -0.0024
  159SAPE   O2217761   2.934   2.447   6.983  0.1104 -0.1187 -0.3869
  159SAPE   C2217762   3.138   2.306   6.981  0.5239  0.1149 -0.0277
  159SAPE   H2R17763   3.222   2.359   6.932 -0.4761  3.0208  1.1710
  159SAPE   H2S17764   3.138   2.344   7.086 -0.9206  1.3395 -0.4439
  159SAPE    C317765   2.748   2.237   6.796  0.1472 -1.0017 -0.4941
  159SAPE    HX17766   2.762   2.139   6.746  0.4987  0.4639 -3.4515
  159SAPE    HY17767   2.651   2.275   6.756  1.8704  1.9976 -2.1691
  159SAPE   O3117768   2.735   2.225   6.942  0.9326 -0.3434  0.5686
  159SAPE   C3117769   2.783   2.112   6.983  0.5005  0.1255  0.4663
  159SAPE   O3217770   2.846   2.030   6.917 -0.2485  0.0081 -0.1110
  159SAPE   C3217771   2.743   2.091   7.127 -0.0514  0.2314 -0.2806
  159SAPE   H2X17772   2.716   1.987   7.156 -3.7842  0.9180 -0.7713
  159SAPE   H2Y17773   2.649   2.146   7.148 -1.0497 -0.8230 -1.7163
  159SAPE   C2317774   3.154   2.149   6.984  0.0892  0.5236 -0.0856
  159SAPE   H3R17775   3.161   2.108   6.881  0.5307 -0.7470  0.4268
  159SAPE   H3S17776   3.067   2.097   7.030 -0.8935  0.7540 -1.6133
  159SAPE   C2417777   3.276   2.103   7.067 -0.2148 -0.4447  0.4533
  159SAPE   H4R17778   3.280   2.142   7.170  1.1195  1.6146 -0.3250
  159SAPE   H4S17779   3.361   2.145   7.009  1.3812 -1.7966  1.7061
  159SAPE   C2517780   3.290   1.961   7.061 -0.0394 -0.4253 -0.2512
  159SAPE   H5R17781   3.320   1.919   6.964  2.5946  0.8388 -0.0656
  159SAPE   C2617782   3.279   1.879   7.171  0.1358 -0.7004 -0.0007
  159SAPE   H6R17783   3.302   1.773   7.155  1.2041 -0.3149 -1.2789
  159SAPE   C2717784   3.240   1.920   7.313  0.8432 -0.2282  0.3380
  159SAPE   H7R17785   3.167   1.845   7.351 -2.8469  2.0685 -1.5602
  159SAPE   H7S17786   3.184   2.017   7.308  1.2898  0.0909  1.3962
  159SAPE   C2817787   3.355   1.959   7.407 -0.4373 -0.3633  0.2198
  159SAPE   H8R17788   3.406   2.051   7.376  0.4474 -0.8820  0.0776
  159SAPE   C2917789   3.374   1.918   7.530 -0.0164 -0.1138 -0.3109
  159SAPE   H9R17790   3.460   1.960   7.583  1.6686 -1.8567 -1.5417
  159SAPE  C21017791   3.285   1.825   7.607  0.2894 -0.2462  1.0515
  159SAPE  H10R17792   3.190   1.796   7.557 -0.8532  0.4027  2.7394
  159SAPE  H10S17793   3.248   1.880   7.696 -1.2265  0.7816 -0.1504
  159SAPE  C21117794   3.355   1.699   7.652  0.4077  0.0107 -0.4081
  159SAPE  H11R17795   3.464   1.700   7.640  0.5793 -0.4892  0.9341
  159SAPE  C21217796   3.296   1.602   7.724 -0.1256  0.4267 -0.2109
  159SAPE  H12R17797   3.366   1.526   7.761  0.2381  1.6726  1.8520
  159SAPE  C21317798   3.152   1.601   7.773 -0.2622  0.1352 -0.4298
  159SAPE  H13R17799   3.090   1.676   7.719 -1.8717 -1.2862 -0.6244
  159SAPE  H13S17800   3.147   1.648   7.873 -1.1492  1.9332 -1.2795
  159SAPE  C21417801   3.074   1.466   7.785  0.3397  0.0920  0.4946
  159SAPE  H14R17802   2.974   1.468   7.738 -0.5246 -1.9476  2.0873
  159SAPE  C21517803   3.092   1.363   7.874  0.6220 -0.2751 -0.3047
  159SAPE  H15R17804   3.021   1.279   7.875  0.0926  0.1084 -2.1904
  159SAPE  C21617805   3.198   1.353   7.981 -0.8352 -0.1880 -0.5186
  159SAPE  H16R17806   3.251   1.449   7.999  0.3163 -0.8883 -0.0600
  159SAPE  H16S17807   3.281   1.290   7.941  1.3705  1.6018  0.9817
  159SAPE  C21717808   3.154   1.301   8.118  0.5381 -0.0491  0.1051
  159SAPE  H17R17809   3.244   1.277   8.179  0.4407 -0.2719  0.1615
  159SAPE  H17S17810   3.083   1.216   8.109  1.3223 -0.7397  0.3009
  159SAPE  C21817811   3.070   1.404   8.195  0.4139  0.1078 -0.6636
  159SAPE  H18R17812   2.987   1.436   8.128 -0.2571  0.8323  0.4612
  159SAPE  H18S17813   3.137   1.489   8.221  2.9948 -1.9403 -0.2152
  159SAPE  C21917814   3.007   1.333   8.326  0.1502 -0.3826 -0.1276
  159SAPE  H19R17815   3.092   1.291   8.384  0.3063  0.3874  0.2146
  159SAPE  H19S17816   2.944   1.246   8.299 -1.3664  0.7184 -0.2265
  159SAPE  C22017817   2.927   1.419   8.426 -0.4495  0.2153  0.0465
  159SAPE  H20R17818   2.923   1.370   8.526  3.5981  0.2978  0.4138
  159SAPE  H20S17819   2.824   1.434   8.387 -0.4463 -0.0232 -0.0554
  159SAPE  H20T17820   2.978   1.517   8.439  2.2935 -1.1287  0.1772
  159SAPE   C3317821   2.856   2.128   7.226  1.0596 -0.4336  0.4143
  159SAPE   H3X17822   2.884   2.229   7.189 -0.5942  0.0496  0.3943
  159SAPE   H3Y17823   2.945   2.062   7.214 -0.0442 -1.6656 -1.6455
  159SAPE   C3417824   2.802   2.149   7.368 -0.1988  0.4826 -0.1978
  159SAPE   H4X17825   2.738   2.060   7.387  0.3865 -0.2522 -1.5001
  159SAPE   H4Y17826   2.741   2.242   7.365 -2.1659 -0.7052  0.8842
  159SAPE   C3517827   2.903   2.171   7.478 -0.0260 -0.3799  0.3760
  159SAPE   H5X17828   2.861   2.223   7.567  2.5344 -0.1074  1.5059
  159SAPE   H5Y17829   2.996   2.217   7.438 -0.8736  0.0720 -1.1378
  159SAPE   C3617830   2.951   2.041   7.535  0.1820  0.3318 -0.0596
  159SAPE   H6X17831   3.061   2.032   7.532  0.1284 -0.7132  0.5792
  159SAPE   H6Y17832   2.895   1.955   7.492  0.0724 -0.2418  1.1715
  159SAPE   C3717833   2.915   2.025   7.686  0.1106  1.0415 -0.4823
  159SAPE   H7X17834   2.945   1.922   7.713 -1.0006  0.7318 -0.3894
  159SAPE   H7Y17835   2.808   2.033   7.713  0.4263  0.7903  0.9496
  159SAPE   C3817836   3.010   2.113   7.763  0.0336 -0.2286  0.6936
  159SAPE   H8X17837   2.976   2.213   7.727  1.1458 -0.4861 -1.2484
  159SAPE   H8Y17838   3.120   2.103   7.756  0.2167  0.6883  1.9210
  159SAPE   C3917839   2.981   2.125   7.917 -0.3479  0.1810  0.1819
  159SAPE   H9X17840   3.038   2.207   7.964  1.3234 -0.3624 -0.7948
  159SAPE   H9Y17841   3.016   2.033   7.969 -1.2743 -0.5229 -0.4017
  159SAPE  C31017842   2.834   2.147   7.947 -0.3886 -0.7406 -0.3232
  159SAPE  H10X17843   2.777   2.057   7.916 -0.3976 -0.4303 -1.2425
  159SAPE  H10Y17844   2.806   2.235   7.884  2.3760 -0.0890 -0.7587
  159SAPE  C31117845   2.818   2.176   8.095  0.5354 -0.2651 -0.0947
  159SAPE  H11X17846   2.857   2.277   8.119  1.2457 -0.0061 -2.1549
  159SAPE  H11Y17847   2.851   2.090   8.158  0.0617  0.8256  1.7090
  159SAPE  C31217848   2.665   2.178   8.117  0.8714 -0.5001 -0.0681
  159SAPE  H12X17849   2.617   2.080   8.096 -5.3083  1.8268  1.0225
  159SAPE  H12Y17850   2.618   2.258   8.055 -0.6376  1.0034  2.7917
  159SAPE  C31317851   2.623   2.229   8.252  0.0629 -0.4287 -0.0307
  159SAPE  H13X17852   2.672   2.327   8.271 -0.9836  0.1856 -0.3957
  159SAPE  H13Y17853   2.647   2.159   8.335 -3.0026  0.7966  2.0519
  159SAPE  C31417854   2.472   2.236   8.273 -0.1326 -0.1519 -0.2067
  159SAPE  H14X17855   2.424   2.306   8.201  1.6043 -0.2752 -1.5634
  159SAPE  H14Y17856   2.453   2.277   8.375 -1.0348  2.6004 -1.3770
  159SAPE  C31517857   2.407   2.092   8.270 -0.7064 -0.4920  0.0525
  159SAPE  H15X17858   2.451   2.044   8.359  2.0117  1.4906 -0.1024
  159SAPE  H15Y17859   2.433   2.032   8.180  2.1088  0.6419 -0.0002
  159SAPE  C31617860   2.255   2.101   8.300  0.1358  0.7672 -0.6921
  159SAPE  H16X17861   2.199   2.022   8.246  0.3870  0.6248 -0.7462
  159SAPE  H16Y17862   2.224   2.200   8.260  0.3941  1.1542  0.0393
  159SAPE  C31717863   2.229   2.096   8.454 -0.1520  0.5159  0.1785
  159SAPE  H17X17864   2.289   2.178   8.500 -1.3204  0.7781  1.3046
  159SAPE  H17Y17865   2.258   1.999   8.498 -2.6302  0.3008  1.4921
  159SAPE  C31817866   2.079   2.119   8.487  0.5565 -0.3477  0.0290
  159SAPE  H18X17867   2.013   2.044   8.439 -1.0476  0.6322  0.6474
  159SAPE  H18Y17868   2.053   2.220   8.450 -0.6798  0.2671  2.3313
  159SAPE  H18Z17869   2.057   2.116   8.596 -0.9235  0.8979 -0.2111
  160SAPE     N17870   2.761   3.190   6.190 -0.1013 -0.3293 -0.2187
  160SAPE   HN117871   2.793   3.130   6.269  0.8733  1.8434  1.1487
  160SAPE   HN217872   2.826   3.165   6.113  2.0076  0.1490  1.3079
  160SAPE   HN317873   2.772   3.291   6.213 -0.0320 -1.0552  3.6140
  160SAPE   C1217874   2.620   3.158   6.150 -0.2072  0.1240 -0.3775
  160SAPE  H12A17875   2.547   3.143   6.232 -1.7071  0.0123 -1.6900
  160SAPE  H12B17876   2.614   3.064   6.092 -1.3919 -0.1880  0.2108
  160SAPE   C1117877   2.581   3.270   6.055 -0.2636  0.1908 -0.0123
  160SAPE  H11A17878   2.473   3.256   6.033 -0.7698  0.9317  1.8140
  160SAPE  H11B17879   2.634   3.266   5.958 -4.7194  0.2584 -2.7376
  160SAPE     P17880   2.505   3.446   6.232 -0.0412 -0.0447  0.4845
  160SAPE   O1317881   2.500   3.595   6.227 -0.1727 -0.1140  0.4570
  160SAPE   O1417882   2.383   3.362   6.233 -0.2934  0.4214 -0.2807
  160SAPE   O1217883   2.589   3.399   6.113 -0.0845 -0.4037  0.4172
  160SAPE   O1117884   2.586   3.399   6.353  0.1050  0.6448 -0.3756
  160SAPE    C117885   2.531   3.407   6.486  0.1313  0.8532 -0.5313
  160SAPE    HA17886   2.469   3.497   6.503 -0.9285 -0.1699  1.4119
  160SAPE    HB17887   2.466   3.318   6.502  0.4625  0.4148 -1.5477
  160SAPE    C217888   2.636   3.405   6.603  0.1958 -0.3102  0.1019
  160SAPE    HS17889   2.586   3.391   6.702  0.5835 -2.4460  0.0329
  160SAPE   O2117890   2.707   3.533   6.600  0.4188 -0.1403  0.3030
  160SAPE   C2117891   2.637   3.628   6.659  0.0086  0.1298 -0.6098
  160SAPE   O2217892   2.536   3.604   6.723 -0.3719  0.2193  0.1904
  160SAPE   C2217893   2.697   3.766   6.626  0.7602 -0.3300 -0.5180
  160SAPE   H2R17894   2.702   3.775   6.515 -0.8459 -0.2891 -0.6114
  160SAPE   H2S17895   2.628   3.843   6.667 -0.5196 -2.3331  1.2755
  160SAPE    C317896   2.742   3.287   6.587 -0.0765 -0.1574  0.4924
  160SAPE    HX17897   2.799   3.293   6.492  0.2552  0.8925  0.7505
  160SAPE    HY17898   2.682   3.195   6.569  0.6610 -0.3475 -1.1153
  160SAPE   O3117899   2.817   3.271   6.711  0.6748 -0.1125 -0.1191
  160SAPE   C3117900   2.945   3.298   6.702  1.0275 -0.0948 -0.4339
  160SAPE   O3217901   3.009   3.314   6.601 -0.0305  0.2364  0.0830
  160SAPE   C3217902   3.012   3.281   6.838  0.4830  0.0325 -0.3539
  160SAPE   H2X17903   3.100   3.349   6.839  1.4910 -1.2134  1.5693
  160SAPE   H2Y17904   3.054   3.179   6.846 -2.1041 -1.0483  0.5290
  160SAPE   C2317905   2.835   3.791   6.685 -0.2889  0.2059 -0.2482
  160SAPE   H3R17906   2.875   3.885   6.642 -1.4556  1.4004  1.1439
  160SAPE   H3S17907   2.900   3.704   6.664 -0.7037 -0.7821  2.2038
  160SAPE   C2417908   2.835   3.793   6.840  0.3629  0.0629  0.5781
  160SAPE   H4R17909   2.939   3.818   6.867 -0.2813  2.7153  0.9025
  160SAPE   H4S17910   2.804   3.692   6.873 -0.5427 -0.3144 -1.2894
  160SAPE   C2517911   2.759   3.907   6.900  0.2487  0.2915 -0.7826
  160SAPE   H5R17912   2.750   3.999   6.841 -0.5290  0.1385 -0.9241
  160SAPE   C2617913   2.694   3.899   7.022 -0.1184  0.2308  0.3782
  160SAPE   H6R17914   2.640   3.989   7.057  0.3921 -0.0604  2.0086
  160SAPE   C2717915   2.680   3.785   7.121  0.3376  0.6405 -0.5804
  160SAPE   H7R17916   2.784   3.785   7.159 -0.1062 -0.1578  0.7216
  160SAPE   H7S17917   2.653   3.694   7.064  0.4649 -0.3377  0.8595
  160SAPE   C2817918   2.587   3.786   7.241  0.0050 -0.0268  0.4458
  160SAPE   H8R17919   2.488   3.740   7.231 -1.3611  2.5576  1.2093
  160SAPE   C2917920   2.618   3.844   7.359 -0.7916 -1.0086 -0.1231
  160SAPE   H9R17921   2.556   3.827   7.448  0.5716 -0.1596  1.0377
  160SAPE  C21017922   2.745   3.920   7.395 -0.3495  0.0817 -0.3018
  160SAPE  H10R17923   2.717   4.012   7.450 -2.5311 -0.7971  0.1433
  160SAPE  H10S17924   2.797   3.954   7.302 -3.2902  1.4784 -1.5741
  160SAPE  C21117925   2.842   3.832   7.474  0.1275 -0.4169  0.0629
  160SAPE  H11R17926   2.836   3.723   7.462 -1.1532 -0.4193  0.6386
  160SAPE  C21217927   2.909   3.873   7.585  0.5462  0.7916  0.5548
  160SAPE  H12R17928   2.978   3.795   7.621 -0.1240  0.3198  0.8266
  160SAPE  C21317929   2.919   4.007   7.646 -0.3913 -0.2754  0.0404
  160SAPE  H13R17930   2.824   4.062   7.624  0.2447  1.1674  0.7903
  160SAPE  H13S17931   2.995   4.057   7.583 -0.8541 -1.1941 -1.3198
  160SAPE  C21417932   2.961   4.008   7.795 -0.5959 -0.7303 -0.2128
  160SAPE  H14R17933   2.997   3.909   7.825 -1.3212 -0.1843  2.8356
  160SAPE  C21517934   2.960   4.115   7.883  0.2116 -0.0299  0.1901
  160SAPE  H15R17935   2.982   4.088   7.987 -1.0330 -1.2993  0.1636
  160SAPE  C21617936   2.915   4.259   7.847  0.5291 -0.5088 -0.0285
  160SAPE  H16R17937   2.872   4.279   7.747 -0.5045  0.5041  0.5910
  160SAPE  H16S17938   3.006   4.323   7.835  1.3577 -1.7193 -0.4192
  160SAPE  C21717939   2.818   4.326   7.944  0.2439  0.4556  0.6207
  160SAPE  H17R17940   2.875   4.340   8.039 -1.6890  2.6522  1.5508
  160SAPE  H17S17941   2.729   4.262   7.961  0.5685 -0.6062 -1.3728
  160SAPE  C21817942   2.779   4.459   7.893 -0.2281  0.9862  0.0441
  160SAPE  H18R17943   2.722   4.453   7.797  0.5187  0.5448 -0.3857
  160SAPE  H18S17944   2.872   4.519   7.882  1.3983 -1.3434  0.3749
  160SAPE  C21917945   2.672   4.527   7.975 -0.6041 -0.1107  0.3481
  160SAPE  H19R17946   2.713   4.536   8.078 -1.7447 -0.6133  0.8620
  160SAPE  H19S17947   2.578   4.468   7.966 -0.0413 -1.1430  1.0463
  160SAPE  C22017948   2.637   4.669   7.933  0.1512  0.0099  0.3552
  160SAPE  H20R17949   2.716   4.743   7.956  0.4108 -0.3170  0.5242
  160SAPE  H20S17950   2.550   4.706   7.992  0.7595 -0.2010  1.4205
  160SAPE  H20T17951   2.605   4.678   7.827  1.0354 -2.2145 -0.1618
  160SAPE   C3317952   2.930   3.328   6.957 -0.4071 -0.1334 -0.4535
  160SAPE   H3X17953   2.848   3.254   6.968 -0.1198 -0.3561  0.1936
  160SAPE   H3Y17954   2.878   3.421   6.926  0.7591  0.5364 -0.4362
  160SAPE   C3417955   3.016   3.330   7.084 -0.2935 -0.1530  0.5711
  160SAPE   H4X17956   3.089   3.411   7.062 -0.0210 -0.5359  0.0257
  160SAPE   H4Y17957   3.095   3.251   7.080 -0.9390 -0.8119 -2.9895
  160SAPE   C3517958   2.944   3.361   7.213  0.2833  0.3476 -0.1642
  160SAPE   H5X17959   2.878   3.273   7.233  0.5883 -0.1651 -1.3487
  160SAPE   H5Y17960   2.883   3.450   7.186 -1.8539 -1.7507 -2.8307
  160SAPE   C3617961   3.045   3.385   7.326  0.1536 -0.3172 -0.4772
  160SAPE   H6X17962   3.115   3.465   7.293  0.2626 -0.4168 -0.4887
  160SAPE   H6Y17963   3.110   3.296   7.340  1.2223  0.2735 -1.4710
  160SAPE   C3717964   2.975   3.419   7.458 -0.3305  0.0700  0.2058
  160SAPE   H7X17965   2.889   3.355   7.485  1.8400 -2.4774  1.5229
  160SAPE   H7Y17966   2.940   3.523   7.441  2.1111  0.7774 -0.9755
  160SAPE   C3817967   3.066   3.417   7.576 -0.3251  0.6023  0.2602
  160SAPE   H8X17968   3.163   3.464   7.550 -1.7999  2.6400 -2.0195
  160SAPE   H8Y17969   3.097   3.313   7.597  0.7597  0.8070 -0.2580
  160SAPE   C3917970   3.019   3.486   7.696  0.8988 -0.3147 -1.0327
  160SAPE   H9X17971   2.920   3.440   7.721  1.9870 -0.9785  2.6128
  160SAPE   H9Y17972   3.005   3.593   7.669 -1.0987 -0.1337  0.4642
  160SAPE  C31017973   3.119   3.471   7.819 -1.0282 -0.0696  1.0160
  160SAPE  H10X17974   3.201   3.540   7.788 -0.9776 -0.0474  1.1977
  160SAPE  H10Y17975   3.161   3.368   7.822  1.6183  0.9581  2.2492
  160SAPE  C31117976   3.061   3.502   7.952 -0.3980 -0.9333 -0.8378
  160SAPE  H11X17977   3.145   3.494   8.024 -0.1162  1.1760 -0.8631
  160SAPE  H11Y17978   2.986   3.427   7.982 -0.6503  0.2134  1.6492
  160SAPE  C31217979   3.016   3.651   7.978 -0.5342  0.1741  0.6984
  160SAPE  H12X17980   2.932   3.668   7.908 -1.6725 -1.4759  1.5720
  160SAPE  H12Y17981   3.099   3.717   7.947  1.0511 -2.2149 -0.3955
  160SAPE  C31317982   2.963   3.667   8.120  0.6803  0.1996 -0.6687
  160SAPE  H13X17983   3.051   3.648   8.184  1.3031  1.0224 -1.2555
  160SAPE  H13Y17984   2.884   3.593   8.146  1.3554 -0.2380  0.1560
  160SAPE  C31417985   2.886   3.802   8.135  0.2007  0.7216 -0.3914
  160SAPE  H14X17986   2.795   3.784   8.073  0.4261 -0.2219 -0.4706
  160SAPE  H14Y17987   2.931   3.892   8.088 -0.7936  1.2045 -0.4535
  160SAPE  C31517988   2.827   3.830   8.273 -0.7229 -0.2391  0.1909
  160SAPE  H15X17989   2.903   3.836   8.354 -0.5718  0.9404 -0.0108
  160SAPE  H15Y17990   2.763   3.740   8.285  0.1496 -0.7399  1.3003
  160SAPE  C31617991   2.741   3.951   8.293 -0.4124 -0.7627 -0.9590
  160SAPE  H16X17992   2.645   3.936   8.346 -0.2227  1.0120 -0.0325
  160SAPE  H16Y17993   2.724   3.994   8.192  2.2296  3.8571  0.2585
  160SAPE  C31717994   2.826   4.061   8.373 -0.2160 -0.4109  0.3211
  160SAPE  H17X17995   2.868   4.010   8.462 -1.5032 -1.6069  0.2787
  160SAPE  H17Y17996   2.751   4.129   8.418  0.0005 -0.0584  0.1554
  160SAPE  C31817997   2.931   4.138   8.295 -0.8898 -0.8347  0.5969
  160SAPE  H18X17998   3.018   4.079   8.256 -0.7274  0.7442 -1.6233
  160SAPE  H18Y17999   2.970   4.226   8.351 -2.3024 -0.3795  0.8837
  160SAPE  H18Z18000   2.883   4.183   8.205  1.1793  0.2512 -0.0328
  161SAPE     N18001   4.602   1.645   6.337  0.3426 -0.2887 -0.7304
  161SAPE   HN118002   4.545   1.628   6.252  1.9643 -0.0636 -1.9061
  161SAPE   HN218003   4.595   1.743   6.370 -0.6307 -1.0770  1.6901
  161SAPE   HN318004   4.700   1.617   6.317  0.2394 -2.7920  1.6780
  161SAPE   C1218005   4.543   1.563   6.452  0.0697  0.0621  0.4804
  161SAPE  H12A18006   4.432   1.577   6.450 -0.1514 -1.5681 -0.1811
  161SAPE  H12B18007   4.594   1.590   6.547  0.9903  0.7698 -0.2030
  161SAPE   C1118008   4.581   1.415   6.426 -1.0462  0.5939 -0.3007
  161SAPE  H11A18009   4.520   1.385   6.338 -1.1842 -0.3783  0.1134
  161SAPE  H11B18010   4.546   1.352   6.510  0.1882  0.1876 -0.0613
  161SAPE     P18011   4.783   1.278   6.328  0.3622 -0.5644 -0.5198
  161SAPE   O1318012   4.677   1.224   6.241 -0.3268  0.3910 -0.4583
  161SAPE   O1418013   4.918   1.311   6.274  0.6440  0.2493  0.3487
  161SAPE   O1218014   4.719   1.399   6.394 -0.4714  0.1468  0.2107
  161SAPE   O1118015   4.798   1.183   6.454  0.4318  0.0439  0.0079
  161SAPE    C118016   4.905   1.183   6.549 -0.2543 -0.2326 -0.2735
  161SAPE    HA18017   4.921   1.077   6.577 -0.0734 -0.7990 -2.3171
  161SAPE    HB18018   5.001   1.216   6.504  0.5942 -0.4244  1.3165
  161SAPE    C218019   4.881   1.271   6.670 -0.1001  0.4862  0.7202
  161SAPE    HS18020   4.777   1.257   6.706  0.2337 -0.3973  1.3850
  161SAPE   O2118021   4.901   1.411   6.640 -0.1673 -0.1362 -0.2608
  161SAPE   C2118022   4.818   1.500   6.695 -0.4083 -0.8146  0.3545
  161SAPE   O2218023   4.712   1.480   6.750  0.2467 -0.0056 -0.8978
  161SAPE   C2218024   4.880   1.638   6.664 -0.4169 -0.2034 -0.1901
  161SAPE   H2R18025   4.989   1.634   6.686 -0.1420  1.5807 -1.0046
  161SAPE   H2S18026   4.884   1.648   6.553 -0.7560  1.2409 -0.0988
  161SAPE    C318027   4.974   1.228   6.779 -0.4970 -0.0501  0.3503
  161SAPE    HX18028   5.078   1.249   6.746 -0.1058 -2.5151 -0.1587
  161SAPE    HY18029   4.962   1.118   6.788 -2.1503  0.0536 -0.3095
  161SAPE   O3118030   4.942   1.281   6.909 -0.0942 -0.3308  0.5642
  161SAPE   C3118031   4.852   1.230   6.991  0.1721 -0.2736 -0.4757
  161SAPE   O3218032   4.773   1.136   6.966  0.1258 -0.2489  0.3272
  161SAPE   C3218033   4.834   1.316   7.118  0.3142  0.3774 -0.9271
  161SAPE   H2X18034   4.727   1.293   7.137 -0.1855 -0.5549 -4.2364
  161SAPE   H2Y18035   4.852   1.421   7.086 -1.2793  0.1468 -2.7765
  161SAPE   C2318036   4.826   1.755   6.743  0.3347 -0.0995 -0.3804
  161SAPE   H3R18037   4.727   1.788   6.705  0.7267  0.9951 -0.4650
  161SAPE   H3S18038   4.898   1.838   6.726  0.6541 -0.0452  1.1079
  161SAPE   C2418039   4.821   1.731   6.895 -0.5362  0.7761  0.6556
  161SAPE   H4R18040   4.738   1.659   6.911  0.1680 -0.3639 -0.5723
  161SAPE   H4S18041   4.783   1.828   6.932 -1.6685  0.7311 -0.3153
  161SAPE   C2518042   4.950   1.682   6.966  0.5498  0.1399 -0.0544
  161SAPE   H5R18043   4.995   1.590   6.927 -0.6834 -0.5522  0.0936
  161SAPE   C2618044   5.007   1.738   7.081 -0.1244  0.7961 -0.0927
  161SAPE   H6R18045   5.100   1.690   7.115 -1.2140 -0.5775  1.0572
  161SAPE   C2718046   4.963   1.850   7.165  0.2370 -0.3298  0.1343
  161SAPE   H7R18047   4.987   1.839   7.273 -0.1898  2.4828  0.5901
  161SAPE   H7S18048   4.852   1.850   7.158  0.2227  1.0950  0.2362
  161SAPE   C2818049   4.999   1.992   7.119  0.0980  0.2840 -0.1308
  161SAPE   H8R18050   4.933   2.028   7.038  0.0751 -1.2025 -0.8049
  161SAPE   C2918051   5.079   2.071   7.186  0.5207 -0.2281 -0.7294
  161SAPE   H9R18052   5.097   2.176   7.155  2.3911 -0.2838 -0.0048
  161SAPE  C21018053   5.163   2.032   7.309  0.2528  0.0923 -1.0909
  161SAPE  H10R18054   5.173   1.922   7.300 -1.3105  0.0121 -2.3757
  161SAPE  H10S18055   5.098   2.057   7.396  0.1604 -1.3768 -0.7123
  161SAPE  C21118056   5.301   2.088   7.321 -0.4113 -0.4708 -0.1255
  161SAPE  H11R18057   5.365   2.098   7.232  1.6341  0.1059  1.3401
  161SAPE  C21218058   5.357   2.143   7.435  0.1302 -0.0682  0.2573
  161SAPE  H12R18059   5.455   2.193   7.439  1.0529 -1.5790  5.9921
  161SAPE  C21318060   5.289   2.151   7.571 -0.6047 -0.2106 -0.7801
  161SAPE  H13R18061   5.265   2.050   7.610 -1.4752  0.2927  0.0395
  161SAPE  H13S18062   5.188   2.194   7.554 -1.6461 -1.8339  0.8961
  161SAPE  C21418063   5.362   2.225   7.677  0.2965 -0.9639  0.1365
  161SAPE  H14R18064   5.472   2.219   7.665  0.3988  0.4974  0.2094
  161SAPE  C21518065   5.325   2.291   7.792 -0.1351 -0.0776  0.3109
  161SAPE  H15R18066   5.403   2.334   7.857 -1.3850  0.3884  1.5650
  161SAPE  C21618067   5.179   2.314   7.829 -0.0789  0.0160  0.4806
  161SAPE  H16R18068   5.108   2.280   7.751 -1.5101 -0.0146  1.7302
  161SAPE  H16S18069   5.168   2.425   7.836 -0.3445 -0.1047  2.7607
  161SAPE  C21718070   5.145   2.262   7.967 -0.5071  0.3501  0.1078
  161SAPE  H17R18071   5.196   2.165   7.987  1.0673  1.2350  0.5315
  161SAPE  H17S18072   5.035   2.246   7.970 -0.6582  1.3945  0.5935
  161SAPE  C21818073   5.185   2.345   8.089 -0.5544  0.2094  0.3544
  161SAPE  H18R18074   5.167   2.454   8.081  0.2387  0.4891  2.0261
  161SAPE  H18S18075   5.296   2.347   8.100 -0.5868  0.0427  0.7240
  161SAPE  C21918076   5.115   2.304   8.217  0.0252 -0.6302  0.0046
  161SAPE  H19R18077   5.005   2.301   8.204  0.0767 -3.6382 -0.3957
  161SAPE  H19S18078   5.130   2.388   8.288 -1.1870 -0.9205  0.6415
  161SAPE  C22018079   5.158   2.167   8.274 -0.6355  0.1391 -0.6897
  161SAPE  H20R18080   5.142   2.093   8.192 -2.0481  0.4691 -0.7302
  161SAPE  H20S18081   5.095   2.137   8.360  2.1269  1.1942  1.8728
  161SAPE  H20T18082   5.264   2.160   8.307 -0.7660 -0.7189 -0.4329
  161SAPE   C3318083   4.927   1.271   7.236 -0.3204 -0.7170  0.9940
  161SAPE   H3X18084   5.035   1.292   7.220 -0.5669  0.7298  1.0714
  161SAPE   H3Y18085   4.916   1.161   7.245 -5.3405 -0.4657  0.4977
  161SAPE   C3418086   4.899   1.333   7.371 -0.4068 -0.3532  0.2101
  161SAPE   H4X18087   4.969   1.288   7.445  2.2283  2.1020 -0.6083
  161SAPE   H4Y18088   4.795   1.315   7.408 -1.0051  2.2268  0.0101
  161SAPE   C3518089   4.901   1.487   7.364 -0.0575  0.0850  0.3940
  161SAPE   H5X18090   4.816   1.531   7.308  1.4071  2.2199 -0.3094
  161SAPE   H5Y18091   4.992   1.497   7.302  1.7739 -2.1581  2.5261
  161SAPE   C3618092   4.942   1.565   7.500  0.7467 -0.4400 -0.1932
  161SAPE   H6X18093   4.877   1.520   7.578  1.3840  1.7919  1.7448
  161SAPE   H6Y18094   4.917   1.672   7.482 -0.9628 -0.9540 -1.0454
  161SAPE   C3718095   5.090   1.540   7.538 -0.0803 -0.4773  0.0984
  161SAPE   H7X18096   5.140   1.638   7.521  4.6414 -1.9248  3.4747
  161SAPE   H7Y18097   5.124   1.458   7.471  1.0406  0.7034 -0.8273
  161SAPE   C3818098   5.106   1.497   7.679  0.6268 -0.1830 -0.0979
  161SAPE   H8X18099   5.023   1.432   7.712 -0.5898  0.9945 -0.7549
  161SAPE   H8Y18100   5.081   1.590   7.734 -1.0268 -0.0449 -1.0457
  161SAPE   C3918101   5.249   1.461   7.709  0.0851 -0.3535  0.3631
  161SAPE   H9X18102   5.319   1.536   7.667 -1.9933  1.9232  0.7887
  161SAPE   H9Y18103   5.271   1.360   7.667  1.3019  0.1739 -0.3278
  161SAPE  C31018104   5.278   1.447   7.861  0.3399 -1.1316 -0.5313
  161SAPE  H10X18105   5.276   1.551   7.898 -0.4374  0.0234 -3.5160
  161SAPE  H10Y18106   5.384   1.415   7.872  0.0771 -1.5759  0.9898
  161SAPE  C31118107   5.196   1.345   7.943 -0.6126 -0.1903 -0.8294
  161SAPE  H11X18108   5.209   1.244   7.898 -0.5671 -0.0352 -1.1641
  161SAPE  H11Y18109   5.090   1.376   7.929 -0.0867  1.4518 -1.3405
  161SAPE  C31218110   5.246   1.343   8.087 -0.2351 -0.0631 -0.1796
  161SAPE  H12X18111   5.195   1.418   8.151  2.1754  1.0843  0.4894
  161SAPE  H12Y18112   5.352   1.376   8.088 -0.3824  0.5028 -1.3959
  161SAPE  C31318113   5.235   1.199   8.136 -0.0495  0.4676  0.5059
  161SAPE  H13X18114   5.299   1.125   8.083  1.1719  0.1392  2.3515
  161SAPE  H13Y18115   5.132   1.163   8.114  0.8438 -2.0470  0.0241
  161SAPE  C31418116   5.259   1.189   8.281 -0.6063  0.1431 -0.6966
  161SAPE  H14X18117   5.190   1.242   8.351 -2.1619  0.5581 -2.4442
  161SAPE  H14Y18118   5.359   1.228   8.308 -0.6272 -1.3885  1.8792
  161SAPE  C31518119   5.257   1.042   8.334  0.4194 -0.5417 -0.6354
  161SAPE  H15X18120   5.337   0.991   8.276  0.3215  1.3070 -2.5649
  161SAPE  H15Y18121   5.163   0.987   8.312  1.9269 -2.9639 -1.3506
  161SAPE  C31618122   5.285   1.036   8.482 -0.2146 -0.1867 -0.1973
  161SAPE  H16X18123   5.270   0.938   8.532 -0.2617 -0.9985 -1.7383
  161SAPE  H16Y18124   5.212   1.097   8.538 -1.9136 -2.5408  0.3200
  161SAPE  C31718125   5.429   1.066   8.525 -0.5484  0.5999  0.2413
  161SAPE  H17X18126   5.457   1.173   8.516 -0.8317  0.7984  1.4996
  161SAPE  H17Y18127   5.499   1.017   8.454 -1.0898  1.1679 -0.6932
  161SAPE  C31818128   5.458   1.017   8.671 -0.3342 -0.4778  0.3101
  161SAPE  H18X18129   5.556   1.062   8.697 -0.6467  1.7492 -1.9288
  161SAPE  H18Y18130   5.462   0.907   8.683 -1.2383 -0.3802  1.8921
  161SAPE  H18Z18131   5.383   1.053   8.745  0.8398  0.2494  1.1966
  162SAPE     N18132   3.358   3.372   5.894  0.6250  0.1256 -0.7896
  162SAPE   HN118133   3.453   3.411   5.874  1.9569 -1.5555  1.7194
  162SAPE   HN218134   3.353   3.278   5.849 -1.2917 -0.2790  0.1866
  162SAPE   HN318135   3.285   3.442   5.868 -0.7857  0.1324  2.6605
  162SAPE   C1218136   3.340   3.348   6.043 -0.3591 -0.1718 -0.0782
  162SAPE  H12A18137   3.231   3.340   6.061  0.0613 -2.0138  2.1173
  162SAPE  H12B18138   3.386   3.431   6.100  1.2692 -1.5779  0.7307
  162SAPE   C1118139   3.404   3.213   6.088 -0.0193 -0.4861  0.2771
  162SAPE  H11A18140   3.355   3.131   6.032 -0.2989 -0.3054  0.2562
  162SAPE  H11B18141   3.376   3.196   6.194 -2.3165 -0.0854 -0.2066
  162SAPE     P18142   3.628   3.095   6.083  0.2026  0.0910 -0.1968
  162SAPE   O1318143   3.541   2.982   6.099  0.1650 -0.0772  0.3712
  162SAPE   O1418144   3.723   3.093   5.967 -0.2762  0.3566  0.1075
  162SAPE   O1218145   3.541   3.227   6.063 -0.1682  0.4269  0.2043
  162SAPE   O1118146   3.704   3.121   6.213  0.4344 -0.1503  0.3488
  162SAPE    C118147   3.666   3.191   6.331  0.0681 -0.1806  0.0985
  162SAPE    HA18148   3.611   3.282   6.299 -0.0214 -0.9303 -2.0801
  162SAPE    HB18149   3.595   3.134   6.394  1.5616 -1.3275  0.8040
  162SAPE    C218150   3.793   3.244   6.408  0.4902  0.1213  0.0731
  162SAPE    HS18151   3.876   3.268   6.338  1.0763  0.6185  0.9210
  162SAPE   O2118152   3.833   3.143   6.511 -0.2280 -0.0488  0.1482
  162SAPE   C2118153   3.899   3.040   6.472 -0.1054  0.6632  0.1145
  162SAPE   O2218154   3.971   3.022   6.372  0.2486 -0.4502  0.0260
  162SAPE   C2218155   3.888   2.934   6.584  0.8123  0.6279  0.3538
  162SAPE   H2R18156   3.789   2.884   6.583  0.5176  1.1527 -1.5046
  162SAPE   H2S18157   3.970   2.860   6.575 -1.9601 -2.5968 -0.6126
  162SAPE    C318158   3.774   3.379   6.488  0.2623 -0.2026  0.4744
  162SAPE    HX18159   3.772   3.467   6.420  0.1814 -0.5562  0.0233
  162SAPE    HY18160   3.866   3.379   6.552  0.8827 -1.3193 -0.3874
  162SAPE   O3118161   3.648   3.379   6.565 -0.1251 -0.1593  0.1362
  162SAPE   C3118162   3.669   3.407   6.696 -0.2717 -0.9461 -0.0756
  162SAPE   O3218163   3.776   3.408   6.757 -0.4855 -0.6045 -0.1155
  162SAPE   C3218164   3.539   3.401   6.762 -0.0054 -0.5692 -0.5586
  162SAPE   H2X18165   3.468   3.337   6.707 -0.1232 -0.1807 -0.8599
  162SAPE   H2Y18166   3.500   3.505   6.755 -1.2656 -1.1338 -3.2255
  162SAPE   C2318167   3.906   2.999   6.723 -0.7833  0.0926 -0.3019
  162SAPE   H3R18168   3.975   3.086   6.711 -3.0977  2.0672 -0.0618
  162SAPE   H3S18169   3.965   2.930   6.787 -0.3625  1.6447  1.0463
  162SAPE   C2418170   3.785   3.038   6.806  0.2133  0.0812  0.9930
  162SAPE   H4R18171   3.725   3.100   6.736  0.7719  0.7241  1.0781
  162SAPE   H4S18172   3.820   3.104   6.888  0.8307  1.1271 -0.0960
  162SAPE   C2518173   3.694   2.922   6.847  0.2376  0.2173 -0.1398
  162SAPE   H5R18174   3.613   2.886   6.783 -0.3623 -0.4597  0.9842
  162SAPE   C2618175   3.694   2.867   6.966 -0.3236 -0.6433 -0.5425
  162SAPE   H6R18176   3.639   2.774   6.986  0.6991 -0.7477  2.2084
  162SAPE   C2718177   3.785   2.907   7.079  0.8938 -0.1514  0.9735
  162SAPE   H7R18178   3.871   2.971   7.050  0.4274  1.0734  2.1522
  162SAPE   H7S18179   3.833   2.811   7.109  1.6005 -0.1026  0.0324
  162SAPE   C2818180   3.713   2.958   7.196  0.5013  0.0067  0.5805
  162SAPE   H8R18181   3.675   3.061   7.189  1.3676  0.2972 -0.0533
  162SAPE   C2918182   3.681   2.896   7.305 -0.9349  0.4385 -0.0230
  162SAPE   H9R18183   3.630   2.949   7.388 -1.3223 -0.2004  0.1535
  162SAPE  C21018184   3.716   2.754   7.349 -0.1127  0.3815  0.0734
  162SAPE  H10R18185   3.723   2.693   7.257  2.7499 -1.6165  1.4784
  162SAPE  H10S18186   3.623   2.725   7.403 -0.0917 -0.4387 -0.3167
  162SAPE  C21118187   3.844   2.726   7.432 -0.1569 -0.6946  1.0226
  162SAPE  H11R18188   3.908   2.652   7.382  0.0156 -0.6249  1.1390
  162SAPE  C21218189   3.889   2.782   7.544 -0.2726  0.1892 -0.0672
  162SAPE  H12R18190   3.978   2.731   7.583 -0.0221  0.2157 -0.5846
  162SAPE  C21318191   3.813   2.889   7.625  0.5748  1.1347 -0.5228
  162SAPE  H13R18192   3.703   2.887   7.610  0.1846  1.0181  2.0193
  162SAPE  H13S18193   3.825   2.992   7.586  0.5904  1.1235 -0.5484
  162SAPE  C21418194   3.838   2.885   7.771  0.3828  0.0829  1.2426
  162SAPE  H14R18195   3.921   2.948   7.806 -0.5719  0.7633  2.3490
  162SAPE  C21518196   3.778   2.811   7.855  0.4160 -0.5910  0.3763
  162SAPE  H15R18197   3.835   2.785   7.945 -0.3991 -3.1272  0.2492
  162SAPE  C21618198   3.662   2.720   7.818  0.5465  0.0025  1.0263
  162SAPE  H16R18199   3.662   2.689   7.711  0.0698 -2.1351  1.5890
  162SAPE  H16S18200   3.568   2.777   7.837  0.4978 -0.1083  1.1198
  162SAPE  C21718201   3.645   2.588   7.900 -0.9236  0.0732  0.0376
  162SAPE  H17R18202   3.561   2.526   7.861 -0.9738 -0.3088  0.7271
  162SAPE  H17S18203   3.620   2.610   8.006  0.4475  0.7145  0.2358
  162SAPE  C21818204   3.775   2.494   7.877  0.5162 -0.1589 -0.6601
  162SAPE  H18R18205   3.859   2.546   7.927 -0.8773  1.2921  0.2703
  162SAPE  H18S18206   3.796   2.482   7.768 -0.1485 -2.3236 -0.6013
  162SAPE  C21918207   3.750   2.354   7.945 -0.2912 -0.7425 -0.1535
  162SAPE  H19R18208   3.679   2.297   7.882 -2.4748  1.7062 -0.0674
  162SAPE  H19S18209   3.690   2.361   8.038  1.7050  2.6638  1.0730
  162SAPE  C22018210   3.879   2.277   7.973  0.8219 -0.4344  0.4563
  162SAPE  H20R18211   3.842   2.181   8.015 -1.0018 -1.0296 -2.3035
  162SAPE  H20S18212   3.944   2.332   8.045  2.2369  0.0943 -1.1616
  162SAPE  H20T18213   3.932   2.259   7.877  0.4789 -0.2357  0.2289
  162SAPE   C3318214   3.553   3.336   6.908 -0.0974 -0.0273 -0.1224
  162SAPE   H3X18215   3.653   3.356   6.950  0.6131  4.8073 -3.2691
  162SAPE   H3Y18216   3.554   3.227   6.885  2.9104 -0.3226  0.9865
  162SAPE   C3418217   3.442   3.382   7.001  0.8389  0.6708  0.0275
  162SAPE   H4X18218   3.356   3.380   6.930  1.3745  2.4804 -0.7115
  162SAPE   H4Y18219   3.448   3.488   7.033 -0.4930  0.5312  0.8180
  162SAPE   C3518220   3.419   3.290   7.124 -0.2090  0.6058  0.6805
  162SAPE   H5X18221   3.452   3.186   7.100 -0.6018  0.7776 -0.6432
  162SAPE   H5Y18222   3.317   3.276   7.166  0.6911 -3.7454  1.9476
  162SAPE   C3618223   3.502   3.333   7.245  0.5865  0.0792 -0.2133
  162SAPE   H6X18224   3.489   3.441   7.267  0.0558  0.1062 -0.6370
  162SAPE   H6Y18225   3.609   3.315   7.220  1.2098  2.8628  0.1977
  162SAPE   C3718226   3.465   3.260   7.382  0.3783 -0.2672  0.6698
  162SAPE   H7X18227   3.473   3.149   7.373 -0.7795 -0.3436  0.3906
  162SAPE   H7Y18228   3.357   3.277   7.401 -0.0858  0.9860 -2.4410
  162SAPE   C3818229   3.537   3.321   7.502  0.3784 -0.5676  0.5269
  162SAPE   H8X18230   3.490   3.420   7.524  0.5718 -0.4058  0.2225
  162SAPE   H8Y18231   3.646   3.332   7.483  0.0218  1.6603 -0.6029
  162SAPE   C3918232   3.511   3.227   7.624  0.0392 -0.0150 -0.2188
  162SAPE   H9X18233   3.531   3.121   7.599 -0.0367 -0.1232  0.1713
  162SAPE   H9Y18234   3.400   3.222   7.623  0.0225 -0.5884  1.4444
  162SAPE  C31018235   3.583   3.275   7.748 -0.4725  0.1205 -0.3042
  162SAPE  H10X18236   3.556   3.383   7.756 -1.5695 -0.2567  1.7793
  162SAPE  H10Y18237   3.693   3.268   7.730 -0.4028  0.8836 -0.2020
  162SAPE  C31118238   3.544   3.195   7.876  0.5206  0.4908 -0.3691
  162SAPE  H11X18239   3.525   3.091   7.841  0.2295  0.2396  0.5028
  162SAPE  H11Y18240   3.449   3.238   7.914 -0.1944 -0.7462 -0.6897
  162SAPE  C31218241   3.654   3.186   7.983 -0.4197 -0.3550  0.3478
  162SAPE  H12X18242   3.659   3.286   8.029  1.6990  0.0862 -0.7005
  162SAPE  H12Y18243   3.748   3.159   7.929  0.6107  3.1541  0.1703
  162SAPE  C31318244   3.630   3.080   8.092 -0.6637 -0.2280  0.9122
  162SAPE  H13X18245   3.625   2.984   8.037 -1.4021 -0.7866  1.9288
  162SAPE  H13Y18246   3.531   3.115   8.130 -0.3420  1.9772 -0.1141
  162SAPE  C31418247   3.734   3.054   8.202 -0.0661 -0.6760  0.6862
  162SAPE  H14X18248   3.838   3.064   8.164  0.0303  0.9132  1.2953
  162SAPE  H14Y18249   3.727   2.952   8.245 -1.7276 -0.8849 -0.0185
  162SAPE  C31518250   3.712   3.159   8.317  0.2113 -0.3223 -0.0487
  162SAPE  H15X18251   3.615   3.147   8.370  0.9122  0.8625  1.5957
  162SAPE  H15Y18252   3.705   3.256   8.263 -0.7069 -0.1237  0.3905
  162SAPE  C31618253   3.819   3.169   8.424 -0.2615  0.2699 -0.8798
  162SAPE  H16X18254   3.919   3.142   8.383 -0.6823  0.1353 -1.8674
  162SAPE  H16Y18255   3.807   3.097   8.507  0.9963  1.0602  0.0206
  162SAPE  C31718256   3.825   3.308   8.495  0.7594  0.3110  0.0004
  162SAPE  H17X18257   3.731   3.326   8.553  1.2639  0.5834  0.7552
  162SAPE  H17Y18258   3.825   3.389   8.419 -3.5323 -1.3350 -2.1206
  162SAPE  C31818259   3.943   3.327   8.589 -0.7703  0.0202 -0.2580
  162SAPE  H18X18260   4.041   3.333   8.538  0.2310 -2.0828  1.2928
  162SAPE  H18Y18261   3.942   3.243   8.661 -0.3164  0.2535  0.0173
  162SAPE  H18Z18262   3.923   3.421   8.645 -0.6576 -0.0687 -0.0710
  163SAPE     N18263   1.989   3.262   6.456  0.0147 -0.4617  0.0735
  163SAPE   HN118264   2.068   3.329   6.439 -0.2004 -0.1860  0.1585
  163SAPE   HN218265   1.946   3.292   6.545  0.5081  0.7210 -0.0540
  163SAPE   HN318266   2.028   3.166   6.462 -0.5587 -0.7453 -0.6818
  163SAPE   C1218267   1.889   3.290   6.348 -0.5671  0.2832  0.0393
  163SAPE  H12A18268   1.928   3.258   6.250 -0.7240 -0.0075  0.0729
  163SAPE  H12B18269   1.889   3.401   6.345 -1.9190  0.2877 -3.5002
  163SAPE   C1118270   1.749   3.231   6.371 -0.2476 -0.3186  1.2646
  163SAPE  H11A18271   1.767   3.123   6.355  0.0158  0.0589 -1.4314
  163SAPE  H11B18272   1.687   3.268   6.287  3.3537  0.0790 -1.4321
  163SAPE     P18273   1.536   3.216   6.517 -0.1947  0.1913  0.1840
  163SAPE   O1318274   1.456   3.341   6.532 -0.6755  0.5487 -0.4274
  163SAPE   O1418275   1.504   3.120   6.409 -0.0654 -0.3527 -0.7279
  163SAPE   O1218276   1.686   3.253   6.498 -0.6788  0.4657 -0.1716
  163SAPE   O1118277   1.533   3.144   6.659 -0.5199 -0.0067  0.2040
  163SAPE    C118278   1.652   3.127   6.740  0.2716  0.2357  0.2018
  163SAPE    HA18279   1.733   3.202   6.733  1.1572 -0.6652  0.5326
  163SAPE    HB18280   1.629   3.118   6.848  0.8609  0.0194  0.3143
  163SAPE    C218281   1.711   2.983   6.708  0.7078 -0.6364 -0.1907
  163SAPE    HS18282   1.716   2.979   6.597 -0.1548 -1.3852 -0.2158
  163SAPE   O2118283   1.620   2.891   6.767 -0.4842  0.1807 -0.1456
  163SAPE   C2118284   1.631   2.765   6.742 -0.8051 -0.0597  0.6652
  163SAPE   O2218285   1.711   2.714   6.656  0.2697 -0.0339 -0.2519
  163SAPE   C2218286   1.531   2.693   6.820 -0.2179  0.0679 -1.3993
  163SAPE   H2R18287   1.463   2.758   6.879  0.3463  1.7488 -2.5265
  163SAPE   H2S18288   1.464   2.635   6.753 -1.0347 -1.5177  0.6766
  163SAPE    C318289   1.861   2.967   6.760 -0.5949  0.1723  0.3016
  163SAPE    HX18290   1.918   3.044   6.702 -0.3166  0.8476  1.4322
  163SAPE    HY18291   1.906   2.867   6.742 -0.0228  0.5338 -0.3362
  163SAPE   O3118292   1.859   2.983   6.902  0.1501 -0.2149 -0.3339
  163SAPE   C3118293   1.917   3.081   6.953  0.5781 -0.3494 -1.0472
  163SAPE   O3218294   1.997   3.162   6.909 -0.2976 -0.2574 -0.2062
  163SAPE   C3218295   1.881   3.076   7.105 -0.1044  0.2229  0.6389
  163SAPE   H2X18296   1.972   3.106   7.162 -1.6426 -0.3933  3.5652
  163SAPE   H2Y18297   1.858   2.972   7.136  0.2713 -0.4540 -1.2160
  163SAPE   C2318298   1.597   2.604   6.926 -0.6501  0.8705  0.4177
  163SAPE   H3R18299   1.646   2.511   6.891  0.9589  1.3784  1.2629
  163SAPE   H3S18300   1.521   2.569   6.999  1.0140  0.3293  1.9435
  163SAPE   C2418301   1.709   2.673   7.007  0.0655  0.3629 -0.2566
  163SAPE   H4R18302   1.786   2.708   6.936  2.7605  0.6707  2.6143
  163SAPE   H4S18303   1.752   2.592   7.070 -1.9553 -1.6829 -1.3377
  163SAPE   C2518304   1.651   2.793   7.086 -1.0109  0.4638  0.0324
  163SAPE   H5R18305   1.641   2.892   7.038  0.6095  0.0523 -1.2391
  163SAPE   C2618306   1.617   2.799   7.220  0.1346  0.4394  0.6301
  163SAPE   H6R18307   1.563   2.891   7.244 -2.6417 -1.4681  2.1867
  163SAPE   C2718308   1.612   2.683   7.314 -0.0496  0.0747  0.2057
  163SAPE   H7R18309   1.711   2.686   7.364  0.2088 -0.8765 -0.2290
  163SAPE   H7S18310   1.604   2.583   7.266 -2.6632  1.0997 -1.7503
  163SAPE   C2818311   1.501   2.684   7.417 -0.9023  0.0584  0.3348
  163SAPE   H8R18312   1.400   2.672   7.375 -0.9238  2.1590 -0.3128
  163SAPE   C2918313   1.515   2.696   7.554 -0.4046 -0.5383 -0.0033
  163SAPE   H9R18314   1.421   2.692   7.610 -0.6450  2.3235 -0.0894
  163SAPE  C21018315   1.632   2.711   7.653  0.5316  0.3920  0.0446
  163SAPE  H10R18316   1.690   2.802   7.629 -0.0558  0.0828 -3.0009
  163SAPE  H10S18317   1.705   2.627   7.648  0.1493 -0.1083  1.9481
  163SAPE  C21118318   1.579   2.732   7.792  0.4277  0.3875  0.2349
  163SAPE  H11R18319   1.575   2.835   7.830 -2.2831  0.3980  0.1054
  163SAPE  C21218320   1.524   2.634   7.864  0.3099  0.8236  0.4162
  163SAPE  H12R18321   1.483   2.660   7.963  2.2894  1.6745  1.0530
  163SAPE  C21318322   1.510   2.486   7.820  0.8550 -0.0559 -0.6111
  163SAPE  H13R18323   1.610   2.452   7.786  0.9841 -0.1925 -0.1071
  163SAPE  H13S18324   1.447   2.485   7.729 -1.8347  0.3727  1.1225
  163SAPE  C21418325   1.473   2.387   7.930  0.5174 -0.5465 -0.0427
  163SAPE  H14R18326   1.367   2.359   7.925  0.3019  0.1868  0.3630
  163SAPE  C21518327   1.548   2.357   8.039  0.0708 -0.7144 -0.3086
  163SAPE  H15R18328   1.503   2.288   8.112  1.9818 -2.6261 -0.8121
  163SAPE  C21618329   1.688   2.392   8.065 -0.4765 -0.0788 -0.0409
  163SAPE  H16R18330   1.712   2.487   8.012 -0.1136  0.0110  0.2815
  163SAPE  H16S18331   1.753   2.310   8.029 -0.4697 -1.9868  3.8506
  163SAPE  C21718332   1.734   2.413   8.213 -0.0147  0.0107 -0.4992
  163SAPE  H17R18333   1.649   2.460   8.268 -1.6990 -1.7425 -1.4587
  163SAPE  H17S18334   1.817   2.487   8.213  1.5017 -1.6170 -1.0131
  163SAPE  C21818335   1.778   2.280   8.274 -0.5409  0.7547  0.0813
  163SAPE  H18R18336   1.838   2.304   8.364  0.1428 -1.4046  0.2603
  163SAPE  H18S18337   1.839   2.219   8.204 -0.5065 -0.1585  0.8889
  163SAPE  C21918338   1.672   2.185   8.339  0.4963  0.4004  0.1249
  163SAPE  H19R18339   1.716   2.106   8.404  0.1271 -0.8509 -1.0775
  163SAPE  H19S18340   1.612   2.139   8.257  2.9777 -2.7533 -0.1365
  163SAPE  C22018341   1.569   2.261   8.426 -0.1003 -0.0714 -0.2823
  163SAPE  H20R18342   1.504   2.332   8.371 -2.9998 -0.4947  2.2994
  163SAPE  H20S18343   1.621   2.334   8.492  1.2017  0.2281 -1.5887
  163SAPE  H20T18344   1.504   2.190   8.482 -1.4852  0.2874 -1.3985
  163SAPE   C3318345   1.762   3.174   7.128  0.7497 -0.0428  0.1595
  163SAPE   H3X18346   1.669   3.145   7.075 -1.6464  0.7521  3.6024
  163SAPE   H3Y18347   1.805   3.267   7.084  0.7833  0.3690  1.0462
  163SAPE   C3418348   1.715   3.202   7.272  0.4253  0.5548 -0.1519
  163SAPE   H4X18349   1.642   3.128   7.310  1.0102 -1.0733 -2.0178
  163SAPE   H4Y18350   1.654   3.295   7.273  1.1414  1.0352 -0.3277
  163SAPE   C3518351   1.825   3.204   7.379 -0.0403  0.7949 -0.7451
  163SAPE   H5X18352   1.897   3.288   7.366  1.6492 -0.5449 -0.2889
  163SAPE   H5Y18353   1.884   3.112   7.359 -0.2703  1.2927 -4.5367
  163SAPE   C3618354   1.758   3.209   7.519  0.0254 -0.5093  0.0838
  163SAPE   H6X18355   1.698   3.118   7.544  0.6904 -0.3815  2.3760
  163SAPE   H6Y18356   1.686   3.293   7.530 -1.9509 -1.9999 -0.7892
  163SAPE   C3718357   1.867   3.228   7.633  0.1102  0.0215  1.1862
  163SAPE   H7X18358   1.876   3.338   7.641 -3.1018  0.6786 -1.7552
  163SAPE   H7Y18359   1.963   3.186   7.598  0.1937 -0.3062  1.7906
  163SAPE   C3818360   1.811   3.183   7.763 -0.3162  0.0008 -0.1173
  163SAPE   H8X18361   1.786   3.074   7.764 -1.8749  0.2988  2.3148
  163SAPE   H8Y18362   1.717   3.237   7.788 -0.5975  0.0322 -1.1787
  163SAPE   C3918363   1.913   3.199   7.887 -0.2033 -0.5265 -0.3686
  163SAPE   H9X18364   1.955   3.302   7.890 -0.2546 -0.5208  0.1339
  163SAPE   H9Y18365   1.993   3.129   7.854 -0.6510 -1.4379  0.4363
  163SAPE  C31018366   1.856   3.166   8.022  0.7052  0.1990 -0.8676
  163SAPE  H10X18367   1.777   3.241   8.044  0.6377  0.3208 -1.5184
  163SAPE  H10Y18368   1.925   3.172   8.110  0.2263  0.5217 -0.5086
  163SAPE  C31118369   1.792   3.025   8.036 -0.6637 -0.1226 -0.1583
  163SAPE  H11X18370   1.865   2.947   8.004  0.2462  1.0755 -1.0871
  163SAPE  H11Y18371   1.702   3.034   7.972  1.3044  0.5311 -3.0598
  163SAPE  C31218372   1.745   2.992   8.178 -0.0338  0.0314 -0.2902
  163SAPE  H12X18373   1.678   3.078   8.198 -1.0049 -0.6458 -0.5646
  163SAPE  H12Y18374   1.838   2.995   8.239 -1.6797 -1.2076  2.4695
  163SAPE  C31318375   1.668   2.848   8.193 -0.4181 -0.4372 -0.6804
  163SAPE  H13X18376   1.752   2.784   8.158  0.9465 -0.9277  3.0393
  163SAPE  H13Y18377   1.585   2.842   8.120 -0.2272  0.4769 -0.9969
  163SAPE  C31418378   1.621   2.798   8.330  0.3335  0.0349 -0.1835
  163SAPE  H14X18379   1.566   2.702   8.324 -1.6789  1.2464 -3.5661
  163SAPE  H14Y18380   1.546   2.858   8.385 -1.3078 -2.0407 -0.0105
  163SAPE  C31518381   1.733   2.777   8.431 -0.4798  0.0713  0.3064
  163SAPE  H15X18382   1.786   2.874   8.442  3.2243 -1.8747  1.1550
  163SAPE  H15Y18383   1.800   2.695   8.397 -1.3144 -1.1971  1.5834
  163SAPE  C31618384   1.680   2.739   8.570  0.3194  0.2568  0.5264
  163SAPE  H16X18385   1.645   2.633   8.566 -0.4445  0.4260  2.0880
  163SAPE  H16Y18386   1.595   2.809   8.583  0.6221  0.9634 -1.0237
  163SAPE  C31718387   1.785   2.753   8.683 -0.2557  0.7435  0.7035
  163SAPE  H17X18388   1.819   2.858   8.697  0.5875  0.3975  1.4101
  163SAPE  H17Y18389   1.878   2.696   8.664  0.1540  1.1003  1.5637
  163SAPE  C31818390   1.734   2.700   8.812 -0.0765  0.0137 -0.5716
  163SAPE  H18X18391   1.731   2.590   8.826  4.2755 -0.2396 -0.2738
  163SAPE  H18Y18392   1.630   2.728   8.838  0.5907  0.6642  1.6970
  163SAPE  H18Z18393   1.798   2.728   8.899  0.8529 -1.4946 -0.7406
  164SAPE     N18394   5.046   6.190   5.758 -0.2247  0.5919 -0.1657
  164SAPE   HN118395   4.957   6.244   5.758 -0.3322  0.4287  0.4423
  164SAPE   HN218396   5.098   6.221   5.843  0.1907  1.2511 -0.6591
  164SAPE   HN318397   5.099   6.215   5.673 -0.9647 -2.0716 -1.5384
  164SAPE   C1218398   5.007   6.045   5.761  0.4340 -0.8921  0.1496
  164SAPE  H12A18399   5.099   5.988   5.784  1.1609 -0.2703 -1.0737
  164SAPE  H12B18400   4.975   6.020   5.657 -0.2718  1.7458 -0.3494
  164SAPE   C1118401   4.899   6.021   5.869  0.4300 -1.0123 -0.2346
  164SAPE  H11A18402   4.950   6.037   5.966  1.7784  2.3928 -1.3674
  164SAPE  H11B18403   4.859   5.919   5.849 -1.8389  0.0331 -1.4425
  164SAPE     P18404   4.695   6.140   5.989  0.0364  0.0475  0.1359
  164SAPE   O1318405   4.606   6.258   5.972  0.2950 -0.0364  0.3077
  164SAPE   O1418406   4.637   6.003   6.011  0.1312 -0.0120 -0.2176
  164SAPE   O1218407   4.790   6.120   5.859 -0.1164  0.3392 -0.7394
  164SAPE   O1118408   4.792   6.166   6.104  0.1857 -0.0585 -0.1310
  164SAPE    C118409   4.888   6.270   6.110  0.1302  0.6871  0.0187
  164SAPE    HA18410   4.959   6.264   6.024  1.0380  1.6678  0.6681
  164SAPE    HB18411   4.842   6.371   6.116  0.3420  0.9249 -1.6210
  164SAPE    C218412   4.970   6.263   6.246  0.0915  0.1904 -0.1380
  164SAPE    HS18413   5.007   6.158   6.249 -1.1975 -0.2915  2.8244
  164SAPE   O2118414   4.877   6.282   6.358 -0.0658  0.4633 -0.6567
  164SAPE   C2118415   4.846   6.169   6.429 -0.2402  0.6722  1.0065
  164SAPE   O2218416   4.874   6.055   6.397 -0.1671  0.0482 -0.0812
  164SAPE   C2218417   4.759   6.204   6.547 -0.5703  0.4135 -0.4619
  164SAPE   H2R18418   4.671   6.260   6.508 -2.8538 -2.2915  0.4610
  164SAPE   H2S18419   4.724   6.112   6.599 -0.1959 -1.5740 -3.4758
  164SAPE    C318420   5.075   6.382   6.249 -0.0230  0.4885  0.2588
  164SAPE    HX18421   5.023   6.480   6.247  1.8905  1.7417 -5.1833
  164SAPE    HY18422   5.136   6.403   6.158 -4.0278  2.5787 -2.2473
  164SAPE   O3118423   5.147   6.376   6.370  0.2743  0.0054  0.2695
  164SAPE   C3118424   5.251   6.303   6.367  0.2388  0.3890  0.1698
  164SAPE   O3218425   5.292   6.243   6.266  0.5390  0.0895  0.7778
  164SAPE   C3218426   5.313   6.277   6.507 -0.1899  0.3610 -1.1760
  164SAPE   H2X18427   5.224   6.283   6.573  0.9985  0.5556  0.4665
  164SAPE   H2Y18428   5.372   6.369   6.525  0.6075 -0.5631  1.3425
  164SAPE   C2318429   4.831   6.301   6.643 -0.0451 -0.0968  0.3226
  164SAPE   H3R18430   4.754   6.363   6.694  1.0012 -0.7980  2.9329
  164SAPE   H3S18431   4.899   6.375   6.594 -1.4784  1.0732  0.0518
  164SAPE   C2418432   4.895   6.229   6.760 -0.3366 -0.5005 -0.5276
  164SAPE   H4R18433   4.965   6.151   6.724  0.6811  0.3472 -0.4333
  164SAPE   H4S18434   4.811   6.191   6.822 -0.3669 -1.3452 -1.0706
  164SAPE   C2518435   4.977   6.321   6.844 -0.5319  0.0574 -0.1910
  164SAPE   H5R18436   5.058   6.373   6.791  2.9915 -2.8986  1.7932
  164SAPE   C2618437   4.979   6.322   6.978 -0.7356 -0.8892  0.7807
  164SAPE   H6R18438   5.043   6.398   7.025 -0.0976  0.7873 -2.5219
  164SAPE   C2718439   4.893   6.250   7.078  0.7128 -0.1798  0.0958
  164SAPE   H7R18440   4.834   6.171   7.028 -0.8485  0.4171  0.9344
  164SAPE   H7S18441   4.812   6.319   7.111  0.6510 -0.6254  0.8880
  164SAPE   C2818442   4.972   6.200   7.189 -0.5644  0.4102 -0.5795
  164SAPE   H8R18443   5.058   6.138   7.158 -0.0888  0.2348  1.0073
  164SAPE   C2918444   4.943   6.217   7.320 -0.6740 -0.0880  0.1852
  164SAPE   H9R18445   5.009   6.176   7.398 -2.0525 -1.6748  0.5805
  164SAPE  C21018446   4.828   6.292   7.381 -0.1059 -0.2114  0.2153
  164SAPE  H10R18447   4.737   6.232   7.357  0.3632 -0.0446 -2.3476
  164SAPE  H10S18448   4.804   6.384   7.323  0.3560 -0.6832 -0.7575
  164SAPE  C21118449   4.840   6.334   7.523  0.6563  0.0522 -0.8022
  164SAPE  H11R18450   4.821   6.442   7.536  2.4402  0.2270  0.8405
  164SAPE  C21218451   4.860   6.252   7.631  0.2207  0.4845  0.3893
  164SAPE  H12R18452   4.849   6.295   7.732 -1.5260 -2.6122  1.6375
  164SAPE  C21318453   4.885   6.107   7.628  0.7148  0.7667 -0.1639
  164SAPE  H13R18454   4.877   6.058   7.528  0.0706 -0.6306  0.5352
  164SAPE  H13S18455   4.793   6.062   7.672  0.9053  0.0673 -0.4527
  164SAPE  C21418456   5.001   6.050   7.703  0.1622 -0.3461  0.0821
  164SAPE  H14R18457   5.070   5.981   7.653  3.0506  0.9870  1.9523
  164SAPE  C21518458   5.027   6.072   7.832 -0.3041  0.1191  0.0850
  164SAPE  H15R18459   5.114   6.019   7.874  0.1717  0.9263  0.1373
  164SAPE  C21618460   4.959   6.161   7.939  0.4393 -0.2536  0.5412
  164SAPE  H16R18461   4.854   6.159   7.901  1.2929 -0.4757 -1.9901
  164SAPE  H16S18462   5.000   6.264   7.932  0.7352 -0.2725  1.8361
  164SAPE  C21718463   4.967   6.118   8.087 -0.7008  0.0648  0.5772
  164SAPE  H17R18464   4.926   6.198   8.152 -1.2561  0.5466 -0.3400
  164SAPE  H17S18465   5.072   6.104   8.119 -1.2789 -3.5762  1.2759
  164SAPE  C21818466   4.894   5.987   8.121 -0.4466 -0.2163 -0.2600
  164SAPE  H18R18467   4.946   5.910   8.061 -0.6584 -0.9148  0.4362
  164SAPE  H18S18468   4.785   5.992   8.097 -0.6474  1.1361  0.8320
  164SAPE  C21918469   4.899   5.951   8.267  0.5324  0.2391 -0.1255
  164SAPE  H19R18470   4.827   6.005   8.331  0.7257  0.5333 -0.1576
  164SAPE  H19S18471   5.001   5.979   8.303  0.0509  1.1809  0.5416
  164SAPE  C22018472   4.888   5.800   8.285 -0.2602  0.4380 -0.1296
  164SAPE  H20R18473   4.972   5.746   8.236  0.3461  1.1868  0.0706
  164SAPE  H20S18474   4.803   5.760   8.225 -0.5256  0.9205 -0.0776
  164SAPE  H20T18475   4.889   5.771   8.392 -0.6178  2.8266  0.5791
  164SAPE   C3318476   5.391   6.144   6.536  0.4324 -0.0658 -0.1852
  164SAPE   H3X18477   5.460   6.129   6.450  0.0299  1.0035 -0.7105
  164SAPE   H3Y18478   5.335   6.048   6.532  2.3156 -1.1709 -1.3460
  164SAPE   C3418479   5.483   6.160   6.658 -0.2875 -0.1069  0.6012
  164SAPE   H4X18480   5.515   6.267   6.659  1.2125 -0.4356 -1.8804
  164SAPE   H4Y18481   5.572   6.101   6.628 -1.1248 -1.0653 -0.1018
  164SAPE   C3518482   5.419   6.123   6.795 -0.4444 -0.4096 -0.0767
  164SAPE   H5X18483   5.326   6.184   6.800  1.1791  2.1610  1.1583
  164SAPE   H5Y18484   5.482   6.175   6.871  1.4336  0.9969 -2.4092
  164SAPE   C3618485   5.411   5.969   6.833  0.2885  0.5998  0.7090
  164SAPE   H6X18486   5.508   5.916   6.826 -1.3906 -2.5023 -4.5241
  164SAPE   H6Y18487   5.348   5.921   6.755 -0.9677 -2.3905  3.3231
  164SAPE   C3718488   5.347   5.925   6.966 -0.5019  0.1861 -0.2638
  164SAPE   H7X18489   5.329   5.816   6.958 -2.5665  0.1487  3.1351
  164SAPE   H7Y18490   5.245   5.968   6.973 -0.4047  0.4582 -0.5078
  164SAPE   C3818491   5.435   5.948   7.093 -0.1595  0.0402  0.1512
  164SAPE   H8X18492   5.463   6.055   7.101  2.0227 -0.4018 -0.7104
  164SAPE   H8Y18493   5.528   5.888   7.081  0.5523  0.5077  2.8091
  164SAPE   C3918494   5.371   5.899   7.217  0.0828  0.0065 -0.7351
  164SAPE   H9X18495   5.333   5.795   7.200 -0.8519  0.3384 -0.7546
  164SAPE   H9Y18496   5.277   5.957   7.227 -0.1077 -0.6514  2.5536
  164SAPE  C31018497   5.447   5.914   7.356  0.5755 -0.4317  0.5638
  164SAPE  H10X18498   5.482   6.017   7.374 -1.0316 -0.2833  3.5645
  164SAPE  H10Y18499   5.533   5.844   7.342 -0.0631 -1.0122 -0.6341
  164SAPE  C31118500   5.375   5.876   7.486  0.4925 -0.1689  0.2815
  164SAPE  H11X18501   5.326   5.778   7.470  0.1938  0.1282 -0.6899
  164SAPE  H11Y18502   5.302   5.958   7.504  0.2741 -0.3914  0.4075
  164SAPE  C31218503   5.473   5.887   7.602  0.0179 -0.3015 -0.8783
  164SAPE  H12X18504   5.504   5.993   7.601  1.2867 -0.5544  1.8257
  164SAPE  H12Y18505   5.560   5.827   7.568  1.1906  0.0721  1.2403
  164SAPE  C31318506   5.415   5.857   7.747 -0.1393 -0.0604  0.4864
  164SAPE  H13X18507   5.350   5.767   7.741 -0.6316  0.1278  2.2426
  164SAPE  H13Y18508   5.365   5.950   7.782  0.5147 -0.2524  2.0243
  164SAPE  C31418509   5.527   5.825   7.851 -0.3384 -0.2633 -0.0618
  164SAPE  H14X18510   5.586   5.917   7.871 -0.1698 -0.6133  1.1420
  164SAPE  H14Y18511   5.598   5.754   7.803  1.3146  1.6280 -0.5452
  164SAPE  C31518512   5.465   5.781   7.989 -0.3388  0.1830 -0.4820
  164SAPE  H15X18513   5.390   5.852   8.029 -1.7144 -0.2804 -2.0865
  164SAPE  H15Y18514   5.548   5.782   8.062 -2.6785  1.6848  2.3974
  164SAPE  C31618515   5.411   5.636   7.982  0.0830  0.0867 -0.0636
  164SAPE  H16X18516   5.497   5.576   7.944  0.6047  0.8694 -0.1445
  164SAPE  H16Y18517   5.324   5.627   7.914 -2.8911  1.1994  3.2467
  164SAPE  C31718518   5.356   5.588   8.112 -0.9842  0.8477 -0.3849
  164SAPE  H17X18519   5.347   5.478   8.105 -0.4424  0.7139  0.7156
  164SAPE  H17Y18520   5.256   5.631   8.134 -0.4877  1.5461  0.6345
  164SAPE  C31818521   5.442   5.607   8.243  0.3688  0.3735 -0.3207
  164SAPE  H18X18522   5.547   5.568   8.243  0.1083 -0.4337  1.7386
  164SAPE  H18Y18523   5.388   5.572   8.333  1.0230 -1.4235 -0.5731
  164SAPE  H18Z18524   5.457   5.716   8.254  1.5213  0.1553  0.4737
  165SAPE     N18525   5.158   2.018   6.268  0.4544 -0.7411  0.3133
  165SAPE   HN118526   5.093   2.038   6.189  1.2333  1.2000  0.1037
  165SAPE   HN218527   5.235   1.970   6.217 -1.2261 -0.2988 -2.8983
  165SAPE   HN318528   5.115   1.958   6.341 -1.7742  0.8424  0.3962
  165SAPE   C1218529   5.217   2.136   6.332 -0.8194 -0.9000  0.2765
  165SAPE  H12A18530   5.148   2.176   6.410 -0.0292  1.3546 -0.1074
  165SAPE  H12B18531   5.236   2.218   6.260  4.5569 -1.6130  0.4518
  165SAPE   C1118532   5.341   2.090   6.407  0.2486 -0.3583 -0.0557
  165SAPE  H11A18533   5.323   2.016   6.488  2.0688  1.0012  1.7082
  165SAPE  H11B18534   5.375   2.177   6.467 -0.4289 -0.1588  0.0417
  165SAPE     P18535   5.488   1.897   6.304 -0.0638  0.0039  0.0300
  165SAPE   O1318536   5.374   1.835   6.230 -0.4158  0.0539  0.3377
  165SAPE   O1418537   5.623   1.869   6.251  0.2477 -0.5398  0.0818
  165SAPE   O1218538   5.444   2.051   6.321 -0.1562 -0.3415 -0.0374
  165SAPE   O1118539   5.487   1.847   6.453 -0.2123  0.7053  0.1151
  165SAPE    C118540   5.556   1.724   6.482 -0.2094  0.3308  0.2354
  165SAPE    HA18541   5.511   1.637   6.431  0.9969  0.3993 -1.0065
  165SAPE    HB18542   5.659   1.728   6.439 -0.7900 -3.0068 -1.7852
  165SAPE    C218543   5.577   1.695   6.633  0.1133  0.0001  0.3862
  165SAPE    HS18544   5.643   1.606   6.645  0.0354 -0.1845 -0.4920
  165SAPE   O2118545   5.446   1.671   6.697  0.2396 -0.4182 -0.0618
  165SAPE   C2118546   5.401   1.543   6.690  0.2659 -0.0402  0.0935
  165SAPE   O2218547   5.465   1.457   6.626 -0.5083  0.2611 -0.3550
  165SAPE   C2218548   5.262   1.526   6.766  0.4069  0.4031  0.0643
  165SAPE   H2R18549   5.237   1.622   6.816  0.0401  0.7889 -0.8289
  165SAPE   H2S18550   5.186   1.510   6.686  1.0618  0.5718 -0.6126
  165SAPE    C318551   5.640   1.815   6.702 -0.6727  0.2079  0.5411
  165SAPE    HX18552   5.647   1.801   6.812  1.8170  1.7792  0.6683
  165SAPE    HY18553   5.565   1.896   6.691 -1.7494 -0.8036  0.2188
  165SAPE   O3118554   5.769   1.851   6.647  0.6556  0.2108 -0.0640
  165SAPE   C3118555   5.784   1.979   6.641 -0.0614  0.1823 -0.0548
  165SAPE   O3218556   5.710   2.072   6.663  0.0563  0.3383 -0.7542
  165SAPE   C3218557   5.928   2.014   6.610  0.0830 -0.1770  0.9349
  165SAPE   H2X18558   5.921   2.084   6.524  1.7227 -0.6583  0.3750
  165SAPE   H2Y18559   5.974   1.917   6.582 -1.6055 -1.8910  3.5736
  165SAPE   C2318560   5.253   1.419   6.877  0.3608 -0.0815  0.5729
  165SAPE   H3R18561   5.267   1.318   6.832 -0.7410  0.1134 -0.2633
  165SAPE   H3S18562   5.145   1.424   6.900  0.3967 -1.1902  1.0627
  165SAPE   C2418563   5.331   1.451   7.009 -0.0423 -0.5085 -0.6490
  165SAPE   H4R18564   5.278   1.545   7.033  2.4797  1.1121 -1.0790
  165SAPE   H4S18565   5.438   1.474   6.987  0.1466  0.0437  0.7777
  165SAPE   C2518566   5.306   1.347   7.112  0.5233  0.8811  0.2269
  165SAPE   H5R18567   5.277   1.250   7.069 -1.5954  1.3045  0.5726
  165SAPE   C2618568   5.317   1.347   7.244 -0.6346  0.7925  0.2964
  165SAPE   H6R18569   5.297   1.257   7.304  0.1389  0.1663 -0.3496
  165SAPE   C2718570   5.369   1.471   7.311  0.2144 -0.3892 -0.3944
  165SAPE   H7R18571   5.346   1.455   7.419 -2.3619  1.0047 -0.6610
  165SAPE   H7S18572   5.300   1.557   7.295 -0.6554 -1.1714 -0.9976
  165SAPE   C2818573   5.517   1.518   7.303  0.3442 -0.2079  0.5906
  165SAPE   H8R18574   5.573   1.479   7.217 -1.4589  0.5469 -1.0001
  165SAPE   C2918575   5.574   1.592   7.395 -0.2216 -0.4614  0.0043
  165SAPE   H9R18576   5.675   1.630   7.377 -0.9909  0.2730 -3.7199
  165SAPE  C21018577   5.508   1.655   7.515  0.3503 -0.1784 -0.3350
  165SAPE  H10R18578   5.515   1.589   7.604  0.3792  0.6554  0.2980
  165SAPE  H10S18579   5.399   1.649   7.492  0.3188 -3.3316  0.2341
  165SAPE  C21118580   5.550   1.794   7.538 -0.4274 -0.4726 -0.2174
  165SAPE  H11R18581   5.563   1.852   7.445 -1.5319 -2.0234 -1.4047
  165SAPE  C21218582   5.544   1.868   7.650 -0.3127  0.1279 -0.9734
  165SAPE  H12R18583   5.578   1.972   7.656  0.5869 -0.2236  1.0803
  165SAPE  C21318584   5.509   1.805   7.782  0.2285  0.9166 -0.2505
  165SAPE  H13R18585   5.602   1.793   7.842 -1.7986  0.9128  3.2129
  165SAPE  H13S18586   5.474   1.700   7.781  0.6301  0.7746  0.2102
  165SAPE  C21418587   5.410   1.889   7.869  0.2782 -0.4515  0.1363
  165SAPE  H14R18588   5.362   1.969   7.811 -1.6554  1.2514  3.7292
  165SAPE  C21518589   5.385   1.877   8.000 -0.2508  0.2153 -0.1224
  165SAPE  H15R18590   5.305   1.934   8.050 -0.9541 -0.7973 -0.0576
  165SAPE  C21618591   5.446   1.775   8.081 -0.0086  0.7168  0.4592
  165SAPE  H16R18592   5.528   1.731   8.019 -1.8115  1.0668 -2.3704
  165SAPE  H16S18593   5.370   1.696   8.098  0.8839 -0.4035 -0.5146
  165SAPE  C21718594   5.499   1.815   8.220 -0.1429 -0.0706  0.1052
  165SAPE  H17R18595   5.546   1.914   8.201 -0.7224  0.3887  0.9857
  165SAPE  H17S18596   5.562   1.746   8.280 -2.1569 -1.9256  0.1899
  165SAPE  C21818597   5.383   1.858   8.313 -0.8056  0.7799 -0.6546
  165SAPE  H18R18598   5.308   1.779   8.293  0.5133 -0.0211 -2.6745
  165SAPE  H18S18599   5.346   1.953   8.267 -2.2042  0.0265 -1.1425
  165SAPE  C21918600   5.420   1.889   8.461 -0.2452  0.0063  0.1949
  165SAPE  H19R18601   5.477   1.807   8.510  0.7729 -0.7548 -2.0868
  165SAPE  H19S18602   5.326   1.910   8.517 -0.7884  0.1661 -0.7550
  165SAPE  C22018603   5.505   2.022   8.484 -0.5297  0.0701 -0.0593
  165SAPE  H20R18604   5.497   2.058   8.589 -1.4853 -1.3652  0.3926
  165SAPE  H20S18605   5.466   2.112   8.431 -1.0602  0.9779  1.7856
  165SAPE  H20T18606   5.612   2.006   8.460 -0.7456 -1.5335 -0.0829
  165SAPE   C3318607   5.996   2.073   6.732 -0.1429  0.0262 -0.0034
  165SAPE   H3X18608   6.004   2.002   6.817  0.9889  2.2728  1.8474
  165SAPE   H3Y18609   5.947   2.160   6.779  0.9391  1.2023 -0.9884
  165SAPE   C3418610   6.141   2.117   6.703 -0.1416 -0.1775  0.7606
  165SAPE   H4X18611   6.140   2.196   6.625  1.0720  2.2474  3.0584
  165SAPE   H4Y18612   6.192   2.026   6.665 -2.8897 -2.1264  1.3883
  165SAPE   C3518613   6.218   2.155   6.825 -0.1559  0.3569  0.5357
  165SAPE   H5X18614   6.322   2.180   6.796 -0.2922 -0.8525 -1.1219
  165SAPE   H5Y18615   6.224   2.072   6.898 -1.0101  1.5950  2.0785
  165SAPE   C3618616   6.171   2.284   6.894  0.0944  0.0159  0.0321
  165SAPE   H6X18617   6.065   2.293   6.928 -0.4262  0.6989 -1.6651
  165SAPE   H6Y18618   6.187   2.366   6.821  3.8059  2.0182  2.7286
  165SAPE   C3718619   6.242   2.303   7.032 -0.4288  0.7840 -0.4967
  165SAPE   H7X18620   6.352   2.295   7.018 -0.4195  0.7131 -0.3842
  165SAPE   H7Y18621   6.215   2.211   7.088 -0.2156 -0.3348 -2.1416
  165SAPE   C3818622   6.207   2.434   7.099 -0.5177  0.1419 -0.3120
  165SAPE   H8X18623   6.097   2.423   7.113 -0.4515 -0.8080 -0.4316
  165SAPE   H8Y18624   6.221   2.524   7.035 -0.9017  0.3538 -0.0969
  165SAPE   C3918625   6.275   2.436   7.233 -0.2237 -0.0534  0.2219
  165SAPE   H9X18626   6.386   2.442   7.229 -0.1462  0.4919  2.1889
  165SAPE   H9Y18627   6.263   2.338   7.283 -1.2824  0.1532  0.3928
  165SAPE  C31018628   6.221   2.543   7.334 -0.1277  0.0136 -0.0001
  165SAPE  H10X18629   6.111   2.550   7.336 -0.2647 -1.6532  1.6423
  165SAPE  H10Y18630   6.257   2.642   7.299  0.0901 -0.2369 -0.4957
  165SAPE  C31118631   6.272   2.508   7.478 -0.0671  0.7753  0.1889
  165SAPE  H11X18632   6.381   2.517   7.497 -0.0813 -0.7619  1.1932
  165SAPE  H11Y18633   6.245   2.401   7.495  1.3348  0.3973  0.1001
  165SAPE  C31218634   6.208   2.597   7.585  0.1453 -0.2689  0.2520
  165SAPE  H12X18635   6.106   2.630   7.555  1.1666  2.0238 -0.9899
  165SAPE  H12Y18636   6.268   2.688   7.606 -1.3556  1.2122 -1.4745
  165SAPE  C31318637   6.192   2.525   7.718  0.0267  0.3491 -0.1316
  165SAPE  H13X18638   6.282   2.466   7.747 -0.9425 -0.8465  0.5378
  165SAPE  H13Y18639   6.124   2.438   7.703  2.4056 -1.7601  0.4346
  165SAPE  C31418640   6.152   2.620   7.835 -0.0905  0.4376  0.2356
  165SAPE  H14X18641   6.049   2.652   7.805  0.9269  0.5595 -3.6713
  165SAPE  H14Y18642   6.199   2.719   7.856 -0.4890  0.2237  2.2755
  165SAPE  C31518643   6.154   2.555   7.970  0.3631  0.5839 -0.0680
  165SAPE  H15X18644   6.256   2.510   7.976 -0.3853 -0.9761  3.1382
  165SAPE  H15Y18645   6.078   2.476   7.985  1.2023 -0.0184  1.1837
  165SAPE  C31618646   6.135   2.666   8.081 -0.2332  0.3980 -0.8796
  165SAPE  H16X18647   6.031   2.706   8.078  0.2713  1.7083 -2.7958
  165SAPE  H16Y18648   6.209   2.748   8.072  2.4280 -1.6836  0.5853
  165SAPE  C31718649   6.153   2.603   8.223 -0.5091  0.6944 -0.4729
  165SAPE  H17X18650   6.260   2.575   8.236 -0.3395  0.5579 -1.9733
  165SAPE  H17Y18651   6.086   2.516   8.238 -0.4026  0.7590  0.4262
  165SAPE  C31818652   6.105   2.701   8.329 -0.5215  0.0733  1.0517
  165SAPE  H18X18653   6.160   2.679   8.424 -1.3283 -1.9977  1.0929
  165SAPE  H18Y18654   5.998   2.683   8.352 -0.1198 -2.9480  0.9911
  165SAPE  H18Z18655   6.136   2.801   8.291  0.5978 -0.0712  1.5263
  166SAPE     N18656   5.322   5.450   5.878  0.7332  0.1763 -1.1095
  166SAPE   HN118657   5.360   5.353   5.879  0.2406 -0.0541  1.1908
  166SAPE   HN218658   5.337   5.492   5.972 -0.4905 -0.3973 -0.6368
  166SAPE   HN318659   5.219   5.441   5.867  0.7310 -0.3581 -0.6943
  166SAPE   C1218660   5.370   5.528   5.760  0.3446 -0.4689 -1.0316
  166SAPE  H12A18661   5.346   5.468   5.669 -0.6911 -2.0917  0.2605
  166SAPE  H12B18662   5.480   5.544   5.770  0.0405  1.4924 -0.4165
  166SAPE   C1118663   5.284   5.657   5.743 -0.2446  0.5803  0.7270
  166SAPE  H11A18664   5.188   5.629   5.695  0.2641 -0.1852  0.1358
  166SAPE  H11B18665   5.337   5.717   5.666  0.4302 -1.4648 -0.4638
  166SAPE     P18666   5.354   5.821   5.933  0.0786 -0.0635  0.5259
  166SAPE   O1318667   5.457   5.748   6.006  0.2695 -0.1908 -0.7587
  166SAPE   O1418668   5.399   5.919   5.830  0.4154  0.0599  0.4200
  166SAPE   O1218669   5.259   5.717   5.865  0.3674  0.0528 -0.6337
  166SAPE   O1118670   5.258   5.885   6.028 -0.1794 -0.0447 -0.1309
  166SAPE    C118671   5.179   5.809   6.123  0.0950  0.0132  0.1978
  166SAPE    HA18672   5.075   5.848   6.110  0.0380 -0.2447 -0.1685
  166SAPE    HB18673   5.177   5.702   6.093 -0.8694  0.6601 -2.3829
  166SAPE    C218674   5.215   5.818   6.273  0.1179 -0.6944 -0.9969
  166SAPE    HS18675   5.207   5.924   6.304 -0.6303  0.4788 -4.6732
  166SAPE   O2118676   5.340   5.760   6.307 -0.1024 -0.3477  0.2554
  166SAPE   C2118677   5.438   5.841   6.276 -0.4368  0.5260 -0.4064
  166SAPE   O2218678   5.421   5.960   6.247 -0.1130 -0.4072  0.3938
  166SAPE   C2218679   5.569   5.767   6.289  0.1675  0.6522  0.2813
  166SAPE   H2R18680   5.560   5.664   6.330 -1.5008  0.2653 -0.9622
  166SAPE   H2S18681   5.628   5.781   6.196  0.7448  2.0470  0.8356
  166SAPE    C318682   5.103   5.760   6.365  0.3494 -0.5710 -0.0184
  166SAPE    HX18683   5.092   5.654   6.333 -1.5589  0.0566 -1.6770
  166SAPE    HY18684   5.009   5.815   6.340  0.3500 -1.5136 -2.2900
  166SAPE   O3118685   5.132   5.791   6.506 -0.6240 -0.0924 -0.2279
  166SAPE   C3118686   5.030   5.785   6.583 -0.9450  0.4578 -1.0403
  166SAPE   O3218687   4.919   5.757   6.544  0.0005  0.3119  0.2075
  166SAPE   C3218688   5.056   5.847   6.726  0.7927 -0.4443  0.5924
  166SAPE   H2X18689   5.116   5.939   6.712  1.7470 -1.3754 -1.9240
  166SAPE   H2Y18690   5.118   5.771   6.778  1.0714 -0.8519 -0.3217
  166SAPE   C2318691   5.662   5.837   6.393 -0.2558 -0.0529  0.0226
  166SAPE   H3R18692   5.675   5.947   6.385 -4.9532  0.8822  1.7815
  166SAPE   H3S18693   5.764   5.794   6.391 -0.2451 -0.2336  2.2244
  166SAPE   C2418694   5.616   5.827   6.543 -0.1695  0.0257  0.4309
  166SAPE   H4R18695   5.507   5.847   6.552 -0.1677  0.0165  0.4741
  166SAPE   H4S18696   5.674   5.894   6.611 -0.4617 -0.2669  0.9742
  166SAPE   C2518697   5.635   5.679   6.585 -0.0802 -0.6279  0.9234
  166SAPE   H5R18698   5.737   5.643   6.569 -0.3259 -2.1212  2.4141
  166SAPE   C2618699   5.542   5.595   6.640 -0.0568  0.2123 -0.5077
  166SAPE   H6R18700   5.580   5.494   6.662 -0.6317 -0.1078 -0.9559
  166SAPE   C2718701   5.396   5.616   6.675 -0.4917  0.0676 -0.1287
  166SAPE   H7R18702   5.363   5.705   6.617  1.0106 -0.7975 -2.4521
  166SAPE   H7S18703   5.388   5.629   6.786  3.1538  3.5274 -0.0203
  166SAPE   C2818704   5.310   5.509   6.616  0.9875 -0.5613  0.0613
  166SAPE   H8R18705   5.300   5.510   6.506  0.7551 -0.1483  0.0853
  166SAPE   C2918706   5.218   5.444   6.690 -0.5098  0.2442 -0.0333
  166SAPE   H9R18707   5.171   5.357   6.641  2.1157 -1.0933 -0.3550
  166SAPE  C21018708   5.191   5.446   6.841 -0.0638 -0.3295 -0.3530
  166SAPE  H10R18709   5.081   5.432   6.852 -0.4115  2.5621  0.7574
  166SAPE  H10S18710   5.211   5.549   6.878  0.1233 -0.2865 -0.5725
  166SAPE  C21118711   5.273   5.349   6.923 -0.4874  0.3930 -0.3720
  166SAPE  H11R18712   5.328   5.273   6.865 -0.3801  0.3054 -0.1580
  166SAPE  C21218713   5.295   5.357   7.056 -0.5496  0.7522  0.0310
  166SAPE  H12R18714   5.377   5.290   7.087 -2.2608 -3.0386 -2.7544
  166SAPE  C21318715   5.249   5.472   7.146  0.0610 -0.1847  0.5368
  166SAPE  H13R18716   5.141   5.456   7.168 -0.5419 -0.6574 -2.3326
  166SAPE  H13S18717   5.254   5.570   7.093 -0.1868 -0.8514 -0.7589
  166SAPE  C21418718   5.330   5.491   7.265 -0.2841  0.2135 -0.4596
  166SAPE  H14R18719   5.419   5.554   7.250  0.8203 -0.9491  0.8760
  166SAPE  C21518720   5.336   5.422   7.382  0.6000  0.7589 -0.1585
  166SAPE  H15R18721   5.397   5.457   7.466 -1.0953 -1.1708  1.9803
  166SAPE  C21618722   5.250   5.299   7.412 -0.0876  0.9314  0.0176
  166SAPE  H16R18723   5.311   5.233   7.478  1.7160  2.8233  0.3470
  166SAPE  H16S18724   5.230   5.248   7.315  2.6155 -2.7799  1.1766
  166SAPE  C21718725   5.127   5.328   7.498 -0.8803  0.2032  0.6098
  166SAPE  H17R18726   5.046   5.373   7.436  0.7579  2.1419 -0.2449
  166SAPE  H17S18727   5.142   5.389   7.589  0.6093 -1.1529  1.3276
  166SAPE  C21818728   5.075   5.196   7.571 -1.2712 -0.8997  0.3319
  166SAPE  H18R18729   5.152   5.160   7.642  0.3920 -0.5331 -1.2070
  166SAPE  H18S18730   5.073   5.115   7.495  2.3638  0.7515 -1.7763
  166SAPE  C21918731   4.942   5.216   7.641 -0.2034 -0.1694 -0.3888
  166SAPE  H19R18732   4.867   5.228   7.561  0.3326 -0.0251 -0.8746
  166SAPE  H19S18733   4.940   5.310   7.701 -2.1439 -1.0714  1.0528
  166SAPE  C22018734   4.916   5.097   7.733  0.4861  0.2150  0.3588
  166SAPE  H20R18735   4.986   5.097   7.819  0.6698 -0.2261  0.2161
  166SAPE  H20S18736   4.922   5.008   7.666 -2.0444  2.1280 -2.6616
  166SAPE  H20T18737   4.813   5.111   7.773 -0.0558 -0.9218 -0.5620
  166SAPE   C3318738   4.911   5.874   6.794 -0.4244 -0.2814 -0.2124
  166SAPE   H3X18739   4.853   5.780   6.786  0.6331 -0.7573 -4.1516
  166SAPE   H3Y18740   4.863   5.963   6.748  0.3586  1.0491  1.4230
  166SAPE   C3418741   4.906   5.895   6.946 -0.0658  0.3170  0.0023
  166SAPE   H4X18742   4.798   5.909   6.966 -0.2627  0.7872 -1.3063
  166SAPE   H4Y18743   4.967   5.986   6.967  0.9020 -0.1942 -0.5127
  166SAPE   C3518744   4.951   5.779   7.034  0.0168  0.0720 -0.0148
  166SAPE   H5X18745   5.061   5.762   7.025  0.3351  1.4729  0.8239
  166SAPE   H5Y18746   4.906   5.682   7.007  0.2176  0.0347 -0.2181
  166SAPE   C3618747   4.929   5.808   7.183 -0.3534  0.2468 -0.4088
  166SAPE   H6X18748   4.818   5.809   7.196 -0.2382 -0.8430  0.9239
  166SAPE   H6Y18749   4.967   5.909   7.210 -2.3752  0.3398  2.5685
  166SAPE   C3718750   4.993   5.707   7.277  0.4812  0.1585 -0.3226
  166SAPE   H7X18751   5.103   5.727   7.276  0.5630 -0.2966 -0.6095
  166SAPE   H7Y18752   4.981   5.598   7.261 -1.8589  0.0175  1.8139
  166SAPE   C3818753   4.938   5.733   7.420 -0.2723 -0.5554 -0.4804
  166SAPE   H8X18754   4.850   5.669   7.442 -0.6685  0.6601  1.8073
  166SAPE   H8Y18755   4.917   5.841   7.434  1.2858 -0.5598  3.1764
  166SAPE   C3918756   5.042   5.706   7.528 -0.7213 -0.1331  0.3653
  166SAPE   H9X18757   5.103   5.796   7.552 -0.9549  0.4558 -1.1418
  166SAPE   H9Y18758   5.109   5.628   7.487  0.2667  0.1061  1.4652
  166SAPE  C31018759   4.985   5.657   7.669  0.6260  0.5013 -0.0459
  166SAPE  H10X18760   4.925   5.566   7.645 -2.1813  1.7905  1.6589
  166SAPE  H10Y18761   4.917   5.736   7.705 -1.8740 -0.8683 -1.5201
  166SAPE  C31118762   5.084   5.621   7.777  0.7803 -0.1610 -0.2619
  166SAPE  H11X18763   5.156   5.706   7.781 -1.5310  1.8909 -0.2822
  166SAPE  H11Y18764   5.144   5.533   7.743  0.5037 -0.4720  0.0499
  166SAPE  C31218765   5.031   5.605   7.924  0.1033  0.1772  0.4942
  166SAPE  H12X18766   4.989   5.698   7.966 -1.6136  0.3792 -1.5017
  166SAPE  H12Y18767   5.117   5.573   7.987  1.4402  0.6049 -1.0329
  166SAPE  C31318768   4.924   5.504   7.937  0.7347  0.6469 -0.0079
  166SAPE  H13X18769   4.967   5.410   7.897 -1.9319 -0.4843 -0.4243
  166SAPE  H13Y18770   4.840   5.522   7.866  0.8817  1.1256 -0.0680
  166SAPE  C31418771   4.859   5.490   8.081 -0.3292  0.0827 -0.0625
  166SAPE  H14X18772   4.764   5.547   8.077  1.0373  2.5723  0.6738
  166SAPE  H14Y18773   4.920   5.546   8.155 -2.4122 -0.2679  2.0279
  166SAPE  C31518774   4.834   5.349   8.116  0.0500 -0.5807  0.3278
  166SAPE  H15X18775   4.935   5.304   8.129  0.7600  1.2622  1.5366
  166SAPE  H15Y18776   4.762   5.311   8.041 -0.7635  1.1593  0.1934
  166SAPE  C31618777   4.764   5.336   8.257 -0.1238  0.4539  0.3671
  166SAPE  H16X18778   4.828   5.381   8.336  2.5277 -0.2176 -1.2606
  166SAPE  H16Y18779   4.747   5.227   8.270 -0.8531  0.8596  3.6660
  166SAPE  C31718780   4.629   5.403   8.262 -0.3933  0.4813 -0.1697
  166SAPE  H17X18781   4.590   5.407   8.158  0.4852  0.7037 -0.4995
  166SAPE  H17Y18782   4.646   5.508   8.292 -1.2496  0.7325 -0.5325
  166SAPE  C31818783   4.535   5.328   8.356 -0.3691 -0.9128  0.0786
  166SAPE  H18X18784   4.525   5.223   8.321  0.7936 -0.2669 -2.3975
  166SAPE  H18Y18785   4.436   5.378   8.355  0.4946  0.8890  0.8548
  166SAPE  H18Z18786   4.577   5.339   8.458 -0.1673  1.8971 -0.2344
  167SAPE     N18787   5.896   5.419   6.004  0.5677 -0.2743  0.2716
  167SAPE   HN118788   5.843   5.372   6.080 -0.7702  1.6355  0.5858
  167SAPE   HN218789   5.990   5.451   6.035  0.7325  0.1746 -0.6920
  167SAPE   HN318790   5.834   5.500   5.987  0.5684 -0.4017 -0.3317
  167SAPE   C1218791   5.900   5.332   5.884  0.0409  0.9407  0.5672
  167SAPE  H12A18792   5.965   5.243   5.901 -1.4220 -0.9019 -2.6500
  167SAPE  H12B18793   5.945   5.398   5.807 -1.0002  1.0323  0.0197
  167SAPE   C1118794   5.756   5.287   5.844 -0.7315 -0.1915 -0.2286
  167SAPE  H11A18795   5.764   5.245   5.741  2.5977  0.8288 -0.5192
  167SAPE  H11B18796   5.684   5.372   5.835  0.4587  0.8167 -0.6002
  167SAPE     P18797   5.593   5.216   6.030 -0.1720  0.0840 -0.0275
  167SAPE   O1318798   5.632   5.327   6.116 -0.1205  0.6979 -0.3631
  167SAPE   O1418799   5.474   5.234   5.935  0.2817 -0.2628 -0.2954
  167SAPE   O1218800   5.717   5.183   5.936  0.0977  0.0849 -0.3481
  167SAPE   O1118801   5.582   5.085   6.118  0.3871 -0.1678  0.6078
  167SAPE    C118802   5.709   5.032   6.166  0.2606  0.5479 -0.5739
  167SAPE    HA18803   5.709   4.923   6.142 -0.5327  0.1334  1.1179
  167SAPE    HB18804   5.808   5.074   6.140  1.3404 -2.2605 -1.4397
  167SAPE    C218805   5.719   5.037   6.327  0.0323 -0.1681 -0.0338
  167SAPE    HS18806   5.768   5.130   6.364 -0.5526 -0.0649  0.5179
  167SAPE   O2118807   5.798   4.927   6.374 -0.3627  0.2663 -0.2843
  167SAPE   C2118808   5.927   4.922   6.345 -0.2130  0.7025  0.5566
  167SAPE   O2218809   5.993   5.005   6.290 -0.7066  0.6309  0.3221
  167SAPE   C2218810   5.969   4.778   6.391  0.5266 -0.3719 -0.0723
  167SAPE   H2R18811   5.977   4.790   6.501 -2.8238  2.9431  0.0378
  167SAPE   H2S18812   5.886   4.711   6.360 -1.3310  1.4139  0.8117
  167SAPE    C318813   5.577   5.032   6.391  0.1089  0.3037 -0.0017
  167SAPE    HX18814   5.532   4.931   6.380 -1.0069  1.0031 -2.5691
  167SAPE    HY18815   5.512   5.104   6.337  0.6423  0.2549 -0.7135
  167SAPE   O3118816   5.594   5.063   6.535  0.2869 -0.0229 -0.4313
  167SAPE   C3118817   5.570   5.192   6.572 -0.7935  0.3468 -0.2853
  167SAPE   O3218818   5.529   5.284   6.502 -0.2561  0.2511 -0.2349
  167SAPE   C3218819   5.585   5.210   6.721  0.0587  0.5055  0.1892
  167SAPE   H2X18820   5.512   5.147   6.775  0.1031 -0.2509 -0.6157
  167SAPE   H2Y18821   5.550   5.315   6.732  0.7338  0.7238  0.3024
  167SAPE   C2318822   6.106   4.715   6.337  0.2255 -0.5970 -0.3056
  167SAPE   H3R18823   6.187   4.791   6.342 -0.1082  0.1673 -3.7066
  167SAPE   H3S18824   6.101   4.691   6.228  2.8629 -0.5556 -0.5077
  167SAPE   C2418825   6.152   4.600   6.421  0.3538  0.1151 -0.5993
  167SAPE   H4R18826   6.069   4.532   6.448 -0.5531  0.8005 -1.5948
  167SAPE   H4S18827   6.197   4.639   6.515 -1.2411 -1.8571  1.0645
  167SAPE   C2518828   6.267   4.529   6.351 -0.0541 -0.5969 -0.4752
  167SAPE   H5R18829   6.238   4.462   6.269 -0.1243 -1.3930  0.1843
  167SAPE   C2618830   6.401   4.521   6.380 -0.0038  0.0379 -0.2706
  167SAPE   H6R18831   6.465   4.462   6.313  0.7081  1.3902 -0.8042
  167SAPE   C2718832   6.484   4.584   6.491 -0.1419 -0.8406  0.2183
  167SAPE   H7R18833   6.419   4.638   6.563  2.2048 -0.7311  2.3885
  167SAPE   H7S18834   6.552   4.664   6.455 -2.6354  0.8424 -1.0466
  167SAPE   C2818835   6.558   4.477   6.569 -0.2798 -0.6904 -0.1305
  167SAPE   H8R18836   6.653   4.432   6.538  1.6217  1.0619  2.7322
  167SAPE   C2918837   6.516   4.441   6.690 -1.1779  0.6815  0.1266
  167SAPE   H9R18838   6.570   4.359   6.740  0.0518  0.5922 -1.2840
  167SAPE  C21018839   6.397   4.491   6.768 -0.0144 -0.5834 -0.0913
  167SAPE  H10R18840   6.361   4.422   6.847  0.8823 -0.5951  0.3164
  167SAPE  H10S18841   6.316   4.502   6.692  1.1996  3.4334 -1.0202
  167SAPE  C21118842   6.405   4.627   6.831 -0.5922  0.3092  0.4531
  167SAPE  H11R18843   6.469   4.692   6.770 -0.7029 -1.8604 -2.1546
  167SAPE  C21218844   6.341   4.674   6.941 -0.4291 -0.7749 -0.0462
  167SAPE  H12R18845   6.371   4.775   6.972  0.7335 -1.3556  0.7926
  167SAPE  C21318846   6.242   4.611   7.035  0.4161 -0.0507  0.4895
  167SAPE  H13R18847   6.291   4.552   7.115 -1.6656  1.1149  2.7581
  167SAPE  H13S18848   6.177   4.545   6.974 -0.2750 -0.0924  1.2640
  167SAPE  C21418849   6.158   4.716   7.104 -0.7275 -0.1909 -0.0339
  167SAPE  H14R18850   6.219   4.758   7.186  1.5718 -1.9551 -0.7405
  167SAPE  C21518851   6.044   4.778   7.057  0.2608  0.6105 -0.9781
  167SAPE  H15R18852   6.008   4.864   7.115 -0.1975  1.6488 -2.7351
  167SAPE  C21618853   5.955   4.749   6.934 -0.5581 -0.4741 -0.2506
  167SAPE  H16R18854   5.848   4.726   6.954 -0.4953 -1.6293 -1.1174
  167SAPE  H16S18855   5.996   4.660   6.881 -1.9627 -1.8403  0.8360
  167SAPE  C21718856   5.941   4.878   6.838 -0.6559 -0.2332 -0.0489
  167SAPE  H17R18857   5.908   4.964   6.899 -0.4259 -0.3022  0.1756
  167SAPE  H17S18858   5.862   4.843   6.768 -0.9880 -0.6527  0.5228
  167SAPE  C21818859   6.070   4.916   6.756  0.9680  0.3501 -0.3045
  167SAPE  H18R18860   6.091   4.834   6.685  0.1142 -0.5264  0.4351
  167SAPE  H18S18861   6.151   4.933   6.831 -0.0435  1.1937  0.6374
  167SAPE  C21918862   6.061   5.051   6.685 -0.3004 -0.1964 -0.2668
  167SAPE  H19R18863   6.060   5.134   6.759  1.0764  1.9865 -2.5473
  167SAPE  H19S18864   5.970   5.051   6.622 -0.9890 -1.6557  0.6549
  167SAPE  C22018865   6.176   5.080   6.605 -0.4436 -0.0070 -0.0462
  167SAPE  H20R18866   6.183   5.000   6.528 -2.1602 -1.9158  1.6573
  167SAPE  H20S18867   6.268   5.076   6.668  1.3658 -1.3996 -2.5879
  167SAPE  H20T18868   6.168   5.181   6.559  2.1396  0.6278  0.7399
  167SAPE   C3318869   5.728   5.196   6.780 -0.6205  0.2077 -0.0595
  167SAPE   H3X18870   5.803   5.265   6.736  1.1224 -1.3476  0.3333
  167SAPE   H3Y18871   5.771   5.094   6.766  0.8194  0.6879  0.5929
  167SAPE   C3418872   5.738   5.236   6.930  0.3603  0.3883  0.2371
  167SAPE   H4X18873   5.692   5.337   6.939 -0.0573  0.1640  0.6609
  167SAPE   H4Y18874   5.846   5.235   6.958  0.4546  1.5157 -0.0471
  167SAPE   C3518875   5.676   5.139   7.025  0.9487  0.0981 -1.0077
  167SAPE   H5X18876   5.709   5.034   7.015 -1.3124 -0.6525 -1.3490
  167SAPE   H5Y18877   5.566   5.129   7.012  0.5965 -1.7976  2.2725
  167SAPE   C3618878   5.705   5.185   7.172  0.1326 -0.2909  0.8965
  167SAPE   H6X18879   5.657   5.284   7.185  1.0723  0.5683 -1.6399
  167SAPE   H6Y18880   5.815   5.184   7.187  0.1134 -1.6803  1.0686
  167SAPE   C3718881   5.655   5.092   7.284 -0.2832  0.0221 -0.1688
  167SAPE   H7X18882   5.556   5.052   7.253  0.1130 -2.5867  1.5652
  167SAPE   H7Y18883   5.647   5.144   7.382 -2.0485  0.2205 -0.3997
  167SAPE   C3818884   5.750   4.971   7.310  0.3840 -0.5999  0.2941
  167SAPE   H8X18885   5.854   5.005   7.330 -0.1513  0.9943  0.4678
  167SAPE   H8Y18886   5.758   4.908   7.219 -4.3889 -2.0199  0.5855
  167SAPE   C3918887   5.706   4.886   7.431  0.0568  0.8566 -0.0579
  167SAPE   H9X18888   5.746   4.782   7.429 -1.7676  0.0818  1.1894
  167SAPE   H9Y18889   5.596   4.873   7.424  0.0860 -2.5465  2.7955
  167SAPE  C31018890   5.731   4.952   7.570 -0.1616 -0.3565  0.5561
  167SAPE  H10X18891   5.664   5.040   7.577  0.2985  0.2330 -1.6305
  167SAPE  H10Y18892   5.840   4.975   7.577  0.0684 -1.1969 -0.0072
  167SAPE  C31118893   5.689   4.864   7.686 -0.3679  0.9445 -0.5412
  167SAPE  H11X18894   5.579   4.872   7.700 -0.5172 -1.1700 -0.1376
  167SAPE  H11Y18895   5.730   4.903   7.782  1.4681 -2.0298  0.0450
  167SAPE  C31218896   5.751   4.724   7.694  0.1147 -0.2981  0.0712
  167SAPE  H12X18897   5.850   4.730   7.646  0.4378  0.5801  0.8289
  167SAPE  H12Y18898   5.704   4.649   7.627  1.3055  0.4103 -1.6242
  167SAPE  C31318899   5.771   4.672   7.839  0.5995 -0.1732  0.3912
  167SAPE  H13X18900   5.821   4.747   7.905 -0.0143  0.4463  0.1692
  167SAPE  H13Y18901   5.840   4.585   7.834  0.1109 -0.5087 -1.1881
  167SAPE  C31418902   5.635   4.631   7.901 -0.2991  0.2564  0.0974
  167SAPE  H14X18903   5.588   4.554   7.838 -0.5922 -0.1696  0.8313
  167SAPE  H14Y18904   5.568   4.719   7.908 -0.9503 -0.1557 -0.8916
  167SAPE  C31518905   5.652   4.581   8.046  0.3356 -0.2911 -0.0944
  167SAPE  H15X18906   5.722   4.497   8.062 -1.2189 -1.9910 -1.7331
  167SAPE  H15Y18907   5.552   4.534   8.051  0.8233 -1.2586  0.8009
  167SAPE  C31618908   5.664   4.700   8.137 -0.6525 -0.0972 -0.8966
  167SAPE  H16X18909   5.582   4.775   8.138 -0.2804  0.5033  3.0181
  167SAPE  H16Y18910   5.763   4.745   8.119 -0.7952  0.3325 -0.6217
  167SAPE  C31718911   5.675   4.642   8.290 -0.0758 -0.0314  0.4335
  167SAPE  H17X18912   5.774   4.593   8.303  0.8953  1.8312  0.5157
  167SAPE  H17Y18913   5.603   4.566   8.326 -0.1584 -1.1440 -1.8603
  167SAPE  C31818914   5.664   4.764   8.390 -0.5712 -0.1401  0.3418
  167SAPE  H18X18915   5.734   4.848   8.373 -0.6855  0.0781  0.9456
  167SAPE  H18Y18916   5.686   4.713   8.486  1.2730 -0.4273 -0.1840
  167SAPE  H18Z18917   5.561   4.806   8.394 -0.5962  0.1909 -2.1354
  168SAPE     N18918   1.364   5.577   6.552 -0.2842 -0.1663 -0.1278
  168SAPE   HN118919   1.318   5.606   6.464  1.1124  0.9854 -0.5166
  168SAPE   HN218920   1.415   5.666   6.575 -3.4718  1.7290  0.1681
  168SAPE   HN318921   1.424   5.494   6.536 -0.4594 -0.5930  1.2612
  168SAPE   C1218922   1.257   5.539   6.652 -0.1497  0.9430 -0.0879
  168SAPE  H12A18923   1.297   5.546   6.755  2.3028 -0.4640 -0.8694
  168SAPE  H12B18924   1.217   5.441   6.620  0.2716  0.4283  0.9335
  168SAPE   C1118925   1.137   5.637   6.641 -0.6764  0.1300 -1.0582
  168SAPE  H11A18926   1.162   5.741   6.673  2.3499 -0.9656  0.6209
  168SAPE  H11B18927   1.064   5.588   6.709  0.2953 -1.8946 -1.3941
  168SAPE     P18928   0.970   5.718   6.457  0.0531 -0.2741 -0.2305
  168SAPE   O1318929   1.026   5.809   6.358  0.1924  0.1884 -0.0084
  168SAPE   O1418930   0.859   5.630   6.411 -0.1016 -0.9512  0.5388
  168SAPE   O1218931   1.086   5.626   6.508 -0.2120 -0.5196 -0.1400
  168SAPE   O1118932   0.920   5.808   6.584  0.0808  0.3990  0.1181
  168SAPE    C118933   0.817   5.761   6.675  0.3913  0.3200  0.4401
  168SAPE    HA18934   0.717   5.778   6.629 -0.2622  2.4862  2.5005
  168SAPE    HB18935   0.839   5.654   6.697  0.3768 -0.2270 -1.9358
  168SAPE    C218936   0.818   5.843   6.808  0.2854  1.3154  0.3919
  168SAPE    HS18937   0.726   5.814   6.865  1.5161 -0.0851  1.7610
  168SAPE   O2118938   0.829   5.976   6.785 -0.0131 -0.5416 -0.1711
  168SAPE   C2118939   0.711   6.046   6.758 -0.4050 -0.0562  0.5006
  168SAPE   O2218940   0.600   5.996   6.752  0.0361  0.4910  0.4632
  168SAPE   C2218941   0.731   6.186   6.719  0.0070  0.2631  0.4331
  168SAPE   H2R18942   0.831   6.187   6.669 -1.1079  0.0211 -1.9351
  168SAPE   H2S18943   0.655   6.195   6.639  0.9365  1.7510 -0.3317
  168SAPE    C318944   0.926   5.802   6.905  0.3663  0.4379  0.8741
  168SAPE    HX18945   1.024   5.837   6.865  0.8912 -1.8538 -0.0094
  168SAPE    HY18946   0.945   5.693   6.897 -2.3427 -0.0975  0.8909
  168SAPE   O3118947   0.893   5.840   7.040 -0.2083  0.4430  0.2277
  168SAPE   C3118948   0.965   5.940   7.083 -0.2392  0.2683  0.0293
  168SAPE   O3218949   1.042   6.000   7.015 -0.3915  0.4735  0.7484
  168SAPE   C3218950   0.927   5.989   7.221  0.5300  0.5072  0.4160
  168SAPE   H2X18951   0.904   5.904   7.288 -1.2167  1.0324  0.5153
  168SAPE   H2Y18952   0.827   6.035   7.208  1.1363  1.9634  0.5897
  168SAPE   C2318953   0.713   6.283   6.840 -0.0100  0.2885  0.7939
  168SAPE   H3R18954   0.757   6.376   6.797  1.6695 -0.8842 -0.1838
  168SAPE   H3S18955   0.791   6.256   6.914  1.8361 -0.4726 -1.3052
  168SAPE   C2418956   0.571   6.303   6.889  0.0674 -0.1607 -1.2803
  168SAPE   H4R18957   0.571   6.395   6.951  0.1114 -0.5457 -0.7070
  168SAPE   H4S18958   0.553   6.220   6.960  2.1165  1.5347  1.4187
  168SAPE   C2518959   0.467   6.289   6.788  0.2085  0.5935  0.0323
  168SAPE   H5R18960   0.471   6.192   6.735 -3.5427  0.9860 -1.2689
  168SAPE   C2618961   0.376   6.377   6.762 -0.3713  0.0608  0.3737
  168SAPE   H6R18962   0.293   6.351   6.694  0.0381 -0.7657  0.1737
  168SAPE   C2718963   0.355   6.511   6.831 -0.2016  0.8422  0.0238
  168SAPE   H7R18964   0.434   6.580   6.795 -0.6684  1.3553 -0.0189
  168SAPE   H7S18965   0.361   6.498   6.942  0.8956 -0.4907 -0.1632
  168SAPE   C2818966   0.219   6.573   6.795 -0.2876 -1.1359  0.7835
  168SAPE   H8R18967   0.196   6.585   6.688 -1.8262 -2.5109  0.9271
  168SAPE   C2918968   0.125   6.598   6.883  0.5276 -0.3960  0.0133
  168SAPE   H9R18969   0.030   6.635   6.840 -0.2822 -1.6783  0.6131
  168SAPE  C21018970   0.120   6.574   7.032  0.4518 -0.3960 -0.5528
  168SAPE  H10R18971   0.145   6.470   7.062  1.3944  0.4327  1.7397
  168SAPE  H10S18972   0.012   6.576   7.055  0.5506  3.2294  0.2425
  168SAPE  C21118973   0.211   6.657   7.122  0.4955  0.5322  0.8535
  168SAPE  H11R18974   0.285   6.714   7.064 -0.3636 -0.1785 -1.0340
  168SAPE  C21218975   0.202   6.670   7.252 -0.1668  0.1767  0.2466
  168SAPE  H12R18976   0.265   6.739   7.309 -0.2483 -1.0582  1.8882
  168SAPE  C21318977   0.102   6.595   7.329 -0.0948  0.3010  0.4571
  168SAPE  H13R18978   0.169   6.536   7.395  1.7809  0.5292 -1.1528
  168SAPE  H13S18979   0.043   6.529   7.262  0.9214 -0.6862  0.5193
  168SAPE  C21418980   0.009   6.677   7.413  0.5079  0.6756  0.3106
  168SAPE  H14R18981   0.061   6.700   7.507 -0.2442  2.2341  0.3607
  168SAPE  C21518982  -0.120   6.705   7.394 -0.2306 -0.1261 -0.2693
  168SAPE  H15R18983  -0.154   6.779   7.468 -1.5187 -2.9516  2.2122
  168SAPE  C21618984  -0.214   6.673   7.286 -0.0862  0.3714 -0.4065
  168SAPE  H16R18985  -0.178   6.621   7.194 -1.2622 -1.2782  0.0274
  168SAPE  H16S18986  -0.262   6.762   7.240  0.1806 -0.0086 -1.4548
  168SAPE  C21718987  -0.331   6.586   7.335  0.1962  0.4311  0.0702
  168SAPE  H17R18988  -0.414   6.592   7.261  0.3595 -0.6117 -0.2064
  168SAPE  H17S18989  -0.376   6.616   7.432  0.5838 -0.8641  0.6722
  168SAPE  C21818990  -0.285   6.442   7.372  0.0033  0.2617 -0.1175
  168SAPE  H18R18991  -0.227   6.441   7.467 -0.9362  0.4070  0.4656
  168SAPE  H18S18992  -0.226   6.398   7.289  0.7522  0.1529  0.4616
  168SAPE  C21918993  -0.409   6.350   7.412 -0.5874  0.1085 -0.3178
  168SAPE  H19R18994  -0.482   6.379   7.332 -1.9584  1.8999  1.4639
  168SAPE  H19S18995  -0.459   6.389   7.504  0.7180  2.7123 -0.6221
  168SAPE  C22018996  -0.372   6.204   7.397  0.4241 -0.3661 -0.3132
  168SAPE  H20R18997  -0.453   6.137   7.431 -0.9675  1.4917  0.1713
  168SAPE  H20S18998  -0.293   6.174   7.469  0.5105  0.0423 -0.2374
  168SAPE  H20T18999  -0.340   6.169   7.297 -0.1029  0.8986 -0.9418
  168SAPE   C3319000   1.047   6.067   7.285  0.2868  0.6278  0.3622
  168SAPE   H3X19001   1.079   6.150   7.218  2.0439 -0.5827 -0.3620
  168SAPE   H3Y19002   1.129   5.993   7.289 -0.9825 -1.0168 -1.6037
  168SAPE   C3419003   1.019   6.130   7.421  0.3460  0.0369  0.8300
  168SAPE   H4X19004   0.927   6.192   7.412  1.0555  0.8018 -2.1505
  168SAPE   H4Y19005   1.101   6.201   7.446  1.3690 -0.2307 -1.4693
  168SAPE   C3519006   1.011   6.031   7.537 -0.3039 -0.2850 -0.2757
  168SAPE   H5X19007   1.108   5.976   7.533 -0.2442 -0.1551 -0.6412
  168SAPE   H5Y19008   0.927   5.959   7.525 -1.3878  0.4033  2.4054
  168SAPE   C3619009   0.986   6.092   7.678 -0.1909  0.0737 -0.2297
  168SAPE   H6X19010   0.964   6.019   7.759  1.7604 -1.1921 -0.7750
  168SAPE   H6Y19011   0.895   6.156   7.680 -0.3390 -0.1420  0.8483
  168SAPE   C3719012   1.108   6.177   7.721  0.5583 -0.1884 -0.3684
  168SAPE   H7X19013   1.133   6.257   7.648 -0.9332  0.1804 -0.4965
  168SAPE   H7Y19014   1.184   6.097   7.710 -0.5321 -1.5334  1.3317
  168SAPE   C3819015   1.100   6.228   7.864 -0.8208 -0.5658 -0.4482
  168SAPE   H8X19016   1.201   6.254   7.901 -1.2504  3.8693 -1.8663
  168SAPE   H8Y19017   1.062   6.149   7.933  2.6999 -2.2502 -0.2413
  168SAPE   C3919018   1.002   6.341   7.872  0.6225 -0.6976 -0.0129
  168SAPE   H9X19019   0.905   6.288   7.865  1.4862 -2.4383  0.5490
  168SAPE   H9Y19020   1.003   6.416   7.790  0.8215 -0.0306  0.5917
  168SAPE  C31019021   1.009   6.418   8.010 -0.3186  0.4007  0.0927
  168SAPE  H10X19022   1.110   6.461   8.025 -0.0430 -0.5810  1.2643
  168SAPE  H10Y19023   0.995   6.347   8.095  1.1205  1.8681  1.6361
  168SAPE  C31119024   0.906   6.530   8.026  0.7279  0.1835  0.9891
  168SAPE  H11X19025   0.815   6.468   8.046  0.5718 -0.8747 -2.3472
  168SAPE  H11Y19026   0.902   6.594   7.936 -1.3836 -0.7161  0.3709
  168SAPE  C31219027   0.910   6.626   8.144 -0.1284  0.3108 -0.0672
  168SAPE  H12X19028   0.816   6.683   8.161 -0.5778 -0.7102  0.9841
  168SAPE  H12Y19029   0.989   6.701   8.122 -1.2070  1.2338 -0.9328
  168SAPE  C31319030   0.944   6.559   8.280  0.0796  0.0793  0.2904
  168SAPE  H13X19031   0.951   6.645   8.349  0.0415  1.8912 -1.8428
  168SAPE  H13Y19032   1.043   6.509   8.276 -0.0987 -0.2006 -1.1130
  168SAPE  C31419033   0.845   6.454   8.343 -0.9178 -0.1604 -0.1717
  168SAPE  H14X19034   0.861   6.361   8.284 -4.1253 -0.7114 -0.3574
  168SAPE  H14Y19035   0.742   6.484   8.316 -0.5983  1.5822  0.4002
  168SAPE  C31519036   0.854   6.448   8.494 -0.0368 -0.5799  0.0478
  168SAPE  H15X19037   0.765   6.385   8.516  1.5956 -2.4457  1.6826
  168SAPE  H15Y19038   0.835   6.546   8.542 -2.1283 -1.0658  0.3151
  168SAPE  C31619039   0.979   6.388   8.546 -0.2618 -0.6647  0.1364
  168SAPE  H16X19040   1.068   6.447   8.514 -2.1576  1.2950 -1.9105
  168SAPE  H16Y19041   0.992   6.288   8.499 -2.2672 -1.3208  0.8714
  168SAPE  C31719042   0.957   6.358   8.696  0.2352  0.1469 -0.1379
  168SAPE  H17X19043   1.054   6.324   8.738 -0.2491 -0.0288  0.8587
  168SAPE  H17Y19044   0.883   6.277   8.712  1.8707 -1.2285  0.9258
  168SAPE  C31819045   0.914   6.491   8.772  0.7095  1.0524  0.1331
  168SAPE  H18X19046   0.804   6.502   8.768  0.5047 -0.8205 -0.7502
  168SAPE  H18Y19047   0.962   6.576   8.721 -0.5193  1.7260  0.0703
  168SAPE  H18Z19048   0.941   6.478   8.880 -0.4508 -1.8134  0.1684
  169SAPE     N19049   5.645   1.132   6.169 -0.6840  0.5242  0.3021
  169SAPE   HN119050   5.724   1.072   6.202 -0.3416  0.6076 -0.3549
  169SAPE   HN219051   5.574   1.082   6.112  0.8341  0.9576 -2.0977
  169SAPE   HN319052   5.692   1.203   6.110 -2.6166  0.0709 -1.9534
  169SAPE   C1219053   5.576   1.211   6.279  0.0609  0.1906 -0.6617
  169SAPE  H12A19054   5.532   1.143   6.355  0.1623  1.4885  0.6094
  169SAPE  H12B19055   5.502   1.276   6.229  1.5911  0.5680 -2.5676
  169SAPE   C1119056   5.689   1.300   6.339 -0.2319 -0.0329 -0.1930
  169SAPE  H11A19057   5.768   1.231   6.376  0.5701  1.1342  0.3390
  169SAPE  H11B19058   5.629   1.353   6.416  0.3426  1.9509 -1.0320
  169SAPE     P19059   5.884   1.461   6.312  0.1744  0.2988  0.1707
  169SAPE   O1319060   5.987   1.354   6.314 -0.0349  0.0762  0.0828
  169SAPE   O1419061   5.904   1.587   6.236 -0.4119  0.2798  0.5909
  169SAPE   O1219062   5.752   1.394   6.250 -0.3083  0.1427 -0.8655
  169SAPE   O1119063   5.840   1.497   6.460 -0.1139 -0.2421  0.6359
  169SAPE    C119064   5.926   1.586   6.532 -0.0241  0.0639  0.5882
  169SAPE    HA19065   6.017   1.626   6.483 -0.0705  1.2557  1.4201
  169SAPE    HB19066   5.870   1.678   6.561  0.1434  0.0729  0.8858
  169SAPE    C219067   5.975   1.517   6.663 -0.7644  0.2517 -0.0159
  169SAPE    HS19068   6.042   1.434   6.634 -0.3269  0.2884  0.8532
  169SAPE   O2119069   5.859   1.469   6.737  0.0865 -0.5520  0.2471
  169SAPE   C2119070   5.842   1.335   6.726 -0.1782  0.0665 -0.7418
  169SAPE   O2219071   5.914   1.259   6.665 -0.0672  0.3929 -0.3975
  169SAPE   C2219072   5.720   1.294   6.810  0.4865 -0.0534 -0.4537
  169SAPE   H2R19073   5.633   1.312   6.744 -0.6041  0.3382  1.0305
  169SAPE   H2S19074   5.743   1.186   6.822 -0.8210 -0.3312 -0.2777
  169SAPE    C319075   6.055   1.618   6.744 -0.2750 -0.5080  0.0878
  169SAPE    HX19076   5.980   1.699   6.753 -0.2287 -0.5069  0.4732
  169SAPE    HY19077   6.139   1.647   6.677  0.6787 -0.0809  1.4118
  169SAPE   O3119078   6.109   1.554   6.860 -0.4998 -0.2734  0.1927
  169SAPE   C3119079   6.117   1.624   6.970  0.5065 -0.3390 -0.1160
  169SAPE   O3219080   6.072   1.737   6.981 -0.3855  0.4939 -0.0593
  169SAPE   C3219081   6.193   1.549   7.081  0.2093 -1.0857 -0.0698
  169SAPE   H2X19082   6.295   1.590   7.065 -0.7661  1.0773 -1.1853
  169SAPE   H2Y19083   6.191   1.444   7.045  2.6033 -0.2730 -3.1210
  169SAPE   C2319084   5.701   1.358   6.950  0.3094 -0.2163  0.3318
  169SAPE   H3R19085   5.596   1.339   6.980 -0.7887 -1.2560 -3.6331
  169SAPE   H3S19086   5.707   1.469   6.946 -2.1020  0.0855  2.3965
  169SAPE   C2419087   5.801   1.312   7.061 -0.1649  0.2195 -1.0510
  169SAPE   H4R19088   5.787   1.378   7.149  2.8663  0.5743 -0.7316
  169SAPE   H4S19089   5.907   1.338   7.042  0.6754 -0.4239  2.1724
  169SAPE   C2519090   5.792   1.162   7.088 -0.4101 -0.1108  0.4005
  169SAPE   H5R19091   5.829   1.106   7.000  0.7263  0.7214  0.3275
  169SAPE   C2619092   5.746   1.098   7.196 -0.4189  0.1250  0.2465
  169SAPE   H6R19093   5.768   0.990   7.204  0.7924  0.3693  0.4400
  169SAPE   C2719094   5.681   1.161   7.316 -0.5166  0.8354 -0.1235
  169SAPE   H7R19095   5.626   1.255   7.295  0.6000  1.4750 -0.2179
  169SAPE   H7S19096   5.767   1.196   7.377  0.0882 -0.5072 -0.1644
  169SAPE   C2819097   5.583   1.078   7.398 -0.4944 -0.4003 -0.3424
  169SAPE   H8R19098   5.534   0.992   7.350 -0.7041 -2.9806  3.9472
  169SAPE   C2919099   5.548   1.083   7.525  0.2967 -0.0147  0.0097
  169SAPE   H9R19100   5.483   1.007   7.571  1.5607 -1.5747 -0.6613
  169SAPE  C21019101   5.605   1.180   7.623  0.0152 -0.7112  0.7085
  169SAPE  H10R19102   5.526   1.220   7.691 -0.5882  0.6905 -0.7382
  169SAPE  H10S19103   5.638   1.268   7.563  0.3441 -0.8076  0.7465
  169SAPE  C21119104   5.721   1.126   7.699  0.0232  0.4566 -0.4471
  169SAPE  H11R19105   5.798   1.069   7.644 -0.9078 -0.8297 -0.4656
  169SAPE  C21219106   5.733   1.137   7.830 -0.1414 -0.6149 -1.7879
  169SAPE  H12R19107   5.821   1.097   7.882 -0.7362  0.4992  0.1981
  169SAPE  C21319108   5.640   1.215   7.928 -0.0875 -0.0221 -0.8271
  169SAPE  H13R19109   5.535   1.232   7.896 -0.1912 -1.3643 -1.2894
  169SAPE  H13S19110   5.684   1.317   7.916  0.8169 -0.5503 -2.3827
  169SAPE  C21419111   5.658   1.159   8.062  0.3970  0.0254 -0.2847
  169SAPE  H14R19112   5.625   1.055   8.076 -0.0132  0.0088 -1.2754
  169SAPE  C21519113   5.702   1.222   8.173 -0.3551 -0.3948  0.0423
  169SAPE  H15R19114   5.692   1.161   8.264  0.0050 -1.9450 -0.9189
  169SAPE  C21619115   5.745   1.373   8.197  0.1331  0.6984 -0.4100
  169SAPE  H16R19116   5.744   1.431   8.102  1.7074  0.0936 -0.8279
  169SAPE  H16S19117   5.848   1.375   8.238  0.1604  0.2772 -0.4514
  169SAPE  C21719118   5.649   1.458   8.294 -0.2629  0.6441  0.3391
  169SAPE  H17R19119   5.546   1.445   8.254 -0.2922  0.0539  0.6020
  169SAPE  H17S19120   5.687   1.562   8.287  0.7136  0.2294 -0.9940
  169SAPE  C21819121   5.648   1.412   8.435  0.3320 -0.2973 -0.2585
  169SAPE  H18R19122   5.737   1.445   8.494  0.5100 -0.6537 -0.3229
  169SAPE  H18S19123   5.644   1.301   8.437 -0.7178 -0.2606  1.2165
  169SAPE  C21919124   5.532   1.475   8.505  0.4894  0.5936  0.0065
  169SAPE  H19R19125   5.444   1.434   8.451  2.0808 -1.5692 -1.1097
  169SAPE  H19S19126   5.537   1.585   8.489  1.1701  0.5763  0.0859
  169SAPE  C22019127   5.536   1.449   8.653 -0.4319 -0.2276 -0.3163
  169SAPE  H20R19128   5.626   1.497   8.696 -0.2368  1.0055 -1.9922
  169SAPE  H20S19129   5.543   1.340   8.675  0.5360 -0.4180 -1.4205
  169SAPE  H20T19130   5.450   1.488   8.710 -0.0557 -0.5594  0.4910
  169SAPE   C3319131   6.151   1.576   7.228  0.4767  0.1157  0.1506
  169SAPE   H3X19132   6.118   1.682   7.233 -1.0119 -0.1913 -1.8008
  169SAPE   H3Y19133   6.246   1.572   7.285  0.1173  3.9783  1.3300
  169SAPE   C3419134   6.043   1.493   7.277 -0.3398  0.3843 -0.0461
  169SAPE   H4X19135   6.081   1.393   7.306 -1.8806 -0.6336 -1.3363
  169SAPE   H4Y19136   5.959   1.481   7.205 -2.3704 -0.7664  2.3652
  169SAPE   C3519137   5.983   1.547   7.407  0.0797  0.1477 -0.2855
  169SAPE   H5X19138   5.911   1.630   7.390  0.5161  0.9037  1.4090
  169SAPE   H5Y19139   6.059   1.602   7.467  0.2954  0.4281 -0.8021
  169SAPE   C3619140   5.916   1.438   7.492  0.3326 -0.0009  0.3479
  169SAPE   H6X19141   5.994   1.369   7.529  0.9006  0.8573  0.7984
  169SAPE   H6Y19142   5.848   1.390   7.419 -0.3845  1.4615  0.0106
  169SAPE   C3719143   5.834   1.482   7.619  0.1078 -0.0934  0.9842
  169SAPE   H7X19144   5.763   1.401   7.647  0.3319 -0.3653  0.7729
  169SAPE   H7Y19145   5.770   1.571   7.599 -1.4627 -0.8697  2.2797
  169SAPE   C3819146   5.919   1.527   7.744  0.2226  0.7981 -0.1660
  169SAPE   H8X19147   5.996   1.594   7.702  2.3321 -1.2704  0.2134
  169SAPE   H8Y19148   5.971   1.441   7.792  0.4060  1.2744  0.5047
  169SAPE   C3919149   5.836   1.610   7.845  0.5261 -0.0897  0.1364
  169SAPE   H9X19150   5.774   1.529   7.889  0.7904 -1.3188 -1.6264
  169SAPE   H9Y19151   5.775   1.689   7.798 -0.1558 -0.9648 -0.4752
  169SAPE  C31019152   5.923   1.665   7.954 -0.7494 -0.5279  0.1152
  169SAPE  H10X19153   5.996   1.732   7.903 -0.4727 -0.5590  0.4632
  169SAPE  H10Y19154   5.975   1.589   8.016  1.3582  1.6361  1.1741
  169SAPE  C31119155   5.846   1.752   8.049  0.4991  0.4006 -0.2345
  169SAPE  H11X19156   5.760   1.698   8.093 -0.9972  1.4433 -1.7536
  169SAPE  H11Y19157   5.797   1.829   7.986 -0.6830 -0.6576 -0.6454
  169SAPE  C31219158   5.936   1.797   8.164  0.0241  0.2066  0.2385
  169SAPE  H12X19159   6.037   1.823   8.125  0.1852 -0.6520  0.0532
  169SAPE  H12Y19160   5.949   1.717   8.241 -2.4430 -0.7872 -0.2692
  169SAPE  C31319161   5.866   1.905   8.241 -0.2212  0.2499  0.5123
  169SAPE  H13X19162   5.772   1.879   8.295 -0.3279  0.1652  0.2838
  169SAPE  H13Y19163   5.838   1.992   8.177  0.0059 -0.3378 -0.3955
  169SAPE  C31419164   5.969   1.965   8.338 -0.3303 -0.3199 -0.2480
  169SAPE  H14X19165   6.057   1.986   8.274  0.0306 -3.1825 -0.8005
  169SAPE  H14Y19166   5.991   1.887   8.413  0.9238 -1.8635 -2.1355
  169SAPE  C31519167   5.928   2.099   8.409 -0.2741  0.7582  0.1307
  169SAPE  H15X19168   6.013   2.166   8.436  0.3447  0.1763 -0.3198
  169SAPE  H15Y19169   5.856   2.084   8.492  1.9902  1.7400  2.4327
  169SAPE  C31619170   5.853   2.198   8.310 -0.7675 -0.9454 -0.0420
  169SAPE  H16X19171   5.753   2.162   8.278 -0.5617 -0.2330 -1.6013
  169SAPE  H16Y19172   5.909   2.216   8.216 -5.8297  0.3791 -3.2190
  169SAPE  C31719173   5.837   2.333   8.377 -0.3408 -0.5000 -0.3597
  169SAPE  H17X19174   5.941   2.361   8.403  0.4404 -2.0872 -1.6059
  169SAPE  H17Y19175   5.783   2.320   8.473  0.3287 -0.4395  0.0331
  169SAPE  C31819176   5.777   2.437   8.278 -0.2193  0.1389 -0.1263
  169SAPE  H18X19177   5.741   2.531   8.325  1.1150  0.6077  0.0252
  169SAPE  H18Y19178   5.692   2.389   8.226 -0.3604  0.1071  0.1327
  169SAPE  H18Z19179   5.859   2.464   8.207 -0.0754  0.9997  0.3455
  170SAPE     N19180   0.266   4.955   6.279  0.6486  0.0263 -0.4195
  170SAPE   HN119181   0.271   5.035   6.346  0.6714  1.5850 -2.2003
  170SAPE   HN219182   0.166   4.927   6.282  0.9952 -1.1837  0.5910
  170SAPE   HN319183   0.319   4.878   6.324 -2.5527 -0.4060  3.1980
  170SAPE   C1219184   0.319   4.993   6.144 -0.6164 -0.3235  0.2635
  170SAPE  H12A19185   0.318   5.104   6.145  0.4838 -0.3034  0.4746
  170SAPE  H12B19186   0.257   4.957   6.060  0.9886  0.8298 -1.5057
  170SAPE   C1119187   0.468   4.942   6.123 -0.3171  0.0304 -0.1790
  170SAPE  H11A19188   0.530   4.959   6.214 -0.6068  0.2852 -0.0271
  170SAPE  H11B19189   0.508   5.000   6.037 -1.1012  1.8146  0.6139
  170SAPE     P19190   0.496   4.682   6.199 -0.2758 -0.0776  0.0394
  170SAPE   O1319191   0.444   4.558   6.143 -0.1384  0.1433  0.1407
  170SAPE   O1419192   0.639   4.681   6.242 -0.1397  0.0282 -0.1950
  170SAPE   O1219193   0.469   4.805   6.092 -0.7091  0.8119  0.4676
  170SAPE   O1119194   0.403   4.731   6.320 -0.2659 -0.0928  0.4249
  170SAPE    C119195   0.396   4.648   6.432 -0.1345  0.2471 -0.3106
  170SAPE    HA19196   0.323   4.566   6.414 -2.8186  1.6410  3.0631
  170SAPE    HB19197   0.490   4.603   6.469 -0.1281  1.6471  1.5399
  170SAPE    C219198   0.351   4.728   6.557 -0.0515 -0.6962  0.1062
  170SAPE    HS19199   0.343   4.656   6.641 -2.7393  0.3589  0.8684
  170SAPE   O2119200   0.217   4.784   6.550 -0.7624  0.7991  0.0982
  170SAPE   C2119201   0.109   4.712   6.567 -0.2072 -0.8948  0.3745
  170SAPE   O2219202   0.109   4.591   6.590  0.0552 -0.1670  0.3500
  170SAPE   C2219203  -0.014   4.795   6.548  0.2336  0.3784 -0.0727
  170SAPE   H2R19204   0.003   4.893   6.498 -0.1741  1.5717  1.9736
  170SAPE   H2S19205  -0.083   4.745   6.477 -0.6694  0.9002  0.4142
  170SAPE    C319206   0.450   4.842   6.597 -0.8948  0.4645 -0.8620
  170SAPE    HX19207   0.475   4.903   6.507  1.3623 -0.7134 -1.1170
  170SAPE    HY19208   0.545   4.791   6.623 -1.0219  0.8817  0.4936
  170SAPE   O3119209   0.403   4.919   6.712  0.2868 -0.4015 -0.3316
  170SAPE   C3119210   0.429   4.870   6.835  0.3779  0.1487  0.8983
  170SAPE   O3219211   0.474   4.764   6.863  0.1705 -0.0846 -0.1124
  170SAPE   C3219212   0.388   4.981   6.933 -0.2338  0.7969  0.7301
  170SAPE   H2X19213   0.312   5.050   6.891 -1.5589 -0.2620  1.3192
  170SAPE   H2Y19214   0.475   5.047   6.952  0.7811 -0.4976  0.7090
  170SAPE   C2319215  -0.080   4.817   6.688  0.5131 -0.0322 -0.9229
  170SAPE   H3R19216  -0.009   4.841   6.769 -0.8058  0.4837  0.1224
  170SAPE   H3S19217  -0.126   4.719   6.713 -0.6128  0.2683 -1.7232
  170SAPE   C2419218  -0.196   4.923   6.677 -0.1618  0.0146 -0.1010
  170SAPE   H4R19219  -0.273   4.911   6.757 -0.4141  0.7224 -0.2266
  170SAPE   H4S19220  -0.259   4.892   6.590 -0.2878  0.1942 -0.0762
  170SAPE   C2519221  -0.155   5.068   6.676  0.1824  0.6177  0.3675
  170SAPE   H5R19222  -0.167   5.127   6.584  1.9911 -1.9564 -1.6710
  170SAPE   C2619223  -0.089   5.129   6.773  0.6443 -0.0817 -0.6866
  170SAPE   H6R19224  -0.079   5.238   6.764 -0.4784  0.3574  2.2963
  170SAPE   C2719225  -0.058   5.072   6.910  0.7205  0.3796  0.2154
  170SAPE   H7R19226   0.049   5.044   6.920  0.8564  1.4231  1.9094
  170SAPE   H7S19227  -0.101   4.972   6.932  1.9033 -0.1919  0.0124
  170SAPE   C2819228  -0.074   5.179   7.010 -0.6898 -0.3779 -0.3945
  170SAPE   H8R19229  -0.007   5.265   7.020 -2.0062  1.0387 -2.8546
  170SAPE   C2919230  -0.181   5.167   7.081  0.1959 -0.1581 -0.2782
  170SAPE   H9R19231  -0.202   5.228   7.170 -1.1455 -1.4883  0.3676
  170SAPE  C21019232  -0.287   5.056   7.075  0.1479  0.0402  0.6515
  170SAPE  H10R19233  -0.324   5.062   7.179  1.5626 -0.0541  1.1934
  170SAPE  H10S19234  -0.247   4.953   7.065  0.1407  0.1656 -0.9007
  170SAPE  C21119235  -0.391   5.089   6.968 -0.0872  1.0420  0.0757
  170SAPE  H11R19236  -0.344   5.094   6.868  0.2904  0.8191  0.2422
  170SAPE  C21219237  -0.516   5.136   6.981  0.0229 -0.3133 -0.5636
  170SAPE  H12R19238  -0.571   5.162   6.890 -0.0861  0.5080 -0.2713
  170SAPE  C21319239  -0.593   5.155   7.114  0.8187 -0.5948  0.1298
  170SAPE  H13R19240  -0.538   5.118   7.203  0.4202 -2.3366 -0.3012
  170SAPE  H13S19241  -0.678   5.084   7.112 -1.6038  2.1273 -0.6649
  170SAPE  C21419242  -0.644   5.296   7.127  0.7851  0.4517 -0.9148
  170SAPE  H14R19243  -0.631   5.360   7.038 -0.0591 -0.5061 -1.7477
  170SAPE  C21519244  -0.709   5.349   7.237  0.2363  0.5307 -0.2761
  170SAPE  H15R19245  -0.736   5.456   7.231 -2.0897  0.0675  0.9574
  170SAPE  C21619246  -0.736   5.285   7.382 -0.0670 -0.1210  0.1873
  170SAPE  H16R19247  -0.702   5.180   7.393  0.0779  0.0741  1.8786
  170SAPE  H16S19248  -0.845   5.272   7.394 -0.2514  1.3157  0.2412
  170SAPE  C21719249  -0.687   5.367   7.506 -0.8075 -0.4334 -0.1293
  170SAPE  H17R19250  -0.740   5.343   7.601  0.3931 -1.1421  0.3855
  170SAPE  H17S19251  -0.721   5.472   7.489  1.2459  0.3012  0.0596
  170SAPE  C21819252  -0.539   5.360   7.538  0.2088 -0.1747  0.1213
  170SAPE  H18R19253  -0.506   5.446   7.600 -2.6500  0.8935  0.2762
  170SAPE  H18S19254  -0.484   5.375   7.443  1.4246 -1.6642  0.5455
  170SAPE  C21919255  -0.485   5.223   7.588  0.3562  0.5581  0.0207
  170SAPE  H19R19256  -0.527   5.142   7.523  1.3281  0.5253 -0.5797
  170SAPE  H19S19257  -0.527   5.192   7.686  0.0197  1.0881  0.0473
  170SAPE  C22019258  -0.338   5.225   7.607  0.0519 -0.0411  0.4589
  170SAPE  H20R19259  -0.326   5.294   7.694  2.0779  0.6742 -0.3313
  170SAPE  H20S19260  -0.287   5.270   7.520 -1.1950  1.1351  0.2946
  170SAPE  H20T19261  -0.293   5.128   7.635 -0.0645 -0.0332  0.6758
  170SAPE   C3319262   0.345   4.921   7.065  0.5861  0.4296 -1.0241
  170SAPE   H3X19263   0.436   4.870   7.102 -2.0493 -4.5119 -0.4355
  170SAPE   H3Y19264   0.275   4.837   7.045  2.4131 -1.2493 -0.5800
  170SAPE   C3419265   0.290   5.028   7.150  0.1526 -0.8583  0.2458
  170SAPE   H4X19266   0.183   5.032   7.120  0.5717  1.0058 -1.2215
  170SAPE   H4Y19267   0.333   5.124   7.114  0.2253 -0.2734  1.8336
  170SAPE   C3519268   0.298   5.013   7.298 -0.2649 -0.9181 -0.5457
  170SAPE   H5X19269   0.400   5.040   7.334 -0.8573 -2.1225  2.3583
  170SAPE   H5Y19270   0.269   4.911   7.330  0.4328 -0.4899  1.6158
  170SAPE   C3619271   0.193   5.112   7.367  0.3169  0.2989  0.1213
  170SAPE   H6X19272   0.085   5.088   7.354 -0.2555  2.2120  0.9687
  170SAPE   H6Y19273   0.207   5.213   7.324 -1.2743  1.1859  1.5333
  170SAPE   C3719274   0.216   5.115   7.520  0.6100 -0.7728 -0.0024
  170SAPE   H7X19275   0.317   5.155   7.543  1.3368 -1.9053 -1.0985
  170SAPE   H7Y19276   0.207   5.011   7.561  1.7921 -0.6095  0.7451
  170SAPE   C3819277   0.111   5.208   7.587  0.0225 -0.0982  0.0509
  170SAPE   H8X19278   0.015   5.159   7.559  0.6716 -0.8355 -0.9365
  170SAPE   H8Y19279   0.120   5.308   7.541 -0.5304 -0.6925 -1.4238
  170SAPE   C3919280   0.112   5.213   7.738  0.3474  0.4886  0.0021
  170SAPE   H9X19281   0.208   5.255   7.773  1.7561 -0.7836 -2.0782
  170SAPE   H9Y19282   0.097   5.110   7.778  0.4388  0.8850  1.0819
  170SAPE  C31019283  -0.014   5.291   7.783  0.5812 -0.0304 -0.5148
  170SAPE  H10X19284  -0.104   5.252   7.731  0.9053  0.1379 -1.2134
  170SAPE  H10Y19285   0.002   5.399   7.763  1.1925  0.1418  0.7677
  170SAPE  C31119286  -0.031   5.275   7.936  0.3666 -0.2236  0.3548
  170SAPE  H11X19287   0.037   5.342   7.992  2.1314  0.4945 -2.4462
  170SAPE  H11Y19288   0.003   5.173   7.961  0.6196  0.0637  1.2411
  170SAPE  C31219289  -0.183   5.293   7.966  0.0473 -0.1756  0.9224
  170SAPE  H12X19290  -0.202   5.264   8.072  0.2541 -1.0496  0.7292
  170SAPE  H12Y19291  -0.238   5.223   7.900  1.0562  0.1207 -0.2751
  170SAPE  C31319292  -0.233   5.438   7.938 -0.2991  0.4558  0.0543
  170SAPE  H13X19293  -0.337   5.431   7.977 -0.5660  2.6681 -0.1183
  170SAPE  H13Y19294  -0.244   5.453   7.829  0.1200 -0.7536 -0.1621
  170SAPE  C31419295  -0.161   5.550   8.013  0.4532  0.4654 -0.7130
  170SAPE  H14X19296  -0.054   5.556   7.983  1.2281 -2.6216  1.0244
  170SAPE  H14Y19297  -0.158   5.525   8.121 -0.1887  2.2840 -0.2371
  170SAPE  C31519298  -0.237   5.682   8.013 -0.6400  0.5026 -0.4367
  170SAPE  H15X19299  -0.248   5.721   7.910  5.6370  2.7044 -0.7039
  170SAPE  H15Y19300  -0.169   5.761   8.050 -0.2437  0.2628 -0.6501
  170SAPE  C31619301  -0.371   5.712   8.096  0.0452 -0.0868  0.4127
  170SAPE  H16X19302  -0.353   5.679   8.200 -0.3645  0.6926  0.7364
  170SAPE  H16Y19303  -0.454   5.664   8.041 -0.8196  1.2069  0.5434
  170SAPE  C31719304  -0.408   5.871   8.102 -0.6460  0.1989  0.3386
  170SAPE  H17X19305  -0.317   5.926   8.134  0.8954 -2.0403  0.0852
  170SAPE  H17Y19306  -0.485   5.888   8.180  0.6421  0.1098  1.6797
  170SAPE  C31819307  -0.464   5.925   7.973 -0.4885  0.3214 -0.5309
  170SAPE  H18X19308  -0.566   5.890   7.948 -0.7934 -1.0176  2.2968
  170SAPE  H18Y19309  -0.408   5.901   7.880  1.0881 -0.6533  0.6116
  170SAPE  H18Z19310  -0.471   6.035   7.985 -1.3851  0.2766 -0.5543
  171SAPE     N19311   1.776   6.085   6.111 -0.1415  0.0856 -0.2497
  171SAPE   HN119312   1.765   6.024   6.194 -0.1574  1.6084  0.9086
  171SAPE   HN219313   1.796   6.020   6.032 -0.4164 -0.4065  0.0808
  171SAPE   HN319314   1.862   6.138   6.135 -1.1769  0.1870  4.1178
  171SAPE   C1219315   1.654   6.171   6.094 -0.3980  0.1781  0.1242
  171SAPE  H12A19316   1.558   6.117   6.076  0.0792 -0.9964  1.0141
  171SAPE  H12B19317   1.677   6.232   6.004 -2.5512  1.3648  0.2854
  171SAPE   C1119318   1.636   6.264   6.210  0.7467 -1.5412  0.2886
  171SAPE  H11A19319   1.629   6.217   6.311 -1.4649  0.8472  1.3787
  171SAPE  H11B19320   1.538   6.316   6.210  2.0601  1.1149  0.5388
  171SAPE     P19321   1.741   6.484   6.308 -0.3854 -0.3414  0.0416
  171SAPE   O1319322   1.866   6.556   6.285 -0.2075 -0.5128  0.4090
  171SAPE   O1419323   1.620   6.567   6.288  0.4871  0.1710  0.4439
  171SAPE   O1219324   1.742   6.357   6.210  0.3803  0.0394  0.5788
  171SAPE   O1119325   1.743   6.427   6.464 -0.3545 -0.1169  0.7377
  171SAPE    C119326   1.782   6.515   6.570 -0.1053 -0.2530  0.5952
  171SAPE    HA19327   1.838   6.604   6.534  1.1312 -1.7329 -1.4032
  171SAPE    HB19328   1.690   6.545   6.625 -0.0951  0.4728  0.2184
  171SAPE    C219329   1.883   6.440   6.666 -0.0305  1.1079 -0.1239
  171SAPE    HS19330   1.985   6.480   6.650  0.0311  1.1273  0.2908
  171SAPE   O2119331   1.870   6.295   6.655 -0.3223  0.1372  0.7657
  171SAPE   C2119332   1.959   6.254   6.560  0.4998  0.4552  0.1656
  171SAPE   O2219333   2.034   6.312   6.489 -0.2561 -0.0586 -0.3603
  171SAPE   C2219334   1.969   6.100   6.569 -0.5875 -0.7422 -0.3871
  171SAPE   H2R19335   1.867   6.063   6.545 -1.4346  1.5981 -0.5741
  171SAPE   H2S19336   2.037   6.071   6.486  2.8227 -1.0070  2.2732
  171SAPE    C319337   1.864   6.475   6.810  0.0986 -0.2012 -0.5856
  171SAPE    HX19338   1.772   6.423   6.844  0.5824 -0.8187 -0.1802
  171SAPE    HY19339   1.834   6.581   6.821 -0.9558 -0.6559  1.4110
  171SAPE   O3119340   1.986   6.438   6.878 -0.2656  0.6672 -0.6361
  171SAPE   C3119341   1.973   6.338   6.968 -0.5392  0.2086 -0.7098
  171SAPE   O3219342   1.872   6.282   7.001 -0.1183 -0.3437 -0.3435
  171SAPE   C3219343   2.101   6.303   7.028 -0.0835  0.1831 -0.3640
  171SAPE   H2X19344   2.168   6.390   7.008 -0.1395  0.2386 -0.3122
  171SAPE   H2Y19345   2.122   6.204   6.983  1.5560 -0.0360  0.7710
  171SAPE   C2319346   2.027   6.052   6.704 -0.1454  0.1675  0.2136
  171SAPE   H3R19347   1.980   6.101   6.792  0.4494  0.6011  0.2971
  171SAPE   H3S19348   2.133   6.083   6.720 -0.0344  1.2677 -2.2463
  171SAPE   C2419349   2.035   5.895   6.721  0.0383  0.3569  0.4503
  171SAPE   H4R19350   1.929   5.862   6.728 -0.0476  0.8016  1.4698
  171SAPE   H4S19351   2.080   5.878   6.821 -1.5651  1.5275  1.4317
  171SAPE   C2519352   2.098   5.825   6.600 -0.6890 -0.3582 -0.0935
  171SAPE   H5R19353   2.082   5.865   6.499 -1.3587 -0.9432 -0.2239
  171SAPE   C2619354   2.179   5.719   6.609  0.1101  0.2618 -0.5151
  171SAPE   H6R19355   2.228   5.687   6.515 -0.2825 -2.0707  0.0290
  171SAPE   C2719356   2.207   5.633   6.737 -0.2500 -0.1511  0.5769
  171SAPE   H7R19357   2.206   5.531   6.692  1.7878  0.9018 -2.2005
  171SAPE   H7S19358   2.132   5.648   6.817 -1.4819 -2.8096  0.0161
  171SAPE   C2819359   2.352   5.648   6.779 -0.5278  0.2972 -0.7184
  171SAPE   H8R19360   2.425   5.658   6.697  1.3345  1.4480  0.9630
  171SAPE   C2919361   2.389   5.648   6.908 -0.2038  0.3075  0.1476
  171SAPE   H9R19362   2.496   5.660   6.930 -0.1998 -1.3051  1.1865
  171SAPE  C21019363   2.297   5.639   7.025 -0.1441 -0.4257  0.3530
  171SAPE  H10R19364   2.320   5.560   7.100  1.3361 -1.3987 -1.0635
  171SAPE  H10S19365   2.196   5.607   6.993 -0.4517 -0.5387  1.3868
  171SAPE  C21119366   2.279   5.772   7.087  0.3103  0.6067  0.2198
  171SAPE  H11R19367   2.186   5.824   7.060  0.1723  1.0165  1.4125
  171SAPE  C21219368   2.368   5.817   7.174  0.2577 -0.2123  0.0780
  171SAPE  H12R19369   2.344   5.908   7.231 -1.1884  0.2951 -1.2756
  171SAPE  C21319370   2.495   5.744   7.215 -0.1703  0.4666  0.1839
  171SAPE  H13R19371   2.551   5.831   7.256  0.2616  0.7851 -1.0308
  171SAPE  H13S19372   2.561   5.702   7.136  1.3704 -1.3172  2.2956
  171SAPE  C21419373   2.464   5.642   7.321 -0.4051  0.4053  0.0106
  171SAPE  H14R19374   2.422   5.550   7.276  0.2882  0.6775 -1.2340
  171SAPE  C21519375   2.485   5.649   7.451 -0.3792 -0.7848 -1.2420
  171SAPE  H15R19376   2.445   5.567   7.513 -2.0620  0.9279  0.0594
  171SAPE  C21619377   2.542   5.758   7.535  0.1393  0.6118 -0.2024
  171SAPE  H16R19378   2.600   5.823   7.466 -0.0240  1.4914  0.4799
  171SAPE  H16S19379   2.616   5.705   7.599  2.2822  2.0969 -1.3353
  171SAPE  C21719380   2.448   5.838   7.620 -0.3718 -0.5387 -0.7045
  171SAPE  H17R19381   2.361   5.870   7.557 -0.4786 -1.8778 -1.2835
  171SAPE  H17S19382   2.509   5.922   7.659 -2.6995  1.9345 -2.0292
  171SAPE  C21819383   2.396   5.767   7.746 -0.2886  0.4867 -0.1058
  171SAPE  H18R19384   2.472   5.695   7.783 -0.0139  0.5927 -0.4563
  171SAPE  H18S19385   2.308   5.704   7.718 -0.7917  0.5048  1.3662
  171SAPE  C21919386   2.353   5.866   7.859 -0.1635 -0.2913 -0.1390
  171SAPE  H19R19387   2.444   5.926   7.882 -1.1529  0.5278  1.7848
  171SAPE  H19S19388   2.325   5.811   7.952  1.5140 -1.1856 -0.1067
  171SAPE  C22019389   2.244   5.968   7.816 -0.4072  0.1319  0.8508
  171SAPE  H20R19390   2.289   6.042   7.746 -0.7379  1.3621  1.8896
  171SAPE  H20S19391   2.193   6.010   7.906 -0.9715 -0.1031  0.6490
  171SAPE  H20T19392   2.163   5.917   7.760  0.2186 -0.1187  0.1526
  171SAPE   C3319393   2.104   6.276   7.180  0.3604  0.4123 -0.0428
  171SAPE   H3X19394   2.033   6.197   7.212 -0.8802  0.6350 -2.0970
  171SAPE   H3Y19395   2.071   6.369   7.231  2.7512  0.0232  2.4965
  171SAPE   C3419396   2.237   6.226   7.231 -0.0262  0.1877 -0.0957
  171SAPE   H4X19397   2.312   6.300   7.197 -0.4319  0.9846  0.7075
  171SAPE   H4Y19398   2.263   6.125   7.195 -0.2710  0.3336 -0.7070
  171SAPE   C3519399   2.230   6.212   7.385  0.3773 -0.0525 -0.0860
  171SAPE   H5X19400   2.305   6.138   7.420 -1.0149 -1.6153 -0.2783
  171SAPE   H5Y19401   2.134   6.165   7.416 -0.4154  0.2581 -1.9792
  171SAPE   C3619402   2.255   6.348   7.457 -0.0394  0.1001  0.7332
  171SAPE   H6X19403   2.172   6.416   7.428  1.4191  2.0347  0.8563
  171SAPE   H6Y19404   2.345   6.405   7.426 -0.6087  1.9207  2.2315
  171SAPE   C3719405   2.267   6.332   7.609 -0.0793 -1.0441  0.1159
  171SAPE   H7X19406   2.336   6.249   7.635  1.1014  0.3769  1.8118
  171SAPE   H7Y19407   2.167   6.327   7.657  0.8624  2.3269  2.9322
  171SAPE   C3819408   2.336   6.454   7.679  0.3317  0.4186 -0.2215
  171SAPE   H8X19409   2.283   6.540   7.633 -0.5339  0.1824  0.2995
  171SAPE   H8Y19410   2.442   6.437   7.651 -0.2446 -2.4964 -1.0912
  171SAPE   C3919411   2.339   6.451   7.828 -0.5131  0.6810  0.3132
  171SAPE   H9X19412   2.234   6.458   7.862 -0.3176  0.9885  0.8753
  171SAPE   H9Y19413   2.395   6.541   7.862  1.5941 -1.3465  2.5477
  171SAPE  C31019414   2.417   6.330   7.885  0.3525 -0.1581  0.2460
  171SAPE  H10X19415   2.521   6.352   7.852 -0.5819  1.5382 -1.8444
  171SAPE  H10Y19416   2.392   6.236   7.832 -0.7337  1.6760 -2.7716
  171SAPE  C31119417   2.406   6.322   8.040 -0.1397  0.0857 -0.1891
  171SAPE  H11X19418   2.297   6.311   8.055  0.0995 -1.3635  0.6417
  171SAPE  H11Y19419   2.424   6.414   8.100  0.9084  0.2641 -0.7500
  171SAPE  C31219420   2.489   6.211   8.093 -0.3984  0.2160  0.2420
  171SAPE  H12X19421   2.585   6.251   8.132 -0.4381 -1.0546  1.7418
  171SAPE  H12Y19422   2.524   6.143   8.012  0.1821  0.7625  0.0234
  171SAPE  C31319423   2.438   6.155   8.222 -0.2408 -0.1515  0.3026
  171SAPE  H13X19424   2.335   6.114   8.219 -1.2385  1.7494  3.4940
  171SAPE  H13Y19425   2.440   6.230   8.303  0.1267  0.5557 -0.3458
  171SAPE  C31419426   2.547   6.045   8.258  0.6081 -0.6611 -0.0414
  171SAPE  H14X19427   2.651   6.081   8.274  0.4537 -0.3909  0.3641
  171SAPE  H14Y19428   2.556   5.979   8.169 -0.8116  0.2301 -0.8764
  171SAPE  C31519429   2.507   5.947   8.374  0.6100  0.2719  0.1238
  171SAPE  H15X19430   2.458   5.861   8.323 -0.4440  0.1907  1.2217
  171SAPE  H15Y19431   2.433   5.999   8.438 -0.7245  0.4404 -1.5113
  171SAPE  C31619432   2.614   5.886   8.467 -0.0666 -0.2849  0.6576
  171SAPE  H16X19433   2.663   5.974   8.515  0.3126 -0.0652 -0.1286
  171SAPE  H16Y19434   2.691   5.838   8.404 -0.4361 -1.5176  1.1105
  171SAPE  C31719435   2.555   5.780   8.562 -0.3694  0.0977 -0.4489
  171SAPE  H17X19436   2.490   5.708   8.507 -1.2051  1.4074 -1.2074
  171SAPE  H17Y19437   2.489   5.830   8.635  0.9320 -0.4231  1.1551
  171SAPE  C31819438   2.661   5.700   8.644 -0.0581 -0.0376 -0.3447
  171SAPE  H18X19439   2.616   5.620   8.707  2.1582 -0.2480  1.1007
  171SAPE  H18Y19440   2.730   5.763   8.705  0.4889  0.5110 -1.5149
  171SAPE  H18Z19441   2.725   5.662   8.562  2.4058  1.2321  0.8796
  172SAPE     N19442   0.792   5.474   6.180  0.6247  0.1175  0.0798
  172SAPE   HN119443   0.797   5.512   6.277 -2.3605 -1.7490  1.1121
  172SAPE   HN219444   0.811   5.542   6.103 -1.2020  0.3027 -0.2588
  172SAPE   HN319445   0.690   5.457   6.166  0.5247  0.2615  0.6113
  172SAPE   C1219446   0.870   5.359   6.126 -0.2139 -0.0703 -0.0563
  172SAPE  H12A19447   0.966   5.406   6.095 -0.5290  0.9450  0.4734
  172SAPE  H12B19448   0.823   5.316   6.035 -0.8559  0.0790  0.1957
  172SAPE   C1119449   0.894   5.248   6.222  0.6365  0.5458  0.0222
  172SAPE  H11A19450   0.960   5.287   6.303 -2.2622  4.3495  0.8504
  172SAPE  H11B19451   0.943   5.165   6.167 -0.7008 -0.7656  0.7186
  172SAPE     P19452   0.780   5.095   6.404 -0.1267  0.1115  0.2013
  172SAPE   O1319453   0.640   5.075   6.446  0.3583 -0.6242 -1.0318
  172SAPE   O1419454   0.860   4.976   6.351 -0.1271 -0.5135 -0.5453
  172SAPE   O1219455   0.776   5.206   6.292 -0.5337 -0.2157 -0.1103
  172SAPE   O1119456   0.867   5.164   6.523 -0.0453 -0.0996 -0.4457
  172SAPE    C119457   0.851   5.301   6.553  0.5375  0.6071  0.0401
  172SAPE    HA19458   0.926   5.363   6.501  1.2087 -0.2053  0.0208
  172SAPE    HB19459   0.751   5.339   6.523  0.1110  1.7313  2.6160
  172SAPE    C219460   0.856   5.321   6.706  0.4197 -0.3511  0.5687
  172SAPE    HS19461   0.871   5.431   6.717  1.7989 -0.3848 -0.7165
  172SAPE   O2119462   0.970   5.252   6.757 -0.0482  0.1798 -0.2517
  172SAPE   C2119463   1.053   5.317   6.841  0.3942 -0.0666 -0.2138
  172SAPE   O2219464   1.032   5.426   6.896 -0.0944 -0.1005  0.1331
  172SAPE   C2219465   1.182   5.233   6.864 -0.5262 -0.0574  0.5920
  172SAPE   H2R19466   1.173   5.139   6.805 -2.0914 -0.1303  0.8906
  172SAPE   H2S19467   1.270   5.293   6.833  1.5723 -2.3786  1.7876
  172SAPE    C319468   0.727   5.282   6.779 -0.6717  0.7354 -0.2553
  172SAPE    HX19469   0.707   5.175   6.757  0.0194  1.0115 -2.3802
  172SAPE    HY19470   0.650   5.333   6.719 -2.2097 -0.9479  0.1789
  172SAPE   O3119471   0.732   5.311   6.915  1.2441 -0.0605 -0.3008
  172SAPE   C3119472   0.733   5.430   6.965  0.0797 -0.8936  1.4120
  172SAPE   O3219473   0.698   5.535   6.906 -1.2427 -0.0235  0.2255
  172SAPE   C3219474   0.796   5.427   7.103 -0.5917  0.3771  0.1680
  172SAPE   H2X19475   0.907   5.419   7.103 -0.6169 -0.2469 -1.0099
  172SAPE   H2Y19476   0.757   5.335   7.152 -2.6645 -0.0376 -2.0548
  172SAPE   C2319477   1.207   5.194   7.009 -0.0220  0.5790 -0.2862
  172SAPE   H3R19478   1.295   5.126   7.008 -1.3863 -1.3094  0.8863
  172SAPE   H3S19479   1.125   5.129   7.047  0.7577  0.6747  1.6890
  172SAPE   C2419480   1.231   5.299   7.114 -0.1394 -0.1767 -0.1049
  172SAPE   H4R19481   1.251   5.247   7.210  2.8105 -2.5102 -1.7979
  172SAPE   H4S19482   1.140   5.362   7.121 -0.9609 -1.1455 -1.6903
  172SAPE   C2519483   1.349   5.383   7.078  0.6473 -0.2561  0.2286
  172SAPE   H5R19484   1.317   5.456   7.002 -2.9989 -0.9150  0.9517
  172SAPE   C2619485   1.467   5.392   7.137 -0.0942  0.1274 -0.5455
  172SAPE   H6R19486   1.545   5.459   7.099  0.4092  0.5099  1.0557
  172SAPE   C2719487   1.511   5.295   7.247  0.1042  0.3891 -0.6475
  172SAPE   H7R19488   1.514   5.193   7.203 -0.3531  0.7192 -1.4523
  172SAPE   H7S19489   1.444   5.300   7.336  1.1914 -0.8205  0.2883
  172SAPE   C2819490   1.649   5.334   7.300  0.3708 -0.8358 -0.4999
  172SAPE   H8R19491   1.729   5.335   7.225  0.7127  3.3382 -0.3266
  172SAPE   C2919492   1.682   5.358   7.428  0.1781 -0.5441 -0.4809
  172SAPE   H9R19493   1.778   5.408   7.448  0.0863  0.0832 -1.5293
  172SAPE  C21019494   1.592   5.339   7.547 -0.5068 -0.4671 -0.8039
  172SAPE  H10R19495   1.513   5.264   7.526 -0.2553 -0.2379 -2.7327
  172SAPE  H10S19496   1.541   5.436   7.568 -0.4166 -0.6487  0.2998
  172SAPE  C21119497   1.677   5.310   7.667  0.3616  0.3939 -0.0061
  172SAPE  H11R19498   1.786   5.302   7.654  0.4091 -1.3005  1.1052
  172SAPE  C21219499   1.638   5.270   7.787 -0.9660  0.2188 -0.1422
  172SAPE  H12R19500   1.718   5.254   7.860 -1.9273 -1.5306  0.6089
  172SAPE  C21319501   1.498   5.261   7.834  0.0052  0.3537  0.6532
  172SAPE  H13R19502   1.428   5.241   7.750  0.8005 -0.4010  0.1624
  172SAPE  H13S19503   1.466   5.355   7.884 -0.9717  0.3704  0.0365
  172SAPE  C21419504   1.474   5.155   7.931 -0.1185  0.6742 -0.8887
  172SAPE  H14R19505   1.562   5.104   7.974  0.1350  0.7183 -1.3559
  172SAPE  C21519506   1.356   5.106   7.974 -0.2004  0.2199 -0.0824
  172SAPE  H15R19507   1.347   5.017   8.037 -2.1949  0.6905  0.3675
  172SAPE  C21619508   1.217   5.156   7.936  0.2612  0.0327  0.2274
  172SAPE  H16R19509   1.157   5.087   7.873 -1.5381  1.0847  0.6986
  172SAPE  H16S19510   1.241   5.232   7.859  1.8044 -0.0140  0.6352
  172SAPE  C21719511   1.127   5.212   8.040  0.0527  0.2247 -0.1052
  172SAPE  H17R19512   1.081   5.135   8.105  0.7488 -0.1379 -0.0346
  172SAPE  H17S19513   1.041   5.263   7.991 -1.1254 -1.6233 -0.0595
  172SAPE  C21819514   1.186   5.320   8.125 -0.0991 -0.9823  0.4149
  172SAPE  H18R19515   1.236   5.407   8.078 -0.9810 -0.2440  0.8047
  172SAPE  H18S19516   1.270   5.271   8.179 -0.3215 -1.1247  0.6338
  172SAPE  C21919517   1.084   5.379   8.223  0.0667 -1.0161 -0.4372
  172SAPE  H19R19518   1.041   5.303   8.291  0.8726 -2.7781 -1.8039
  172SAPE  H19S19519   1.001   5.426   8.165 -0.2125 -1.7004 -0.6051
  172SAPE  C22019520   1.157   5.483   8.310 -0.3927  0.4059 -0.0711
  172SAPE  H20R19521   1.211   5.552   8.241  2.0753 -1.9958 -0.7218
  172SAPE  H20S19522   1.233   5.435   8.375 -0.8988  1.0782  1.0407
  172SAPE  H20T19523   1.078   5.524   8.377 -0.7155 -0.2333 -0.0471
  172SAPE   C3319524   0.761   5.559   7.181 -0.7091 -0.4277  0.1310
  172SAPE   H3X19525   0.653   5.582   7.167 -0.3900 -0.1742 -2.1405
  172SAPE   H3Y19526   0.815   5.646   7.139 -2.5481 -0.0307 -1.5634
  172SAPE   C3419527   0.791   5.553   7.329 -0.6910 -0.1330  0.2757
  172SAPE   H4X19528   0.790   5.445   7.353  1.2740 -1.1949 -3.6855
  172SAPE   H4Y19529   0.719   5.596   7.402 -0.8722 -1.2684  0.7787
  172SAPE   C3519530   0.930   5.611   7.354  0.1255 -0.1582  1.0030
  172SAPE   H5X19531   0.928   5.721   7.370  0.1981  0.0470 -0.3083
  172SAPE   H5Y19532   0.994   5.585   7.267 -0.8963 -4.3390  1.2664
  172SAPE   C3619533   0.992   5.545   7.474  0.0747 -0.1963  0.0162
  172SAPE   H6X19534   1.008   5.437   7.450 -1.8677 -0.0713 -2.1684
  172SAPE   H6Y19535   0.937   5.557   7.570  1.3340  0.8079  0.6513
  172SAPE   C3719536   1.133   5.606   7.507  0.3611  0.1826  0.0566
  172SAPE   H7X19537   1.116   5.714   7.527 -0.3888 -0.4652  3.5446
  172SAPE   H7Y19538   1.203   5.591   7.422 -0.6278 -0.1616 -0.7234
  172SAPE   C3819539   1.202   5.531   7.620  0.4277 -0.1156 -0.0489
  172SAPE   H8X19540   1.310   5.557   7.625  0.7738 -1.5621  0.6580
  172SAPE   H8Y19541   1.214   5.423   7.598  1.0027 -0.3985  1.5514
  172SAPE   C3919542   1.141   5.549   7.755  0.7285  0.0079  0.4390
  172SAPE   H9X19543   1.200   5.492   7.829  4.0092  1.7464 -0.6328
  172SAPE   H9Y19544   1.036   5.512   7.746  0.9450 -0.5583  0.1952
  172SAPE  C31019545   1.133   5.692   7.807  0.0630 -0.3621 -0.0160
  172SAPE  H10X19546   1.065   5.751   7.743  0.5049 -1.8317 -1.9610
  172SAPE  H10Y19547   1.230   5.744   7.789  0.5004 -1.7632 -2.1053
  172SAPE  C31119548   1.103   5.703   7.956 -0.3268  0.0194 -1.0264
  172SAPE  H11X19549   1.192   5.654   8.001 -0.8602  1.1461  1.4647
  172SAPE  H11Y19550   1.008   5.655   7.990 -0.7442  2.1500  1.1197
  172SAPE  C31219551   1.091   5.841   8.023 -0.3351  0.0653 -0.0883
  172SAPE  H12X19552   1.006   5.890   7.970  0.4655  1.2366 -0.3150
  172SAPE  H12Y19553   1.182   5.899   7.999  1.6293 -1.7637  2.3649
  172SAPE  C31319554   1.071   5.848   8.179  0.1053 -1.2940 -0.0078
  172SAPE  H13X19555   1.154   5.794   8.228  1.7064 -0.2424 -1.4718
  172SAPE  H13Y19556   0.986   5.778   8.198 -0.0457 -1.0584  0.1887
  172SAPE  C31419557   1.051   5.989   8.242  0.2676  0.6584  0.0645
  172SAPE  H14X19558   0.991   5.974   8.334 -1.1475 -1.8625 -1.1790
  172SAPE  H14Y19559   0.976   6.044   8.181  2.1240  1.3331 -1.7441
  172SAPE  C31519560   1.177   6.061   8.276  1.5904 -0.1296 -0.0296
  172SAPE  H15X19561   1.238   5.990   8.336  1.9409 -1.1699 -1.5773
  172SAPE  H15Y19562   1.147   6.143   8.345  0.9345  0.5866 -1.1301
  172SAPE  C31619563   1.254   6.124   8.164  0.3933 -0.2115  0.7838
  172SAPE  H16X19564   1.203   6.210   8.116 -1.0553 -1.1149  0.6210
  172SAPE  H16Y19565   1.271   6.054   8.079  0.1221 -1.7147  1.9228
  172SAPE  C31719566   1.393   6.177   8.204  0.3950 -0.3228  0.2163
  172SAPE  H17X19567   1.424   6.092   8.269 -0.4068 -0.1143  0.8911
  172SAPE  H17Y19568   1.379   6.266   8.269  0.6375 -1.5196  1.9819
  172SAPE  C31819569   1.490   6.190   8.084 -0.1457 -0.1982 -0.2525
  172SAPE  H18X19570   1.592   6.217   8.119  0.5889 -2.6250 -0.3402
  172SAPE  H18Y19571   1.458   6.256   8.002  1.7842  0.4682 -0.5272
  172SAPE  H18Z19572   1.490   6.095   8.026  1.3630 -0.9447  0.8594
  173SOPE     N19573   4.210   2.111  10.510  0.3367  0.6748 -0.3569
  173SOPE   HN119574   4.307   2.118  10.547 -0.0185 -0.8948  0.9961
  173SOPE   HN219575   4.156   2.044  10.568  0.2053  0.7870 -0.3477
  173SOPE   HN319576   4.214   2.086  10.409  2.1934 -0.7045  0.0143
  173SOPE   C1219577   4.139   2.247  10.519  1.1275  0.4986 -0.6094
  173SOPE  H12A19578   4.030   2.240  10.498  0.7328 -0.9845  1.6155
  173SOPE  H12B19579   4.172   2.318  10.440 -2.6512  1.6614 -1.3280
  173SOPE   C1119580   4.155   2.295  10.665  0.0808 -0.0070  0.1373
  173SOPE  H11A19581   4.262   2.278  10.692 -0.3086 -2.1440  0.4879
  173SOPE  H11B19582   4.098   2.218  10.721 -0.0282 -0.1215 -0.1309
  173SOPE     P19583   3.965   2.484  10.687 -0.0286 -0.5191  0.1590
  173SOPE   O1319584   3.976   2.631  10.692 -0.2952  0.4697 -0.1797
  173SOPE   O1419585   3.889   2.415  10.789  0.4852  0.1668 -0.3759
  173SOPE   O1219586   4.110   2.422  10.691 -0.0562  0.8930  0.1312
  173SOPE   O1119587   3.912   2.446  10.541 -0.3473  0.2309  0.2730
  173SOPE    C119588   3.780   2.475  10.497  0.3055 -0.8152  0.1113
  173SOPE    HA19589   3.768   2.585  10.489 -0.5465 -0.6762  2.5589
  173SOPE    HB19590   3.704   2.435  10.568  0.9779 -0.7858  0.8575
  173SOPE    C219591   3.748   2.408  10.359  0.0714 -0.7373  0.4589
  173SOPE    HS19592   3.759   2.298  10.360  0.0686 -0.7403  1.6000
  173SOPE   O2119593   3.821   2.474  10.251  0.5127  0.3707  0.2597
  173SOPE   C2119594   3.865   2.391  10.154  0.0466  0.3880  0.2014
  173SOPE   O2219595   3.864   2.270  10.161 -0.1886 -0.0105  0.2115
  173SOPE   C2219596   3.931   2.475  10.044 -0.0362 -0.2480  0.5610
  173SOPE   H2R19597   3.946   2.404   9.960  1.3031 -1.1781  1.5312
  173SOPE   H2S19598   4.020   2.513  10.099 -0.4625  0.0447  1.0552
  173SOPE    C319599   3.599   2.431  10.322  0.2388 -0.2636 -0.1850
  173SOPE    HX19600   3.599   2.534  10.282 -0.3971  0.4192  1.4612
  173SOPE    HY19601   3.537   2.437  10.414 -0.6989 -1.0203 -0.7371
  173SOPE   O3119602   3.550   2.340  10.222  0.2373  0.3789  0.6016
  173SOPE   C3119603   3.446   2.258  10.256 -0.6815 -0.1808 -0.8585
  173SOPE   O3219604   3.385   2.273  10.362 -0.3839 -0.5986  0.2834
  173SOPE   C3219605   3.416   2.168  10.138  0.2507 -0.5318  0.2490
  173SOPE   H2X19606   3.307   2.172  10.119  0.3298 -0.3675 -0.1838
  173SOPE   H2Y19607   3.431   2.062  10.167 -1.2809 -1.7924 -3.1429
  173SOPE   C2319608   3.835   2.576   9.990  0.5125 -0.3329 -0.1282
  173SOPE   H3R19609   3.812   2.650  10.070  0.4960 -0.1358 -0.3155
  173SOPE   H3S19610   3.742   2.532   9.948  0.0892  1.9570 -1.7538
  173SOPE   C2419611   3.906   2.659   9.889 -0.6030 -0.2874 -0.3542
  173SOPE   H4R19612   3.848   2.754   9.892 -1.3131 -0.7043 -0.3904
  173SOPE   H4S19613   4.010   2.671   9.925 -0.4409  0.3330 -0.9960
  173SOPE   C2519614   3.892   2.595   9.753 -0.6072 -0.1620  1.6223
  173SOPE   H5R19615   3.961   2.508   9.750 -2.0396 -1.3478  2.0218
  173SOPE   H5S19616   3.790   2.555   9.733  0.3524 -1.9661  0.0301
  173SOPE   C2619617   3.932   2.699   9.649  0.8322 -0.2216  0.1646
  173SOPE   H6R19618   3.851   2.774   9.659 -0.3976 -1.7233  1.9456
  173SOPE   H6S19619   4.029   2.747   9.676  0.3727 -0.5786  2.6852
  173SOPE   C2719620   3.941   2.651   9.499  0.4412 -0.2007 -0.6996
  173SOPE   H7R19621   4.038   2.603   9.475  1.8784  2.4056 -0.4844
  173SOPE   H7S19622   3.854   2.582   9.489  0.8089 -0.7162 -0.3898
  173SOPE   C2819623   3.924   2.772   9.410 -0.2362 -0.1046  0.0116
  173SOPE   H8R19624   3.896   2.737   9.309 -1.0633  2.3977 -0.7073
  173SOPE   H8S19625   3.830   2.827   9.432 -1.4719 -1.8623 -0.6872
  173SOPE   C2919626   4.048   2.863   9.411 -0.0549 -0.2931  0.9847
  173SOPE   H9119627   4.080   2.891   9.513  2.4719  1.0907 -0.1094
  173SOPE  C21019628   4.110   2.927   9.311  0.4317 -0.3444 -0.4921
  173SOPE  H10119629   4.205   2.971   9.343  0.2049  0.3119 -0.6966
  173SOPE  C21119630   4.080   2.892   9.167 -0.1886 -0.1818 -0.0888
  173SOPE  H11R19631   4.043   2.788   9.151 -1.5010  0.3332 -0.4914
  173SOPE  H11S19632   4.176   2.904   9.114  2.2476 -1.8248  3.5307
  173SOPE  C21219633   3.984   2.980   9.090  1.0003  0.7831  0.7033
  173SOPE  H12R19634   4.021   3.084   9.079 -0.5994  1.5381  2.0732
  173SOPE  H12S19635   3.884   2.989   9.137 -0.4694 -1.3756 -1.7920
  173SOPE  C21319636   3.957   2.929   8.953 -0.0025  0.1293 -0.0796
  173SOPE  H13R19637   3.876   2.997   8.918 -0.5212  0.0117  0.8656
  173SOPE  H13S19638   3.903   2.832   8.952 -0.5113  0.3760 -2.6818
  173SOPE  C21419639   4.070   2.935   8.853  0.2215 -0.5072  0.6639
  173SOPE  H14R19640   4.160   2.875   8.880 -0.2918 -1.3609  0.5238
  173SOPE  H14S19641   4.107   3.035   8.822  0.7990 -1.1295 -0.7367
  173SOPE  C21519642   4.031   2.887   8.711 -0.2193  0.0912 -0.4952
  173SOPE  H15R19643   3.934   2.936   8.688 -0.3399 -0.2171 -0.6478
  173SOPE  H15S19644   4.002   2.779   8.716 -0.1156  0.1085  1.6526
  173SOPE  C21619645   4.135   2.922   8.595  0.1853 -0.1828 -0.4174
  173SOPE  H16R19646   4.229   2.866   8.611  0.1196 -0.0264  0.6524
  173SOPE  H16S19647   4.162   3.029   8.600 -1.6928  0.4241 -1.9719
  173SOPE  C21719648   4.075   2.886   8.466 -0.1214  0.7481  0.3770
  173SOPE  H17R19649   3.969   2.917   8.454 -0.1864  0.8719  1.2338
  173SOPE  H17S19650   4.062   2.776   8.461 -0.7346  0.8666 -1.4053
  173SOPE  C21819651   4.159   2.931   8.341  0.6450 -0.4752 -0.1380
  173SOPE  H18R19652   4.109   2.922   8.243  0.3742 -2.2760  0.1200
  173SOPE  H18S19653   4.258   2.882   8.335  1.2205  0.5597  0.6642
  173SOPE  H18T19654   4.193   3.035   8.359  2.6058 -1.1170  0.1081
  173SOPE   C3319655   3.490   2.206  10.006  0.4880 -0.1967  0.3843
  173SOPE   H3X19656   3.598   2.217  10.027  0.4784 -2.4910  1.9402
  173SOPE   H3Y19657   3.453   2.307   9.977 -0.0816 -0.9709 -1.8492
  173SOPE   C3419658   3.457   2.107   9.893 -0.1346  0.1018 -0.1760
  173SOPE   H4X19659   3.347   2.095   9.881 -0.2138  0.6981 -0.1091
  173SOPE   H4Y19660   3.489   2.004   9.918 -1.9593 -0.8812 -1.5842
  173SOPE   C3519661   3.515   2.149   9.752 -0.0259  0.3309 -0.4656
  173SOPE   H5X19662   3.498   2.064   9.683 -2.8532  0.4213  0.0023
  173SOPE   H5Y19663   3.625   2.165   9.756  0.0201 -0.2036  2.0367
  173SOPE   C3619664   3.457   2.283   9.700 -0.0744 -0.2806  0.3049
  173SOPE   H6X19665   3.497   2.378   9.741 -1.5174 -0.1722  1.5828
  173SOPE   H6Y19666   3.355   2.273   9.743 -1.1702 -0.6642 -2.1788
  173SOPE   C3719667   3.442   2.291   9.545 -0.6645 -0.8406 -0.2209
  173SOPE   H7X19668   3.376   2.378   9.521  1.1952  0.7023 -0.0102
  173SOPE   H7Y19669   3.401   2.197   9.504 -1.0127 -0.7373 -0.1134
  173SOPE   C3819670   3.568   2.333   9.480 -0.3174  0.6394  0.9486
  173SOPE   H8X19671   3.639   2.248   9.472  0.3869  1.1450  1.5693
  173SOPE   H8Y19672   3.626   2.421   9.516  0.5941  0.9421 -1.1109
  173SOPE   C3919673   3.545   2.372   9.333  0.5898  0.6213  0.2250
  173SOPE   H9X19674   3.486   2.466   9.339 -0.3177  0.3219 -2.5491
  173SOPE   H9Y19675   3.471   2.296   9.298 -0.6332  0.7926  2.2470
  173SOPE  C31019676   3.664   2.391   9.238 -0.1322  0.9083 -0.1271
  173SOPE  H10X19677   3.730   2.302   9.224  0.8411  1.7129 -0.8711
  173SOPE  H10Y19678   3.737   2.465   9.277  0.4913  0.1306  0.2333
  173SOPE  C31119679   3.620   2.438   9.101  0.8422 -0.2036  0.4848
  173SOPE  H11X19680   3.596   2.547   9.103  2.9008  0.3200 -1.0436
  173SOPE  H11Y19681   3.533   2.376   9.070  1.2756 -0.7624  0.3767
  173SOPE  C31219682   3.723   2.430   8.984  0.4419  0.1017 -0.0359
  173SOPE  H12X19683   3.740   2.323   8.959  0.6081 -0.2980  1.7025
  173SOPE  H12Y19684   3.819   2.472   9.021 -0.7750  1.4636  1.7175
  173SOPE  C31319685   3.683   2.511   8.864 -0.4718 -0.3014  0.0725
  173SOPE  H13X19686   3.663   2.619   8.874 -3.5612 -0.5152 -2.3729
  173SOPE  H13Y19687   3.586   2.467   8.832 -1.1702  0.7723  0.6703
  173SOPE  C31419688   3.786   2.496   8.754 -0.0940 -0.2033  0.8888
  173SOPE  H14X19689   3.791   2.388   8.731  0.0591 -0.0497  0.1776
  173SOPE  H14Y19690   3.884   2.539   8.783  1.1952 -1.2259 -1.6645
  173SOPE  C31519691   3.729   2.566   8.630 -0.2700  0.1705  0.4224
  173SOPE  H15X19692   3.719   2.676   8.647  2.6743  0.3223  1.7537
  173SOPE  H15Y19693   3.632   2.517   8.607 -1.0502  1.5393  0.7022
  173SOPE  C31619694   3.814   2.543   8.502 -0.1645 -0.7716  0.6417
  173SOPE  H16X19695   3.832   2.438   8.470  2.4990 -0.0600 -0.4462
  173SOPE  H16Y19696   3.911   2.592   8.521 -2.7610  5.4969  0.2866
  173SOPE  C31719697   3.750   2.607   8.379  0.4062 -0.4865 -0.2858
  173SOPE  H17X19698   3.735   2.715   8.402 -3.0713 -0.5884 -1.4387
  173SOPE  H17Y19699   3.648   2.571   8.355 -0.4578  2.2584 -1.1098
  173SOPE  C31819700   3.839   2.596   8.257  0.4635 -0.3310 -0.7428
  173SOPE  H18X19701   3.849   2.488   8.234 -0.2655 -0.6167  0.1635
  173SOPE  H18Y19702   3.942   2.633   8.275  0.5663 -1.2596  0.7170
  173SOPE  H18Z19703   3.790   2.648   8.172 -2.2485  0.3227  1.0878
  174SOPE     N19704   3.603   2.033  10.753 -0.6418 -0.0804  0.8481
  174SOPE   HN119705   3.658   2.065  10.835 -2.9328 -0.4060  2.6104
  174SOPE   HN219706   3.543   2.102  10.704  0.3418 -1.2433 -2.3063
  174SOPE   HN319707   3.533   1.961  10.781 -1.1737 -0.0333 -0.2951
  174SOPE   C1219708   3.690   1.965  10.646 -0.9653 -0.1046  0.2546
  174SOPE  H12A19709   3.619   1.944  10.563 -0.7442  3.0164 -0.8662
  174SOPE  H12B19710   3.728   1.868  10.683 -1.3001 -1.3742 -2.4612
  174SOPE   C1119711   3.797   2.057  10.589 -0.1402 -0.1702 -0.9459
  174SOPE  H11A19712   3.865   2.089  10.671  0.2225 -0.4977 -1.1125
  174SOPE  H11B19713   3.750   2.150  10.552  2.2708  1.3928 -0.3490
  174SOPE     P19714   3.959   1.877  10.497 -0.4066  0.2684  0.1654
  174SOPE   O1319715   3.904   1.740  10.488  0.4740 -0.5813 -0.5451
  174SOPE   O1419716   4.041   1.913  10.618 -0.1022 -0.3141 -0.4015
  174SOPE   O1219717   3.855   1.989  10.478 -0.0066 -0.4358 -0.2146
  174SOPE   O1119718   4.048   1.897  10.367 -0.2866 -0.4110  0.0611
  174SOPE    C119719   3.977   1.910  10.243  0.1913 -0.0827 -0.2241
  174SOPE    HA19720   3.965   2.019  10.224  0.5865 -0.3310 -2.0381
  174SOPE    HB19721   3.878   1.860  10.248  0.9579 -1.7390 -1.0232
  174SOPE    C219722   4.059   1.846  10.136  0.5829 -0.3356 -0.6784
  174SOPE    HS19723   4.159   1.891  10.152 -0.0045  0.4692  0.9779
  174SOPE   O2119724   4.013   1.877  10.009  0.2973  0.1529 -0.2094
  174SOPE   C2119725   4.046   1.993   9.960 -0.0187  0.9349 -0.4831
  174SOPE   O2219726   4.124   2.074  10.010 -0.1865  0.6072 -0.2611
  174SOPE   C2219727   3.978   2.014   9.827  0.3738 -0.3362  0.2616
  174SOPE   H2R19728   3.872   1.981   9.826 -0.1438  1.2733  0.1501
  174SOPE   H2S19729   4.021   1.944   9.752  0.2193 -1.4624  1.1910
  174SOPE    C319730   4.059   1.689  10.146 -0.0169  0.1221  0.8048
  174SOPE    HX19731   3.950   1.668  10.138 -0.0663  0.5178  0.3348
  174SOPE    HY19732   4.090   1.658  10.248  1.8515 -0.6131  0.0468
  174SOPE   O3119733   4.137   1.629  10.039  0.9466 -0.4563 -0.2789
  174SOPE   C3119734   4.098   1.505  10.015  0.1507  0.2700  0.5115
  174SOPE   O3219735   4.011   1.445  10.075  0.3200  0.1834  0.1111
  174SOPE   C3219736   4.171   1.460   9.886  0.6231 -0.4784  0.0719
  174SOPE   H2X19737   4.093   1.405   9.829 -0.5426  1.9502 -0.8301
  174SOPE   H2Y19738   4.245   1.388   9.926  0.5030 -1.2888 -1.0922
  174SOPE   C2319739   3.994   2.162   9.781  0.4055 -0.0934 -0.6892
  174SOPE   H3R19740   4.099   2.195   9.796 -0.0651  0.5509  1.5880
  174SOPE   H3S19741   3.927   2.228   9.841  1.2822 -1.1177  1.5233
  174SOPE   C2419742   3.970   2.191   9.627 -0.0083  0.1980 -0.0749
  174SOPE   H4R19743   3.867   2.163   9.596 -0.5578  0.9499  1.0095
  174SOPE   H4S19744   3.965   2.299   9.600  0.7057  0.5284  1.0622
  174SOPE   C2519745   4.075   2.120   9.537 -0.3202  1.3197 -0.8781
  174SOPE   H5R19746   4.180   2.132   9.573  0.0600 -1.5820 -0.8112
  174SOPE   H5S19747   4.049   2.013   9.548 -2.6655  1.7616 -1.6644
  174SOPE   C2619748   4.068   2.157   9.392 -0.2021  0.0290  0.2343
  174SOPE   H6R19749   4.146   2.097   9.340 -1.8277 -0.8679 -1.2870
  174SOPE   H6S19750   3.969   2.120   9.358 -0.0414  0.8372 -1.1627
  174SOPE   C2719751   4.077   2.305   9.348  0.2895 -0.0828 -0.4814
  174SOPE   H7R19752   3.991   2.363   9.389 -0.1021  0.4638 -2.0013
  174SOPE   H7S19753   4.168   2.345   9.398 -1.0079  0.8170  1.2874
  174SOPE   C2819754   4.096   2.330   9.197 -0.5266  1.2933  0.0788
  174SOPE   H8R19755   4.187   2.272   9.170  0.1126  1.2114  2.2271
  174SOPE   H8S19756   4.018   2.271   9.143 -0.8302 -0.9752  2.7873
  174SOPE   C2919757   4.091   2.478   9.163 -0.7218  0.0091  0.2856
  174SOPE   H9119758   4.033   2.547   9.225  2.3652  2.0688  1.1329
  174SOPE  C21019759   4.169   2.544   9.073  0.0885  0.9034  0.3307
  174SOPE  H10119760   4.170   2.654   9.081  0.2021  0.7982  2.2965
  174SOPE  C21119761   4.264   2.478   8.984 -0.1432  0.2141 -0.4115
  174SOPE  H11R19762   4.313   2.385   9.021  0.1533  0.8947  0.9920
  174SOPE  H11S19763   4.349   2.548   8.973 -0.6416  1.1154  1.1462
  174SOPE  C21219764   4.195   2.485   8.849  0.0114 -0.2963  0.2277
  174SOPE  H12R19765   4.155   2.588   8.836  1.1493 -0.0554 -1.6757
  174SOPE  H12S19766   4.105   2.423   8.834 -0.4415 -0.4657  3.0149
  174SOPE  C21319767   4.285   2.469   8.722  0.5174  0.6768 -0.3507
  174SOPE  H13R19768   4.295   2.358   8.718 -0.9165  0.5534 -2.1497
  174SOPE  H13S19769   4.390   2.501   8.741  0.8401 -0.7951  0.5034
  174SOPE  C21419770   4.217   2.522   8.595 -0.6053 -0.0998  0.3525
  174SOPE  H14R19771   4.182   2.626   8.613  0.2448  0.3657 -0.5905
  174SOPE  H14S19772   4.132   2.456   8.569 -0.9654  1.6968 -3.7125
  174SOPE  C21519773   4.309   2.520   8.474  0.6453  0.5647  0.4443
  174SOPE  H15R19774   4.370   2.427   8.471  1.0269  0.8270 -0.0117
  174SOPE  H15S19775   4.377   2.606   8.486 -0.0044  1.2530 -0.6701
  174SOPE  C21619776   4.216   2.532   8.351  0.2033  0.8513  0.1061
  174SOPE  H16R19777   4.170   2.633   8.346  0.9950  1.2054 -0.1717
  174SOPE  H16S19778   4.144   2.448   8.351  1.4437 -0.2423  1.0389
  174SOPE  C21719779   4.291   2.542   8.209  0.3910  0.1549 -0.0258
  174SOPE  H17R19780   4.356   2.453   8.194  0.9778  0.5265  0.2644
  174SOPE  H17S19781   4.355   2.632   8.217  2.2695 -1.0953 -0.4378
  174SOPE  C21819782   4.197   2.558   8.089  0.4222  0.1397  0.1319
  174SOPE  H18R19783   4.128   2.476   8.061  1.4617 -0.2904 -1.2835
  174SOPE  H18S19784   4.262   2.577   8.001  1.3873  1.2443  1.0357
  174SOPE  H18T19785   4.138   2.651   8.103  1.3467  0.7531  0.0554
  174SOPE   C3319786   4.228   1.573   9.792 -0.0545 -0.0264 -0.3404
  174SOPE   H3X19787   4.307   1.520   9.735  0.4470  0.3393  0.0078
  174SOPE   H3Y19788   4.285   1.637   9.862 -0.5011 -1.0964  1.0591
  174SOPE   C3419789   4.106   1.631   9.708  0.1895  0.3673 -0.2285
  174SOPE   H4X19790   4.041   1.685   9.780  1.6702  1.3440  0.4111
  174SOPE   H4Y19791   4.050   1.547   9.661 -0.3976  0.0124  1.0691
  174SOPE   C3519792   4.160   1.722   9.595  0.0675  0.4724 -0.0129
  174SOPE   H5X19793   4.234   1.791   9.641 -0.6150  2.3056 -1.5261
  174SOPE   H5Y19794   4.077   1.786   9.560 -0.3849  1.1240  2.1697
  174SOPE   C3619795   4.239   1.648   9.490 -0.0502 -0.0825 -0.1841
  174SOPE   H6X19796   4.185   1.560   9.450  1.8475 -1.0449 -0.7520
  174SOPE   H6Y19797   4.321   1.589   9.538 -0.3684 -1.3908 -1.1959
  174SOPE   C3719798   4.306   1.720   9.366 -0.1547 -0.4324 -0.6314
  174SOPE   H7X19799   4.370   1.645   9.314  1.6102  0.1914  0.5485
  174SOPE   H7Y19800   4.376   1.793   9.412 -1.6627  1.0674 -0.6277
  174SOPE   C3819801   4.208   1.788   9.269  0.1403 -1.1282 -0.6570
  174SOPE   H8X19802   4.141   1.860   9.321  2.7668  2.8697 -2.3792
  174SOPE   H8Y19803   4.140   1.713   9.223 -3.2161  1.1482  0.1867
  174SOPE   C3919804   4.277   1.856   9.142 -0.2519  0.0916 -0.6642
  174SOPE   H9X19805   4.347   1.790   9.087  3.0021  2.8859 -0.2344
  174SOPE   H9Y19806   4.339   1.942   9.175 -0.1770 -0.0347 -0.4698
  174SOPE  C31019807   4.173   1.920   9.050 -0.2929  0.3793  0.1888
  174SOPE  H10X19808   4.124   2.002   9.106  0.8317  0.0240  1.7621
  174SOPE  H10Y19809   4.095   1.844   9.031 -0.1344 -0.1112  1.4506
  174SOPE  C31119810   4.240   1.973   8.919  0.0660  0.1143 -0.8844
  174SOPE  H11X19811   4.289   1.891   8.862 -1.3175 -1.2144 -0.2468
  174SOPE  H11Y19812   4.315   2.047   8.952 -1.3383  2.0084 -1.7467
  174SOPE  C31219813   4.134   2.036   8.825 -0.9807  0.5240  0.5412
  174SOPE  H12X19814   4.096   2.132   8.865 -0.1479  0.5908  1.2180
  174SOPE  H12Y19815   4.042   1.976   8.836  0.7927 -2.0283  2.5747
  174SOPE  C31319816   4.180   2.021   8.677  0.0262  0.3430  0.2840
  174SOPE  H13X19817   4.189   1.919   8.634 -0.9892  0.2375  0.2851
  174SOPE  H13Y19818   4.286   2.051   8.665  1.0585 -2.9900  0.2041
  174SOPE  C31419819   4.078   2.099   8.595  0.2372  0.7929  0.0200
  174SOPE  H14X19820   4.086   2.210   8.603  2.5699  0.6421  0.3997
  174SOPE  H14Y19821   3.978   2.061   8.625  1.0356 -1.2890  0.2264
  174SOPE  C31519822   4.095   2.079   8.439 -0.4252 -0.0102 -0.2733
  174SOPE  H15X19823   4.203   2.071   8.418 -0.1994  1.2156  0.3414
  174SOPE  H15Y19824   4.053   2.166   8.384  0.5482  0.5503 -0.1449
  174SOPE  C31619825   4.019   1.948   8.392 -0.1352 -0.3568  0.4951
  174SOPE  H16X19826   3.916   1.977   8.422  0.7174  2.2842  1.0829
  174SOPE  H16Y19827   4.057   1.865   8.456 -0.5511  0.8869  2.4351
  174SOPE  C31719828   4.027   1.901   8.242  0.2268  0.6505 -0.1452
  174SOPE  H17X19829   4.001   1.986   8.176 -1.6320 -1.1775 -1.9053
  174SOPE  H17Y19830   3.945   1.828   8.225 -0.7724  1.2220  1.8586
  174SOPE  C31819831   4.161   1.848   8.201 -0.5074  0.4840 -0.5215
  174SOPE  H18X19832   4.234   1.930   8.219  0.8520 -0.9998  1.1121
  174SOPE  H18Y19833   4.170   1.815   8.095 -0.9544  3.1354 -1.4578
  174SOPE  H18Z19834   4.188   1.775   8.280  2.6396  1.3745 -0.6309
  175SOPE     N19835   3.976   2.845  10.524 -0.0770 -0.2414 -0.5375
  175SOPE   HN119836   4.040   2.924  10.547  0.1691 -1.2364  2.5482
  175SOPE   HN219837   3.877   2.867  10.547  0.7889  2.4667  1.0145
  175SOPE   HN319838   4.009   2.764  10.579  2.7306 -0.0144 -1.7378
  175SOPE   C1219839   4.001   2.783  10.384  0.4221 -0.5222  0.4159
  175SOPE  H12A19840   4.030   2.871  10.323  1.8346 -0.8582  0.5864
  175SOPE  H12B19841   3.907   2.731  10.356  1.3381 -1.7502 -0.4524
  175SOPE   C1119842   4.120   2.686  10.378  0.0457 -0.8181 -0.1529
  175SOPE  H11A19843   4.177   2.696  10.284  1.8758  0.5058  1.0119
  175SOPE  H11B19844   4.064   2.591  10.397 -0.4501 -0.3706  0.6765
  175SOPE     P19845   4.366   2.689  10.471 -0.3156 -0.4661 -0.7394
  175SOPE   O1319846   4.400   2.544  10.453  0.2420 -0.5203 -0.2746
  175SOPE   O1419847   4.424   2.750  10.595 -0.6697  0.0960 -0.2105
  175SOPE   O1219848   4.209   2.701  10.488  0.0387 -0.7371  0.0419
  175SOPE   O1119849   4.404   2.766  10.337 -0.0155 -0.3590 -0.4684
  175SOPE    C119850   4.392   2.910  10.345  0.1648 -0.5444 -0.7098
  175SOPE    HA19851   4.441   2.960  10.432 -0.6095  1.9184 -1.6074
  175SOPE    HB19852   4.289   2.944  10.369  0.4896 -1.5155  2.6901
  175SOPE    C219853   4.439   2.977  10.214 -0.3550  0.0906  0.3744
  175SOPE    HS19854   4.432   3.088  10.218  2.8257  0.3815  0.6226
  175SOPE   O2119855   4.363   2.922  10.103 -0.7655  0.4215 -0.2426
  175SOPE   C2119856   4.252   2.984  10.092  0.8715 -0.0216 -0.4463
  175SOPE   O2219857   4.215   3.074  10.168  0.3207  0.0787 -0.0109
  175SOPE   C2219858   4.166   2.919   9.993 -0.3198  0.0744 -0.5380
  175SOPE   H2R19859   4.067   2.968   9.987  0.1624  1.2835  0.8247
  175SOPE   H2S19860   4.144   2.819  10.035 -0.3487  0.5723  0.6489
  175SOPE    C319861   4.593   2.950  10.195 -0.3210 -0.0940 -0.6259
  175SOPE    HX19862   4.597   2.839  10.202  2.1381 -0.0194  0.1023
  175SOPE    HY19863   4.663   2.982  10.275 -1.6764  0.7093  0.2910
  175SOPE   O3119864   4.656   2.962  10.066 -0.3767  0.0180 -0.1134
  175SOPE   C3119865   4.670   3.082  10.021 -0.0910  0.1966  0.5188
  175SOPE   O3219866   4.611   3.186  10.059 -0.8662  0.5996 -0.1004
  175SOPE   C3219867   4.754   3.073   9.889 -0.7597  0.3506  0.7771
  175SOPE   H2X19868   4.717   2.993   9.822 -0.6725  1.0921 -0.1841
  175SOPE   H2Y19869   4.855   3.037   9.919 -0.5618 -0.3994 -0.6835
  175SOPE   C2319870   4.250   2.909   9.859  0.4769  0.2492 -0.1581
  175SOPE   H3R19871   4.198   2.844   9.786 -0.5441  0.9584 -0.0807
  175SOPE   H3S19872   4.350   2.866   9.880  0.6248  1.0221  0.7884
  175SOPE   C2419873   4.257   3.049   9.792  0.1292 -0.0012  0.1202
  175SOPE   H4R19874   4.154   3.087   9.772 -1.5131 -4.0232 -0.0153
  175SOPE   H4S19875   4.297   3.116   9.871  0.3607 -0.8198  0.7140
  175SOPE   C2519876   4.341   3.050   9.665 -0.3124 -0.6441 -0.7280
  175SOPE   H5R19877   4.443   3.016   9.692  1.3054  4.5146  0.7884
  175SOPE   H5S19878   4.301   2.971   9.598  0.6968 -0.3050 -1.7469
  175SOPE   C2619879   4.345   3.185   9.592  0.3629  0.4627 -0.7114
  175SOPE   H6R19880   4.240   3.201   9.560  1.4484  3.1340 -3.4353
  175SOPE   H6S19881   4.382   3.270   9.653 -1.8444  1.7478 -1.0778
  175SOPE   C2719882   4.442   3.179   9.470 -0.2599 -0.0778  0.1890
  175SOPE   H7R19883   4.543   3.145   9.503 -0.7099 -1.5759  0.0793
  175SOPE   H7S19884   4.399   3.095   9.411  1.6133 -1.3254  0.5101
  175SOPE   C2819885   4.468   3.314   9.399 -0.2913 -0.9551  0.3590
  175SOPE   H8R19886   4.505   3.389   9.471 -2.7362  0.9033 -0.2058
  175SOPE   H8S19887   4.555   3.290   9.334 -1.3713 -1.3564 -1.0033
  175SOPE   C2919888   4.354   3.373   9.319 -0.0565  0.4198  0.0951
  175SOPE   H9119889   4.284   3.431   9.381 -1.2645 -0.9043  0.0224
  175SOPE  C21019890   4.330   3.369   9.183  0.5439  0.0034  0.2626
  175SOPE  H10119891   4.242   3.422   9.143 -0.9160 -1.8544  0.8592
  175SOPE  C21119892   4.419   3.294   9.087 -0.3295  0.7572  0.0085
  175SOPE  H11R19893   4.490   3.223   9.133  0.7980  1.1701 -1.0339
  175SOPE  H11S19894   4.490   3.369   9.047 -1.8367  0.8232 -2.8011
  175SOPE  C21219895   4.348   3.219   8.973  0.0292  0.1782 -0.0137
  175SOPE  H12R19896   4.267   3.156   9.016 -0.7987  1.3913  0.2448
  175SOPE  H12S19897   4.426   3.164   8.915  0.2624  1.7953 -1.3115
  175SOPE  C21319898   4.277   3.312   8.865 -0.0209 -0.2055 -0.1124
  175SOPE  H13R19899   4.206   3.383   8.912 -3.1785 -3.1326 -0.0644
  175SOPE  H13S19900   4.210   3.237   8.818  0.6448  0.0944 -1.6075
  175SOPE  C21419901   4.374   3.381   8.770 -0.0417 -0.1779  0.5934
  175SOPE  H14R19902   4.444   3.448   8.825 -3.1814  4.0155  0.0119
  175SOPE  H14S19903   4.316   3.450   8.705  0.8654  0.4883  0.4751
  175SOPE  C21519904   4.454   3.293   8.664 -0.2431 -0.2342 -0.0918
  175SOPE  H15R19905   4.417   3.188   8.652  1.9900 -0.9818 -0.9198
  175SOPE  H15S19906   4.559   3.284   8.698 -0.6610  3.1405  2.6647
  175SOPE  C21619907   4.448   3.359   8.525  0.1919 -0.3190 -1.3050
  175SOPE  H16R19908   4.485   3.460   8.553 -0.0611 -0.4066 -0.6372
  175SOPE  H16S19909   4.343   3.375   8.494 -0.9953  0.8004  2.7832
  175SOPE  C21719910   4.530   3.277   8.419 -0.0019  0.9748  0.1790
  175SOPE  H17R19911   4.617   3.223   8.460 -0.6559 -0.0278  0.2655
  175SOPE  H17S19912   4.577   3.357   8.357  1.7909  1.1026  1.6295
  175SOPE  C21819913   4.448   3.180   8.331  0.2412 -0.2267  0.0021
  175SOPE  H18R19914   4.359   3.235   8.292  1.9096 -0.0972 -4.0432
  175SOPE  H18S19915   4.408   3.100   8.398  0.7683  0.2849  0.9552
  175SOPE  H18T19916   4.505   3.150   8.241  0.4236  1.4794 -0.4882
  175SOPE   C3319917   4.786   3.213   9.825  0.0714 -0.3753  1.4964
  175SOPE   H3X19918   4.822   3.289   9.898  0.3475  1.0747 -0.1042
  175SOPE   H3Y19919   4.702   3.258   9.769  1.0831 -1.2878 -0.8589
  175SOPE   C3419920   4.896   3.210   9.722  0.0528 -0.6859 -0.1655
  175SOPE   H4X19921   4.867   3.141   9.640 -1.1633 -0.7160  0.2697
  175SOPE   H4Y19922   4.986   3.173   9.776 -1.0288 -0.6348  1.7873
  175SOPE   C3519923   4.928   3.347   9.662  0.4915 -0.3532 -0.3709
  175SOPE   H5X19924   4.957   3.411   9.749 -2.9352 -1.0558  1.4475
  175SOPE   H5Y19925   4.835   3.392   9.622  0.4475 -0.5841 -0.5286
  175SOPE   C3619926   5.038   3.341   9.556 -0.3666  0.0486 -0.6778
  175SOPE   H6X19927   5.120   3.273   9.588  0.3485  2.0164  1.9939
  175SOPE   H6Y19928   5.101   3.431   9.541  1.3013 -1.1764 -1.4511
  175SOPE   C3719929   4.971   3.296   9.423 -0.4807  0.1460 -0.3390
  175SOPE   H7X19930   4.876   3.350   9.405 -0.4263  0.2369 -0.3561
  175SOPE   H7Y19931   4.952   3.187   9.420  0.8357 -0.2037  1.9433
  175SOPE   C3819932   5.064   3.343   9.307  0.2461  0.0963 -0.0095
  175SOPE   H8X19933   5.167   3.307   9.326  0.7504  0.7028 -1.4132
  175SOPE   H8Y19934   5.060   3.452   9.288 -0.1162 -0.0669 -0.9407
  175SOPE   C3919935   5.019   3.279   9.175  0.0330  0.4059  0.3891
  175SOPE   H9X19936   5.002   3.170   9.191 -0.6553  0.5186  0.4378
  175SOPE   H9Y19937   5.101   3.287   9.099 -0.0045 -2.8453 -0.1320
  175SOPE  C31019938   4.889   3.331   9.125 -0.0130 -0.2340  0.7113
  175SOPE  H10X19939   4.898   3.440   9.106  3.5061 -0.3514  1.1719
  175SOPE  H10Y19940   4.819   3.312   9.208 -0.3275 -1.3013  0.2203
  175SOPE  C31119941   4.829   3.255   9.004 -0.0532  0.1683 -0.6342
  175SOPE  H11X19942   4.720   3.277   9.003  0.2922  2.1006  0.5448
  175SOPE  H11Y19943   4.845   3.147   9.025 -0.0749  0.1908 -0.5028
  175SOPE  C31219944   4.873   3.301   8.864 -0.3132 -0.4074 -0.6880
  175SOPE  H12X19945   4.865   3.411   8.854  2.2729 -0.2777 -2.4399
  175SOPE  H12Y19946   4.795   3.260   8.797 -2.4326 -1.5639  2.2837
  175SOPE  C31319947   5.008   3.253   8.814  0.4107  0.0187  0.3113
  175SOPE  H13X19948   4.991   3.227   8.707 -2.8134  1.2642  0.4053
  175SOPE  H13Y19949   5.042   3.161   8.864  0.1893  0.2776  0.9443
  175SOPE  C31419950   5.118   3.361   8.829  0.9057 -0.4197 -0.8251
  175SOPE  H14X19951   5.115   3.392   8.936 -0.1081 -0.4177 -0.8423
  175SOPE  H14Y19952   5.095   3.450   8.766 -0.8056 -1.5409 -1.9038
  175SOPE  C31519953   5.249   3.299   8.791 -0.4923  0.3139  0.1802
  175SOPE  H15X19954   5.292   3.209   8.840  0.6210 -0.4929 -2.1120
  175SOPE  H15Y19955   5.326   3.377   8.803  0.8489 -0.8785 -0.3333
  175SOPE  C31619956   5.248   3.263   8.637 -0.1734 -0.6183  0.1554
  175SOPE  H16X19957   5.171   3.329   8.591  1.9663  1.1792 -1.0917
  175SOPE  H16Y19958   5.234   3.153   8.630  2.4961 -0.9961 -0.5505
  175SOPE  C31719959   5.395   3.299   8.585 -0.4146  0.7899  0.2417
  175SOPE  H17X19960   5.459   3.233   8.648 -0.0410 -1.7498 -2.5937
  175SOPE  H17Y19961   5.409   3.409   8.595 -0.7340  0.8460  0.0833
  175SOPE  C31819962   5.404   3.275   8.441  0.1929 -0.0375 -0.6986
  175SOPE  H18X19963   5.374   3.174   8.405 -0.7074  0.6185 -1.8733
  175SOPE  H18Y19964   5.505   3.312   8.413 -0.2961  1.9192 -0.0369
  175SOPE  H18Z19965   5.339   3.351   8.392 -0.4860  0.0617  0.3346
  176SOPE     N19966   5.258   2.459  11.062  0.3952 -0.0501 -0.6998
  176SOPE   HN119967   5.325   2.496  10.992 -0.1546  0.0208 -1.1949
  176SOPE   HN219968   5.309   2.428  11.148 -0.2608  0.5496 -0.0863
  176SOPE   HN319969   5.210   2.378  11.017 -4.0088  2.5372 -1.1956
  176SOPE   C1219970   5.171   2.575  11.100 -0.7696  0.5739 -0.6011
  176SOPE  H12A19971   5.238   2.655  11.139 -2.2129  1.3811  0.3673
  176SOPE  H12B19972   5.106   2.539  11.183 -0.3395  1.5627  0.2001
  176SOPE   C1119973   5.082   2.621  10.979 -0.5767  0.5915 -0.1208
  176SOPE  H11A19974   4.999   2.686  11.016 -0.6112  1.8726 -2.2956
  176SOPE  H11B19975   5.036   2.533  10.929 -1.8473  1.7406 -1.0544
  176SOPE     P19976   5.106   2.768  10.771 -0.2596 -0.5265  0.0742
  176SOPE   O1319977   5.225   2.811  10.691  0.2075  0.0700 -0.3992
  176SOPE   O1419978   5.012   2.870  10.816 -0.1131 -0.5498 -0.5519
  176SOPE   O1219979   5.167   2.700  10.900 -0.2831 -0.4245  0.4225
  176SOPE   O1119980   5.036   2.654  10.692  0.2333  0.1641  0.2807
  176SOPE    C119981   5.116   2.546  10.643  0.2240  0.0358 -0.3099
  176SOPE    HA19982   5.066   2.448  10.657  1.8092 -0.4967  2.3227
  176SOPE    HB19983   5.212   2.532  10.698  0.4921 -0.5897 -0.9156
  176SOPE    C219984   5.157   2.561  10.495  0.0958 -0.5147 -0.3350
  176SOPE    HS19985   5.232   2.643  10.493  0.4529 -0.7846  0.9619
  176SOPE   O2119986   5.038   2.589  10.423 -0.5377 -0.0653  0.4112
  176SOPE   C2119987   5.011   2.704  10.378  0.1282 -0.4218 -0.2584
  176SOPE   O2219988   5.088   2.801  10.384 -0.1715  0.4618  0.1545
  176SOPE   C2219989   4.882   2.715  10.304  0.3357  0.7002 -0.5271
  176SOPE   H2R19990   4.837   2.816  10.307 -1.6179 -0.0486 -2.0271
  176SOPE   H2S19991   4.813   2.646  10.358  3.5248 -1.6166  0.9081
  176SOPE    C319992   5.221   2.439  10.440 -0.2109 -0.1393  0.3494
  176SOPE    HX19993   5.157   2.354  10.473 -0.5207  0.6211  1.7731
  176SOPE    HY19994   5.318   2.426  10.493  0.2415 -1.4251 -0.7207
  176SOPE   O3119995   5.223   2.437  10.296 -0.2296  0.1769  0.4170
  176SOPE   C3119996   5.335   2.494  10.241 -0.8439 -0.2625  0.4155
  176SOPE   O3219997   5.429   2.530  10.302  0.2548 -0.2117  0.1790
  176SOPE   C3219998   5.310   2.502  10.092 -0.5564 -0.1661 -0.3759
  176SOPE   H2X19999   5.224   2.568  10.068  0.2218  0.2017 -2.3493
  176SOPE   H2Y20000   5.282   2.398  10.065  0.7610 -0.9069  1.0026
  176SOPE   C2320001   4.887   2.653  10.161  0.1456  0.4656  0.6686
  176SOPE   H3R20002   4.782   2.639  10.127  0.5970 -1.6448  0.0000
  176SOPE   H3S20003   4.939   2.555  10.158 -1.7103 -0.5784 -2.5803
  176SOPE   C2420004   4.973   2.745  10.057 -0.4148  0.1620 -0.1317
  176SOPE   H4R20005   4.925   2.845  10.065  0.0938  0.4448 -0.5319
  176SOPE   H4S20006   5.079   2.757  10.089  0.2722  0.9237 -2.4493
  176SOPE   C2520007   4.979   2.684   9.919  0.5653 -0.8660  0.0601
  176SOPE   H5R20008   5.038   2.593   9.941  0.6151 -0.6643  0.7807
  176SOPE   H5S20009   4.878   2.644   9.897 -0.9011  1.6485  1.7092
  176SOPE   C2620010   5.041   2.772   9.810 -0.4071 -0.3793 -0.1493
  176SOPE   H6R20011   4.986   2.862   9.776  0.6460  0.3066 -0.0739
  176SOPE   H6S20012   5.142   2.798   9.850 -0.6821 -0.3892  0.5741
  176SOPE   C2720013   5.047   2.692   9.677 -0.6271  0.5532 -0.4566
  176SOPE   H7R20014   5.078   2.589   9.703 -0.0728  0.6622 -0.6621
  176SOPE   H7S20015   4.947   2.678   9.632 -0.1643 -1.1561 -1.0298
  176SOPE   C2820016   5.150   2.741   9.573  0.4745  0.2506 -0.4356
  176SOPE   H8R20017   5.247   2.735   9.628  0.6806 -1.0391 -0.9152
  176SOPE   H8S20018   5.158   2.664   9.493  1.1623  0.5655 -0.6837
  176SOPE   C2920019   5.122   2.877   9.519  0.0218  0.5206 -0.3467
  176SOPE   H9120020   5.044   2.941   9.562 -2.0780 -0.6623 -2.1531
  176SOPE  C21020021   5.188   2.916   9.403  0.2233 -0.4101 -0.8027
  176SOPE  H10120022   5.178   3.024   9.383 -0.7339  0.1662  2.2106
  176SOPE  C21120023   5.289   2.835   9.326  0.0646 -0.9831 -0.8841
  176SOPE  H11R20024   5.274   2.725   9.334 -1.7133 -0.8177 -1.4418
  176SOPE  H11S20025   5.393   2.856   9.358 -0.2351  1.3486 -1.2719
  176SOPE  C21220026   5.295   2.856   9.175  0.1762 -0.3211 -0.1570
  176SOPE  H12R20027   5.385   2.800   9.141  0.7516 -0.3249  1.3205
  176SOPE  H12S20028   5.314   2.961   9.142  0.8272 -0.8057 -1.4069
  176SOPE  C21320029   5.183   2.782   9.094  0.1315 -0.2941 -0.0149
  176SOPE  H13R20030   5.083   2.823   9.119  0.0593  1.4988 -2.8307
  176SOPE  H13S20031   5.187   2.672   9.107  0.4014 -0.3169 -0.2929
  176SOPE  C21420032   5.205   2.810   8.943 -0.4848  0.3103 -0.2931
  176SOPE  H14R20033   5.306   2.778   8.908 -0.3526  1.4743 -1.0433
  176SOPE  H14S20034   5.207   2.920   8.931 -1.6899  0.5372  1.2568
  176SOPE  C21520035   5.095   2.756   8.855 -0.3753  0.0640  1.1084
  176SOPE  H15R20036   4.994   2.790   8.887 -0.5234  0.2975  0.3905
  176SOPE  H15S20037   5.091   2.645   8.849 -2.0432 -0.0053  2.5920
  176SOPE  C21620038   5.111   2.814   8.713  0.4572  0.5166  0.1113
  176SOPE  H16R20039   5.130   2.923   8.714  2.0755  0.2959 -1.5809
  176SOPE  H16S20040   5.018   2.803   8.654  1.4550 -1.9720 -1.1417
  176SOPE  C21720041   5.225   2.764   8.625  0.8108 -0.0255  0.5697
  176SOPE  H17R20042   5.224   2.654   8.608  1.1289  0.4706 -4.1435
  176SOPE  H17S20043   5.320   2.794   8.674  1.7917  1.9555 -2.2760
  176SOPE  C21820044   5.234   2.827   8.485  0.2713 -1.1061 -0.3952
  176SOPE  H18R20045   5.138   2.814   8.432  0.3037  0.1757 -0.7808
  176SOPE  H18S20046   5.320   2.788   8.427  0.1798 -1.7906 -0.0877
  176SOPE  H18T20047   5.247   2.937   8.481 -0.4472 -1.0316 -0.9306
  176SOPE   C3320048   5.428   2.556  10.011 -0.4695  0.4505 -0.1773
  176SOPE   H3X20049   5.526   2.518  10.045 -1.1613  0.3267  1.8077
  176SOPE   H3Y20050   5.423   2.667  10.013 -0.9843  0.4234  0.8011
  176SOPE   C3420051   5.425   2.496   9.866  0.3603  0.4121  0.5211
  176SOPE   H4X20052   5.331   2.516   9.809  1.6888 -2.3713 -3.0370
  176SOPE   H4Y20053   5.422   2.385   9.874  0.0959  0.3996  0.3031
  176SOPE   C3520054   5.530   2.545   9.770  0.3275 -0.2187  0.0554
  176SOPE   H5X20055   5.637   2.522   9.793  0.8089  0.8962 -0.9523
  176SOPE   H5Y20056   5.516   2.655   9.766 -1.6630 -0.4610 -1.2787
  176SOPE   C3620057   5.493   2.500   9.626  0.1364 -0.5502 -0.1797
  176SOPE   H6X20058   5.387   2.515   9.596 -0.0044 -0.3306  0.4088
  176SOPE   H6Y20059   5.512   2.392   9.610 -0.9395 -0.5863 -1.3995
  176SOPE   C3720060   5.574   2.594   9.536  0.8977  0.6200  0.5644
  176SOPE   H7X20061   5.684   2.600   9.552  1.0935 -1.2052  0.0595
  176SOPE   H7Y20062   5.532   2.696   9.551  0.6650  0.7204 -0.6622
  176SOPE   C3820063   5.567   2.559   9.384 -0.0181  0.1331  0.0261
  176SOPE   H8X20064   5.610   2.647   9.331 -0.5267  0.0169 -0.5911
  176SOPE   H8Y20065   5.459   2.557   9.356  0.3440  1.7493 -1.7387
  176SOPE   C3920066   5.630   2.424   9.346 -0.7611 -0.0130  0.3123
  176SOPE   H9X20067   5.571   2.346   9.399 -0.0501 -0.7959 -0.0219
  176SOPE   H9Y20068   5.740   2.427   9.361 -0.5494 -1.2033 -0.8153
  176SOPE  C31020069   5.604   2.380   9.199 -0.6271  0.0538 -0.3906
  176SOPE  H10X20070   5.620   2.463   9.127  0.7239  0.4067  0.2881
  176SOPE  H10Y20071   5.494   2.359   9.198 -0.8616  0.9734 -3.2312
  176SOPE  C31120072   5.680   2.250   9.177  0.7562 -0.0730 -0.1654
  176SOPE  H11X20073   5.650   2.179   9.257 -0.3597  0.0967 -0.4042
  176SOPE  H11Y20074   5.788   2.274   9.172  1.0173 -0.8313  1.2650
  176SOPE  C31220075   5.646   2.179   9.043  0.0453  0.2412  0.1362
  176SOPE  H12X20076   5.640   2.247   8.955  0.3546 -1.8746 -1.5951
  176SOPE  H12Y20077   5.544   2.138   9.057 -0.4505  0.9142 -1.3384
  176SOPE  C31320078   5.753   2.070   9.024  0.0471  0.7035  0.5150
  176SOPE  H13X20079   5.794   2.037   9.122  3.7046  2.2600 -0.3242
  176SOPE  H13Y20080   5.842   2.115   8.975  1.1675 -1.4291  0.4962
  176SOPE  C31420081   5.711   1.959   8.928  0.6273  1.0620  0.1601
  176SOPE  H14X20082   5.686   2.007   8.831  2.7525  0.4705 -0.7332
  176SOPE  H14Y20083   5.618   1.912   8.967  0.5020  0.2420 -1.0573
  176SOPE  C31520084   5.817   1.854   8.901  0.4321 -0.1344 -0.2917
  176SOPE  H15X20085   5.842   1.804   8.997  2.3799  1.2639 -0.0101
  176SOPE  H15Y20086   5.908   1.909   8.869 -0.0799  1.0327  0.2172
  176SOPE  C31620087   5.768   1.747   8.804  1.0555  0.2456  0.1076
  176SOPE  H16X20088   5.664   1.773   8.775  0.4744 -1.3570  0.6771
  176SOPE  H16Y20089   5.756   1.646   8.847 -3.6783 -0.1560 -1.5896
  176SOPE  C31720090   5.852   1.712   8.680 -0.7848  0.1343  0.2735
  176SOPE  H17X20091   5.858   1.810   8.628 -2.2066  0.0867 -0.0342
  176SOPE  H17Y20092   5.792   1.644   8.616 -0.1018  1.0333 -1.3941
  176SOPE  C31820093   5.994   1.669   8.712  0.5173  0.5624  0.3027
  176SOPE  H18X20094   6.005   1.588   8.788  0.2336 -0.1211 -0.3709
  176SOPE  H18Y20095   6.050   1.760   8.744 -0.8112  1.0656  1.2810
  176SOPE  H18Z20096   6.032   1.635   8.614  0.1185 -1.5276  0.8228
  177SOPE     N20097   5.264   6.582  10.728 -0.3104 -0.0326  0.5478
  177SOPE   HN120098   5.344   6.621  10.782 -0.5691  3.4113 -1.2916
  177SOPE   HN220099   5.226   6.486  10.740  0.0745 -0.4265 -1.1131
  177SOPE   HN320100   5.301   6.578  10.630 -0.8538 -1.7885  0.3695
  177SOPE   C1220101   5.158   6.683  10.721  0.0289 -0.6315 -0.0155
  177SOPE  H12A20102   5.076   6.652  10.651 -2.3749  0.3816  2.2113
  177SOPE  H12B20103   5.194   6.781  10.683 -0.4194 -0.4997 -0.1010
  177SOPE   C1120104   5.093   6.695  10.865  0.6734  0.5298  0.3063
  177SOPE  H11A20105   5.014   6.772  10.854 -0.1268  0.0120  2.0904
  177SOPE  H11B20106   5.173   6.712  10.940 -1.0727 -1.4592  2.7526
  177SOPE     P20107   4.885   6.528  10.867 -0.3652 -0.0917  0.4065
  177SOPE   O1320108   4.814   6.509  10.996  0.0552 -0.2791  0.1510
  177SOPE   O1420109   4.881   6.412  10.773 -0.5032  0.1654 -0.0511
  177SOPE   O1220110   5.038   6.571  10.894  0.5647 -0.3350  0.0967
  177SOPE   O1120111   4.823   6.655  10.798 -0.0826 -0.0033 -0.8334
  177SOPE    C120112   4.695   6.649  10.736  0.4722 -0.1503  0.5089
  177SOPE    HA20113   4.623   6.698  10.805 -1.8286  0.1320 -1.9468
  177SOPE    HB20114   4.654   6.549  10.711 -0.7920  0.7650 -1.3891
  177SOPE    C220115   4.703   6.720  10.601 -0.4697 -0.2211  0.2294
  177SOPE    HS20116   4.608   6.722  10.543  0.3493 -2.6782 -1.3365
  177SOPE   O2120117   4.816   6.667  10.518  0.4251  0.4297 -0.1450
  177SOPE   C2120118   4.804   6.542  10.475 -0.2463 -0.4022 -0.1142
  177SOPE   O2220119   4.699   6.479  10.463 -0.3645 -0.1048 -0.4713
  177SOPE   C2220120   4.946   6.495  10.435 -0.6656  0.5426 -0.6308
  177SOPE   H2R20121   4.931   6.404  10.372  0.8427  0.7325 -1.3221
  177SOPE   H2S20122   5.015   6.470  10.518 -0.8628 -0.2169 -0.6917
  177SOPE    C320123   4.732   6.869  10.632 -0.3494 -0.0488  0.1375
  177SOPE    HX20124   4.822   6.863  10.698 -0.4085 -0.6143  0.1710
  177SOPE    HY20125   4.641   6.914  10.677 -0.5251 -0.3233  0.0534
  177SOPE   O3120126   4.777   6.934  10.513 -0.7826 -0.0159  0.1442
  177SOPE   C3120127   4.682   6.949  10.417 -0.2174 -0.6003  0.1809
  177SOPE   O3220128   4.565   6.916  10.429 -0.2748  0.3318 -0.2131
  177SOPE   C3220129   4.759   6.982  10.284  0.3887 -0.9660  0.1193
  177SOPE   H2X20130   4.813   6.895  10.242 -0.3630 -1.4627  0.1659
  177SOPE   H2Y20131   4.838   7.055  10.313 -0.1361 -1.1826  2.3274
  177SOPE   C2320132   5.019   6.601  10.344  0.1760  0.6279  0.3920
  177SOPE   H3R20133   5.122   6.574  10.313  0.1897 -0.5767  1.4004
  177SOPE   H3S20134   5.021   6.700  10.395 -0.2899  0.7362  0.2097
  177SOPE   C2420135   4.937   6.632  10.211 -0.0677 -0.3984  0.3007
  177SOPE   H4R20136   4.905   6.537  10.162 -1.2694 -0.3436  0.9195
  177SOPE   H4S20137   4.841   6.674  10.248  0.2051  1.0923 -0.6368
  177SOPE   C2520138   5.017   6.717  10.116 -0.0915  0.2570  0.3250
  177SOPE   H5R20139   5.036   6.819  10.156 -2.0350  1.3839 -1.4073
  177SOPE   H5S20140   5.112   6.661  10.097  1.1305  2.3032  0.0342
  177SOPE   C2620141   4.951   6.736   9.983 -0.1193  0.0709  0.0683
  177SOPE   H6R20142   4.935   6.636   9.937 -3.5092  0.3027  0.5259
  177SOPE   H6S20143   4.849   6.775  10.000 -0.4328 -1.0917  0.9852
  177SOPE   C2720144   5.030   6.822   9.880  0.0042  0.1900 -0.1600
  177SOPE   H7R20145   4.977   6.920   9.874 -0.9658 -0.2116  1.3031
  177SOPE   H7S20146   5.131   6.836   9.924  0.1395  0.5999 -0.5951
  177SOPE   C2820147   5.059   6.752   9.747 -0.1333  0.1809  0.8499
  177SOPE   H8R20148   5.096   6.648   9.758  1.0823  0.3975 -0.7437
  177SOPE   H8S20149   4.967   6.743   9.686  0.0448  0.6925  0.4908
  177SOPE   C2920150   5.156   6.832   9.664  0.0320 -0.2240 -0.5683
  177SOPE   H9120151   5.256   6.850   9.705  0.8833 -0.3309 -2.4900
  177SOPE  C21020152   5.144   6.877   9.541 -0.3776 -0.8798 -0.0700
  177SOPE  H10120153   5.233   6.917   9.490 -0.5341  1.1828  1.1341
  177SOPE  C21120154   5.027   6.860   9.461  0.4254  0.0450 -0.1478
  177SOPE  H11R20155   4.963   6.950   9.460 -1.2590 -1.1051 -1.1871
  177SOPE  H11S20156   4.962   6.771   9.476 -0.2308  0.5998  0.3024
  177SOPE  C21220157   5.083   6.838   9.314 -0.2793  0.0493  0.6541
  177SOPE  H12R20158   4.996   6.809   9.250  1.2267 -0.6897 -1.1518
  177SOPE  H12S20159   5.160   6.759   9.301 -0.7792 -0.5302  1.1908
  177SOPE  C21320160   5.133   6.962   9.241 -0.0156 -0.5234 -0.2889
  177SOPE  H13R20161   5.208   7.021   9.298 -1.5413  1.7369 -0.5335
  177SOPE  H13S20162   5.043   7.026   9.239 -0.1962 -0.6139  2.0109
  177SOPE  C21420163   5.193   6.941   9.099  0.5166  0.3516 -0.1406
  177SOPE  H14R20164   5.117   6.895   9.032  1.4880 -1.1566 -0.2602
  177SOPE  H14S20165   5.275   6.866   9.109  0.0824 -0.1756 -0.4871
  177SOPE  C21520166   5.245   7.077   9.035 -0.2346 -0.5212 -0.2047
  177SOPE  H15R20167   5.323   7.116   9.104 -1.1524 -1.4440  1.4185
  177SOPE  H15S20168   5.170   7.153   9.006  1.3290  0.6784 -1.3115
  177SOPE  C21620169   5.312   7.056   8.894  0.5461 -1.1180 -0.4061
  177SOPE  H16R20170   5.241   7.012   8.821  0.2569 -0.3443 -0.6010
  177SOPE  H16S20171   5.395   6.986   8.917  2.4492  1.7718  2.4113
  177SOPE  C21720172   5.373   7.183   8.832  0.1888 -0.4613 -0.5060
  177SOPE  H17R20173   5.423   7.238   8.914  0.6030  0.0598 -1.0932
  177SOPE  H17S20174   5.295   7.249   8.787 -0.5878 -1.1543 -0.2087
  177SOPE  C21820175   5.476   7.148   8.729 -0.1023 -0.7518  0.0734
  177SOPE  H18R20176   5.526   7.242   8.696 -1.6780  0.4920  1.1034
  177SOPE  H18S20177   5.429   7.092   8.645 -3.4124 -0.2728  1.4394
  177SOPE  H18T20178   5.556   7.086   8.775 -0.7597 -0.9263  1.0079
  177SOPE   C3320179   4.678   7.054  10.173  0.0589 -0.7387 -0.3896
  177SOPE   H3X20180   4.611   7.132  10.215  1.4838  0.9022 -1.0061
  177SOPE   H3Y20181   4.607   6.976  10.141  0.3912 -1.4146  0.4732
  177SOPE   C3420182   4.768   7.108  10.058  0.1764 -0.3496 -0.5895
  177SOPE   H4X20183   4.824   7.021  10.016 -0.0716 -0.8057  0.0094
  177SOPE   H4Y20184   4.834   7.188  10.097 -1.0845  0.4044  0.0527
  177SOPE   C3520185   4.695   7.154   9.930  0.6770  0.4925 -1.1204
  177SOPE   H5X20186   4.680   7.263   9.945  1.7623  0.6190 -0.8720
  177SOPE   H5Y20187   4.594   7.106   9.923  2.0992 -3.4364  1.6516
  177SOPE   C3620188   4.777   7.128   9.800  0.2548 -0.7269 -0.8425
  177SOPE   H6X20189   4.794   7.018   9.793 -0.4154 -1.0031  1.0997
  177SOPE   H6Y20190   4.875   7.179   9.806  0.3136 -0.8299 -0.9248
  177SOPE   C3720191   4.700   7.174   9.671  0.1777  0.1263 -1.3011
  177SOPE   H7X20192   4.699   7.285   9.676 -0.4745  0.0823 -0.1248
  177SOPE   H7Y20193   4.598   7.129   9.673  0.1598  0.1871 -0.9237
  177SOPE   C3820194   4.764   7.131   9.535  0.2638 -0.3769  0.2445
  177SOPE   H8X20195   4.792   7.023   9.530  0.8724 -0.3426  1.9973
  177SOPE   H8Y20196   4.858   7.187   9.517  0.2316 -0.7719 -1.2734
  177SOPE   C3920197   4.681   7.161   9.404  0.1317  0.7543 -0.2823
  177SOPE   H9X20198   4.658   7.269   9.414  1.5299  0.8542  4.8796
  177SOPE   H9Y20199   4.589   7.100   9.410  0.9511 -0.4773  0.4397
  177SOPE  C31020200   4.770   7.131   9.284 -0.5812 -0.4633 -1.0220
  177SOPE  H10X20201   4.799   7.024   9.296  2.4059  0.4767  1.3319
  177SOPE  H10Y20202   4.860   7.194   9.300 -1.2738  0.5902 -1.2175
  177SOPE  C31120203   4.704   7.171   9.154 -0.1585 -0.7577 -0.6281
  177SOPE  H11X20204   4.664   7.275   9.158 -0.4139 -0.8443 -0.8942
  177SOPE  H11Y20205   4.622   7.098   9.139 -0.4350 -0.5654 -0.0848
  177SOPE  C31220206   4.800   7.163   9.040  0.3778 -0.1829 -0.5323
  177SOPE  H12X20207   4.833   7.057   9.027 -3.2988 -1.1899 -3.7641
  177SOPE  H12Y20208   4.895   7.218   9.056  1.0718 -1.1438 -1.1785
  177SOPE  C31320209   4.730   7.200   8.907  0.0089 -0.6225  0.0369
  177SOPE  H13X20210   4.670   7.293   8.916  1.8619  0.5369  1.2869
  177SOPE  H13Y20211   4.650   7.123   8.897  0.3339 -1.2618  1.9041
  177SOPE  C31420212   4.830   7.212   8.790 -0.1971 -0.3175  0.3101
  177SOPE  H14X20213   4.902   7.129   8.776  1.2649  1.3086 -3.0476
  177SOPE  H14Y20214   4.885   7.306   8.814  0.0514 -0.4787  0.3732
  177SOPE  C31520215   4.770   7.229   8.655  0.5380  0.2365  0.1522
  177SOPE  H15X20216   4.843   7.249   8.573  0.6129  0.4558  0.2714
  177SOPE  H15Y20217   4.716   7.326   8.650  0.6718  0.2875 -0.4306
  177SOPE  C31620218   4.683   7.112   8.604  0.7536 -0.1050  0.6490
  177SOPE  H16X20219   4.598   7.108   8.676  0.2314 -0.7794  0.0183
  177SOPE  H16Y20220   4.741   7.019   8.618 -0.0238 -0.7928 -0.5332
  177SOPE  C31720221   4.633   7.128   8.455  0.1008  0.1344  0.0848
  177SOPE  H17X20222   4.721   7.156   8.393  1.3962  1.5912  2.4434
  177SOPE  H17Y20223   4.568   7.218   8.451 -0.4970 -0.3284 -1.0676
  177SOPE  C31820224   4.592   6.993   8.407 -0.1493 -0.1563 -0.3454
  177SOPE  H18X20225   4.679   6.924   8.403  0.7179  0.7342  1.7083
  177SOPE  H18Y20226   4.570   6.992   8.298 -0.8550  0.7454 -0.2247
  177SOPE  H18Z20227   4.519   6.937   8.468  1.0762 -0.6593  0.7033
  178SOPE     N20228   1.912   6.654  10.918 -0.1230 -0.3823 -0.5699
  178SOPE   HN120229   1.838   6.600  10.868 -1.2952 -0.2709  0.9750
  178SOPE   HN220230   1.925   6.620  11.015  0.2206  0.3524 -0.3525
  178SOPE   HN320231   1.882   6.753  10.930  0.1778 -0.2227 -1.1101
  178SOPE   C1220232   2.035   6.638  10.841  0.0800 -0.3784  0.0890
  178SOPE  H12A20233   2.097   6.552  10.875 -0.8955 -1.1374  0.0001
  178SOPE  H12B20234   2.103   6.724  10.859 -0.4229 -0.0689  0.5688
  178SOPE   C1120235   2.007   6.628  10.691 -0.1635  0.4291  0.2533
  178SOPE  H11A20236   2.101   6.601  10.638 -1.2605  2.0126 -2.8089
  178SOPE  H11B20237   1.967   6.721  10.643  1.6228  0.6433 -0.9158
  178SOPE     P20238   1.893   6.466  10.527  0.3462 -0.2558 -0.0766
  178SOPE   O1320239   1.761   6.398  10.509  0.2616 -0.0739  0.4856
  178SOPE   O1420240   2.010   6.385  10.491 -0.3862 -0.1784  0.5077
  178SOPE   O1220241   1.908   6.521  10.675 -0.2103 -0.4191  0.5367
  178SOPE   O1120242   1.892   6.606  10.455 -0.1342  0.3014 -0.1303
  178SOPE    C120243   1.771   6.684  10.433  0.3817  0.0892  0.2529
  178SOPE    HA20244   1.804   6.789  10.417  0.9945 -0.0703  0.4203
  178SOPE    HB20245   1.707   6.674  10.523 -1.8032  0.0407 -1.2309
  178SOPE    C220246   1.673   6.636  10.324  0.4548  0.4461  0.1204
  178SOPE    HS20247   1.676   6.525  10.332  0.8710  0.4280 -0.2522
  178SOPE   O2120248   1.708   6.686  10.195  0.1965 -0.3342  0.5654
  178SOPE   C2120249   1.764   6.590  10.115 -0.4473  0.4024  0.1781
  178SOPE   O2220250   1.777   6.470  10.142  0.2778 -0.9055  0.6742
  178SOPE   C2220251   1.800   6.658   9.982  0.8219 -0.3051 -0.8563
  178SOPE   H2R20252   1.904   6.692   9.995  0.5110  0.0458  0.9412
  178SOPE   H2S20253   1.733   6.745   9.965  0.3112 -0.8991 -2.0162
  178SOPE    C320254   1.523   6.680  10.353  0.5378 -0.0936  0.2600
  178SOPE    HX20255   1.528   6.789  10.331  1.7377  0.7833  4.0641
  178SOPE    HY20256   1.503   6.680  10.463  0.7429 -1.0368  0.3048
  178SOPE   O3120257   1.416   6.612  10.275 -0.1895 -0.4534  0.4310
  178SOPE   C3120258   1.392   6.487  10.316  0.2524 -0.1817  0.1279
  178SOPE   O3220259   1.447   6.430  10.411 -0.3147 -0.7801  0.4861
  178SOPE   C3220260   1.282   6.425  10.229 -0.3435  0.1966 -0.3579
  178SOPE   H2X20261   1.200   6.478  10.283  1.8878  2.2523  1.2860
  178SOPE   H2Y20262   1.285   6.315  10.238 -1.4778  0.1035 -0.9698
  178SOPE   C2320263   1.778   6.575   9.854  0.0899 -0.3591  0.0308
  178SOPE   H3R20264   1.674   6.600   9.825  0.3612 -0.8541 -1.4361
  178SOPE   H3S20265   1.799   6.467   9.871 -1.4565 -0.5825  0.7107
  178SOPE   C2420266   1.881   6.615   9.737  0.7321  0.5698 -0.3124
  178SOPE   H4R20267   1.897   6.724   9.729 -0.2465  0.7081 -0.5978
  178SOPE   H4S20268   1.981   6.569   9.746  0.6737 -0.1002 -2.6166
  178SOPE   C2520269   1.817   6.556   9.608  0.2126  0.0128  0.3276
  178SOPE   H5R20270   1.800   6.449   9.633 -1.5055  0.1270 -0.1821
  178SOPE   H5S20271   1.718   6.604   9.593  0.6311  0.3397 -1.6020
  178SOPE   C2620272   1.906   6.569   9.482  0.2611  0.6967 -0.4795
  178SOPE   H6R20273   1.916   6.674   9.448  1.9917  0.2532 -1.4730
  178SOPE   H6S20274   2.010   6.552   9.516 -0.2528 -0.2886  0.6582
  178SOPE   C2720275   1.866   6.475   9.362  0.0966  0.2259  0.6001
  178SOPE   H7R20276   1.944   6.484   9.283 -0.7556 -1.3109 -0.4737
  178SOPE   H7S20277   1.870   6.374   9.409 -1.3343  0.3450  1.0090
  178SOPE   C2820278   1.720   6.498   9.311 -0.7282 -0.0683  0.0414
  178SOPE   H8R20279   1.695   6.418   9.238 -0.8395  0.9285 -1.0457
  178SOPE   H8S20280   1.652   6.490   9.398 -0.6339 -1.9633 -0.0201
  178SOPE   C2920281   1.713   6.625   9.229  0.3582 -0.5345 -0.5483
  178SOPE   H9120282   1.693   6.719   9.282 -1.1425  1.2837 -4.0098
  178SOPE  C21020283   1.727   6.644   9.095  0.0275  0.6750 -0.8185
  178SOPE  H10120284   1.711   6.743   9.050 -0.2522  0.8351 -0.3700
  178SOPE  C21120285   1.757   6.531   8.999  0.6269  0.1363  0.2235
  178SOPE  H11R20286   1.666   6.500   8.941  0.1223  1.4261  0.2939
  178SOPE  H11S20287   1.802   6.441   9.047  2.6244  0.8355 -0.2736
  178SOPE  C21220288   1.860   6.582   8.892  0.0909  0.3173  0.0218
  178SOPE  H12R20289   1.955   6.622   8.934  0.0074  1.9356 -1.2353
  178SOPE  H12S20290   1.806   6.659   8.834  0.9404  0.1912 -0.9742
  178SOPE  C21320291   1.906   6.460   8.806 -0.3521  0.4052  0.6785
  178SOPE  H13R20292   1.935   6.494   8.704  0.9801 -0.1957  0.8371
  178SOPE  H13S20293   1.811   6.401   8.799  0.3982 -0.5754 -3.3172
  178SOPE  C21420294   2.016   6.381   8.877  0.2950  0.0235  0.0711
  178SOPE  H14R20295   1.979   6.366   8.981  0.0224  1.3544  0.1848
  178SOPE  H14S20296   2.115   6.430   8.871  0.5272 -0.4077  0.2885
  178SOPE  C21520297   2.016   6.243   8.819  0.2499  0.0005  0.3276
  178SOPE  H15R20298   1.921   6.190   8.841  0.1667  0.0812  0.1664
  178SOPE  H15S20299   2.093   6.181   8.870  0.3531  0.4545  0.7285
  178SOPE  C21620300   2.057   6.249   8.669 -0.2580 -0.0846  0.4645
  178SOPE  H16R20301   2.143   6.320   8.667 -1.1075  0.9695  0.4688
  178SOPE  H16S20302   1.978   6.300   8.610 -1.0304 -0.1927  1.3847
  178SOPE  C21720303   2.097   6.119   8.602  0.6236  0.8885  0.4022
  178SOPE  H17R20304   2.009   6.051   8.599  1.4838 -0.2388  0.1150
  178SOPE  H17S20305   2.161   6.059   8.670  0.3616 -1.3091 -1.1791
  178SOPE  C21820306   2.157   6.134   8.462  0.2142 -0.5532 -0.2369
  178SOPE  H18R20307   2.180   6.038   8.411 -0.2140 -0.2574 -1.0069
  178SOPE  H18S20308   2.259   6.178   8.469  0.1116 -0.5526  1.8687
  178SOPE  H18T20309   2.092   6.185   8.387 -1.5608  0.5113  1.9078
  178SOPE   C3320310   1.290   6.451  10.084  0.6213 -0.0796 -0.5036
  178SOPE   H3X20311   1.283   6.560  10.063  1.0897  0.7988  3.1660
  178SOPE   H3Y20312   1.193   6.420  10.040  0.1838 -1.1007  1.0915
  178SOPE   C3420313   1.416   6.386  10.014  0.1598 -0.3451 -0.5002
  178SOPE   H4X20314   1.438   6.286  10.058 -0.4920 -0.7746 -1.1374
  178SOPE   H4Y20315   1.499   6.460  10.018 -0.5506  0.4886 -0.9087
  178SOPE   C3520316   1.398   6.370   9.863 -0.2869 -0.6725  0.1306
  178SOPE   H5X20317   1.402   6.472   9.821 -0.2828 -0.6846  0.1011
  178SOPE   H5Y20318   1.300   6.320   9.843 -0.1081 -0.6957 -0.7017
  178SOPE   C3620319   1.512   6.285   9.807 -0.6962  0.1453 -0.0288
  178SOPE   H6X20320   1.538   6.195   9.867  3.3057  1.2520  0.2086
  178SOPE   H6Y20321   1.611   6.335   9.811 -0.4335 -0.3476 -0.2546
  178SOPE   C3720322   1.486   6.260   9.658  0.2684 -1.2873  0.0552
  178SOPE   H7X20323   1.472   6.358   9.608 -0.5253 -0.4396  1.8347
  178SOPE   H7Y20324   1.388   6.211   9.641 -0.0993 -0.8013  0.7122
  178SOPE   C3820325   1.599   6.188   9.586  0.3899 -0.3644 -0.0291
  178SOPE   H8X20326   1.627   6.086   9.622  0.1970 -0.7164 -0.8678
  178SOPE   H8Y20327   1.692   6.246   9.601 -1.6227  3.1024  0.0250
  178SOPE   C3920328   1.570   6.193   9.430 -0.2333  0.5532 -0.2169
  178SOPE   H9X20329   1.546   6.300   9.410  1.7805  0.8234 -1.5248
  178SOPE   H9Y20330   1.475   6.136   9.420  0.7429 -1.3112  0.7274
  178SOPE  C31020331   1.684   6.142   9.344 -0.2845 -0.2038 -0.2266
  178SOPE  H10X20332   1.711   6.038   9.373 -1.0143 -0.8797 -1.8054
  178SOPE  H10Y20333   1.775   6.205   9.352 -0.4869 -0.1368  2.1638
  178SOPE  C31120334   1.645   6.146   9.196 -0.1361 -0.4203 -0.4664
  178SOPE  H11X20335   1.617   6.242   9.146  1.8060 -0.3566 -1.5542
  178SOPE  H11Y20336   1.565   6.072   9.177 -0.4794  0.4096 -2.5936
  178SOPE  C31220337   1.759   6.109   9.100  0.2553 -0.3531  0.9240
  178SOPE  H12X20338   1.813   6.027   9.152  1.8382  0.4348  0.5576
  178SOPE  H12Y20339   1.825   6.196   9.083 -0.5849  0.1404  0.0348
  178SOPE  C31320340   1.706   6.052   8.966  0.1313 -0.2798  0.0306
  178SOPE  H13X20341   1.639   5.970   9.000 -2.4026  1.6017 -0.1588
  178SOPE  H13Y20342   1.784   6.006   8.901 -0.2969 -0.9837  0.0062
  178SOPE  C31420343   1.640   6.147   8.870 -0.8106 -0.1939 -0.9616
  178SOPE  H14X20344   1.698   6.241   8.884 -0.2846 -0.7739  0.9960
  178SOPE  H14Y20345   1.535   6.164   8.903 -0.3637 -0.2816  0.5675
  178SOPE  C31520346   1.640   6.101   8.731  0.9890 -0.7024  0.6063
  178SOPE  H15X20347   1.612   5.993   8.723  1.3795 -0.8347  0.9804
  178SOPE  H15Y20348   1.741   6.113   8.686  0.3801  2.6565 -0.0757
  178SOPE  C31620349   1.534   6.185   8.650 -0.6840  0.2923  0.6930
  178SOPE  H16X20350   1.519   6.285   8.696 -0.1271 -1.3272  4.8935
  178SOPE  H16Y20351   1.435   6.136   8.654 -0.9767  0.8414  0.3814
  178SOPE  C31720352   1.580   6.202   8.505 -0.4551 -0.3455 -0.9486
  178SOPE  H17X20353   1.497   6.233   8.439 -1.7311 -0.8673  0.3728
  178SOPE  H17Y20354   1.600   6.102   8.459 -1.1456 -0.2157 -1.5472
  178SOPE  C31820355   1.713   6.285   8.478  0.6358  0.6941  0.0615
  178SOPE  H18X20356   1.700   6.392   8.505 -3.3467  0.7010 -1.2170
  178SOPE  H18Y20357   1.736   6.273   8.370 -0.7935 -1.2892 -0.0813
  178SOPE  H18Z20358   1.786   6.235   8.545  0.9167  1.8081  0.6021
  179SOPE     N20359   4.279   0.204   6.219  0.1748  0.3038 -0.1466
  179SOPE   HN120360   4.268   0.303   6.188  1.2381  0.2022 -0.8855
  179SOPE   HN220361   4.371   0.168   6.187 -0.2399  0.5112 -1.6552
  179SOPE   HN320362   4.207   0.149   6.169 -0.0834  1.3390 -0.9492
  179SOPE   C1220363   4.267   0.174   6.368 -0.3510 -0.0430  0.1057
  179SOPE  H12A20364   4.355   0.220   6.418 -0.0394 -1.0084  0.4782
  179SOPE  H12B20365   4.279   0.065   6.387 -0.1080 -0.0920 -0.3119
  179SOPE   C1120366   4.132   0.227   6.412  1.1471  0.0209 -1.1067
  179SOPE  H11A20367   4.129   0.338   6.421  1.9801 -0.1253  2.6285
  179SOPE  H11B20368   4.113   0.193   6.516 -0.9905 -1.3598 -1.8799
  179SOPE     P20369   3.917   0.075   6.381 -0.2674  0.3379  0.0071
  179SOPE   O1320370   3.886  -0.018   6.271 -0.0459  0.4572  0.4277
  179SOPE   O1420371   3.808   0.157   6.444  0.2581  0.5560  0.3368
  179SOPE   O1220372   4.026   0.177   6.326  0.0055  0.4659  0.2590
  179SOPE   O1120373   4.000   0.002   6.489 -0.3947  0.0377  0.1573
  179SOPE    C120374   3.977   0.011   6.634 -0.0401 -0.1765  0.8093
  179SOPE    HA20375   3.870   0.039   6.651 -0.1051 -0.3403  0.6774
  179SOPE    HB20376   4.047   0.084   6.679  0.0039  1.7376 -2.0720
  179SOPE    C220377   4.007  -0.115   6.712 -0.0783  0.1755 -0.1814
  179SOPE    HS20378   4.029  -0.085   6.817  0.3361  2.2907 -0.8252
  179SOPE   O2120379   4.119  -0.184   6.660  0.3429 -0.2122 -0.2322
  179SOPE   C2120380   4.235  -0.121   6.656 -0.1493 -0.0636  0.1414
  179SOPE   O2220381   4.255  -0.005   6.699  0.2663  0.9000  0.3466
  179SOPE   C2220382   4.346  -0.221   6.612  0.1919  0.5648  0.3354
  179SOPE   H2R20383   4.414  -0.165   6.544  1.4731 -2.2936 -0.8785
  179SOPE   H2S20384   4.292  -0.299   6.555  0.1655  0.5470  0.3850
  179SOPE    C320385   3.888  -0.213   6.727 -0.3634  0.7071  0.7183
  179SOPE    HX20386   3.854  -0.259   6.632 -2.3115  1.0909  1.1842
  179SOPE    HY20387   3.802  -0.149   6.752 -1.3749  0.5876 -2.1037
  179SOPE   O3120388   3.911  -0.315   6.822  0.3891 -0.2435  0.8585
  179SOPE   C3120389   3.955  -0.428   6.786 -0.3756  0.3097 -0.6793
  179SOPE   O3220390   3.974  -0.467   6.672  0.9356 -0.1794 -0.3075
  179SOPE   C3220391   3.974  -0.523   6.908  0.2090  0.5370  0.0577
  179SOPE   H2X20392   4.083  -0.542   6.918  0.5718  2.3610 -0.0872
  179SOPE   H2Y20393   3.911  -0.613   6.888 -0.2276  1.0548 -0.9624
  179SOPE   C2320394   4.436  -0.274   6.733  0.4112 -0.0520  0.4929
  179SOPE   H3R20395   4.468  -0.184   6.789  0.0656 -1.3457  2.9135
  179SOPE   H3S20396   4.522  -0.321   6.682 -1.4647 -1.1646 -1.8472
  179SOPE   C2420397   4.372  -0.381   6.817 -0.3282 -0.1133  0.7045
  179SOPE   H4R20398   4.270  -0.354   6.853 -0.1370 -0.4830  1.5521
  179SOPE   H4S20399   4.361  -0.476   6.759  1.6961 -1.1510  1.9220
  179SOPE   C2520400   4.454  -0.414   6.941 -0.4493 -0.1332  0.2508
  179SOPE   H5R20401   4.428  -0.513   6.986 -0.1238 -0.7370 -0.8344
  179SOPE   H5S20402   4.564  -0.404   6.925 -0.4406  1.2891  1.0671
  179SOPE   C2620403   4.427  -0.302   7.052 -0.2542  0.3872  0.2176
  179SOPE   H6R20404   4.463  -0.201   7.025  1.2408 -0.9117 -3.2639
  179SOPE   H6S20405   4.318  -0.307   7.077 -0.4864  0.0955 -0.7908
  179SOPE   C2720406   4.498  -0.340   7.184 -0.3456  0.2700 -0.0969
  179SOPE   H7R20407   4.485  -0.446   7.214 -1.1311  0.0665 -1.0987
  179SOPE   H7S20408   4.607  -0.319   7.183 -0.6116  1.8689  0.5546
  179SOPE   C2820409   4.446  -0.269   7.310 -0.9260 -0.3301 -0.2156
  179SOPE   H8R20410   4.522  -0.251   7.389 -0.3866  1.0366 -1.0159
  179SOPE   H8S20411   4.412  -0.167   7.283 -1.2129 -0.1371  0.8544
  179SOPE   C2920412   4.331  -0.332   7.377 -0.5001  0.2561 -0.1493
  179SOPE   H9120413   4.237  -0.293   7.337 -2.0702  1.4349  4.1515
  179SOPE  C21020414   4.338  -0.423   7.478 -0.3259  0.4893  0.1932
  179SOPE  H10120415   4.244  -0.464   7.516  0.3169 -1.0052  0.2673
  179SOPE  C21120416   4.458  -0.482   7.540 -0.0373  0.3453 -0.0445
  179SOPE  H11R20417   4.550  -0.461   7.481  0.6088 -4.1897 -0.9757
  179SOPE  H11S20418   4.451  -0.593   7.537  0.0224  0.3529 -1.5908
  179SOPE  C21220419   4.466  -0.457   7.696 -0.0222 -0.7935  0.1860
  179SOPE  H12R20420   4.465  -0.347   7.715  0.4228 -1.0035  1.5460
  179SOPE  H12S20421   4.560  -0.508   7.723  0.6278  0.4307  0.2982
  179SOPE  C21320422   4.349  -0.522   7.771  0.2390 -0.8674  0.8479
  179SOPE  H13R20423   4.333  -0.625   7.735 -0.6552 -0.4966  0.1640
  179SOPE  H13S20424   4.263  -0.462   7.734  1.5138  1.1190  0.9059
  179SOPE  C21420425   4.352  -0.519   7.924  0.3097 -0.1958 -0.4693
  179SOPE  H14R20426   4.267  -0.561   7.982 -0.4670  4.2162  2.0936
  179SOPE  H14S20427   4.356  -0.411   7.951  0.9407  0.3153 -2.4906
  179SOPE  C21520428   4.479  -0.592   7.982  0.4628  0.4940  0.1304
  179SOPE  H15R20429   4.569  -0.531   7.960 -0.3246  1.3027 -0.9687
  179SOPE  H15S20430   4.496  -0.686   7.926 -0.4550  1.6037 -2.1528
  179SOPE  C21620431   4.486  -0.627   8.127 -0.0744 -0.0012 -0.4992
  179SOPE  H16R20432   4.543  -0.720   8.149 -0.5638 -0.9635 -2.9566
  179SOPE  H16S20433   4.384  -0.638   8.168 -0.6227 -1.1906 -2.0811
  179SOPE  C21720434   4.552  -0.515   8.214 -0.0229  0.0187 -0.4304
  179SOPE  H17R20435   4.488  -0.424   8.207 -2.1049 -1.2436  0.8442
  179SOPE  H17S20436   4.649  -0.500   8.163  0.6047 -1.8949  0.1301
  179SOPE  C21820437   4.564  -0.558   8.360  0.6824 -0.1594 -0.0032
  179SOPE  H18R20438   4.619  -0.483   8.420  0.9331 -0.6965  0.4415
  179SOPE  H18S20439   4.618  -0.653   8.381 -1.6051 -1.8486 -1.2758
  179SOPE  H18T20440   4.461  -0.554   8.403 -0.0195  1.3823 -1.6842
  179SOPE   C3320441   3.932  -0.474   7.047  0.0154 -0.3755  0.6405
  179SOPE   H3X20442   3.824  -0.447   7.046  0.4109  1.3912 -0.6501
  179SOPE   H3Y20443   3.974  -0.373   7.066  1.2161 -1.1555  2.2759
  179SOPE   C3420444   3.976  -0.575   7.143  0.2497  0.7137 -0.2210
  179SOPE   H4X20445   3.983  -0.679   7.103 -1.1982 -0.2884  1.9136
  179SOPE   H4Y20446   3.908  -0.596   7.228  1.2665 -0.1963  0.3926
  179SOPE   C3520447   4.104  -0.554   7.220 -0.1630  0.1533 -0.2435
  179SOPE   H5X20448   4.103  -0.453   7.266  1.3866  0.4854 -0.8668
  179SOPE   H5Y20449   4.192  -0.556   7.152  1.7544  4.4118  1.7338
  179SOPE   C3620450   4.132  -0.669   7.323 -0.5931 -0.2938 -0.4551
  179SOPE   H6X20451   4.235  -0.645   7.358 -0.5847  0.3352 -0.8941
  179SOPE   H6Y20452   4.112  -0.763   7.267 -1.2753  0.4132 -1.4512
  179SOPE   C3720453   4.039  -0.664   7.445 -1.1562  0.3025 -0.0779
  179SOPE   H7X20454   3.938  -0.689   7.406 -1.6809 -2.1110  2.5059
  179SOPE   H7Y20455   4.036  -0.555   7.461 -1.1973  0.2923 -0.0212
  179SOPE   C3820456   4.081  -0.744   7.576 -0.2290 -0.2133 -0.4779
  179SOPE   H8X20457   4.175  -0.703   7.617  0.4305  0.9153 -2.9673
  179SOPE   H8Y20458   4.093  -0.847   7.536 -1.6626 -0.5550 -0.1078
  179SOPE   C3920459   3.975  -0.748   7.696  0.0972  0.1365 -0.2567
  179SOPE   H9X20460   3.890  -0.818   7.677  0.5491 -0.8205  1.1029
  179SOPE   H9Y20461   3.951  -0.640   7.706 -0.5696  0.0100 -0.4114
  179SOPE  C31020462   4.033  -0.788   7.832 -0.1299  0.4603  0.3947
  179SOPE  H10X20463   4.098  -0.700   7.853 -0.8259  1.0885 -0.0261
  179SOPE  H10Y20464   4.088  -0.884   7.823  0.3229  0.8101 -0.8396
  179SOPE  C31120465   3.923  -0.792   7.934  0.2410  0.0950  0.6941
  179SOPE  H11X20466   3.838  -0.862   7.916 -1.4484  2.3047 -0.4674
  179SOPE  H11Y20467   3.871  -0.694   7.942 -0.6171 -0.1396 -1.2381
  179SOPE  C31220468   3.974  -0.828   8.075 -0.3481  0.2937 -0.1276
  179SOPE  H12X20469   4.072  -0.775   8.086  0.5787 -0.5418 -3.2913
  179SOPE  H12Y20470   4.004  -0.935   8.066  0.1969  0.4654 -0.3870
  179SOPE  C31320471   3.883  -0.798   8.190 -0.0655  0.8324 -0.0397
  179SOPE  H13X20472   3.798  -0.869   8.192  0.3336  0.3111 -0.9557
  179SOPE  H13Y20473   3.845  -0.694   8.200  0.7807  1.2101 -0.5295
  179SOPE  C31420474   3.962  -0.842   8.314 -0.0103 -0.2563  0.0667
  179SOPE  H14X20475   4.056  -0.782   8.319  0.3995 -0.9318  0.6261
  179SOPE  H14Y20476   3.981  -0.951   8.320  1.7531  0.0874  1.9760
  179SOPE  C31520477   3.897  -0.809   8.453  0.2776 -0.5589 -0.4112
  179SOPE  H15X20478   3.802  -0.861   8.476 -0.4134  2.0544  3.6225
  179SOPE  H15Y20479   3.889  -0.699   8.463  0.5195 -0.6264  0.5614
  179SOPE  C31620480   3.985  -0.852   8.571  0.1754  0.3404  0.7712
  179SOPE  H16X20481   4.080  -0.800   8.544 -1.5513  3.6692  0.5463
  179SOPE  H16Y20482   4.006  -0.961   8.569  2.1243  0.6628 -0.6073
  179SOPE  C31720483   3.937  -0.795   8.702 -0.6022  0.5987 -0.3708
  179SOPE  H17X20484   3.844  -0.844   8.738 -0.2034  1.5876  2.2887
  179SOPE  H17Y20485   3.926  -0.684   8.695  0.0282  0.8329  1.6009
  179SOPE  C31820486   4.027  -0.816   8.831  0.0607  0.7210 -0.3145
  179SOPE  H18X20487   3.976  -0.770   8.919  0.6366 -1.0011  0.9826
  179SOPE  H18Y20488   4.122  -0.764   8.809  0.0299  1.5753  1.3744
  179SOPE  H18Z20489   4.046  -0.924   8.847  1.2345  0.7290 -1.5133
  180SOPE     N20490   4.007   1.851   6.432 -0.7563  0.0210  0.3786
  180SOPE   HN120491   3.948   1.774   6.395  0.2533  0.2149 -1.7852
  180SOPE   HN220492   3.973   1.889   6.523  1.0057  2.3511  0.1618
  180SOPE   HN320493   4.007   1.924   6.358 -1.7524 -0.2730  0.0755
  180SOPE   C1220494   4.145   1.817   6.447  0.4338  0.3614  0.0352
  180SOPE  H12A20495   4.155   1.735   6.521  0.7879 -0.8315 -1.3010
  180SOPE  H12B20496   4.202   1.906   6.483 -2.3591  2.9936 -1.5985
  180SOPE   C1120497   4.211   1.781   6.311  0.2382  0.3514 -1.0107
  180SOPE  H11A20498   4.319   1.759   6.320  0.9417  2.7159 -2.7586
  180SOPE  H11B20499   4.204   1.871   6.246  1.7892  0.5010 -1.0017
  180SOPE     P20500   4.157   1.524   6.278  0.2953  0.1085  0.1040
  180SOPE   O1320501   4.293   1.481   6.254 -0.1670 -0.4113 -0.2889
  180SOPE   O1420502   4.046   1.454   6.205  0.5818  0.4999 -0.4481
  180SOPE   O1220503   4.148   1.671   6.240  0.3107  0.3007  0.1869
  180SOPE   O1120504   4.122   1.534   6.434 -0.1196  0.5470 -0.2341
  180SOPE    C120505   4.032   1.440   6.494  0.2979  0.5101  0.6608
  180SOPE    HA20506   3.964   1.388   6.424 -1.2185  0.1398  2.3270
  180SOPE    HB20507   3.971   1.498   6.567  0.5032  0.1604  1.1177
  180SOPE    C220508   4.108   1.321   6.567 -0.0751 -0.0748 -0.1934
  180SOPE    HS20509   4.176   1.269   6.496 -0.3731 -2.2240  1.0091
  180SOPE   O2120510   4.008   1.233   6.624  0.0731 -0.2702  0.2801
  180SOPE   C2120511   3.971   1.132   6.546  0.3134  0.2088  0.0291
  180SOPE   O2220512   4.014   1.111   6.434  0.0605  0.1557 -0.1535
  180SOPE   C2220513   3.871   1.039   6.604 -0.0282  0.1729 -0.0493
  180SOPE   H2R20514   3.927   0.946   6.624  2.3191  1.2890 -1.0052
  180SOPE   H2S20515   3.791   1.014   6.531 -2.2388 -4.1252  3.3851
  180SOPE    C320516   4.197   1.367   6.680  0.3406  0.2972  0.5453
  180SOPE    HX20517   4.131   1.405   6.762  0.7053 -1.4735  1.7250
  180SOPE    HY20518   4.262   1.455   6.659  0.3791  0.5575  1.6610
  180SOPE   O3120519   4.289   1.257   6.718 -0.6206  0.1109  0.2139
  180SOPE   C3120520   4.312   1.254   6.854 -0.5345  0.3422  0.2577
  180SOPE   O3220521   4.243   1.307   6.933 -0.0442 -0.4487  0.2092
  180SOPE   C3220522   4.442   1.191   6.886  0.6498  0.0995 -0.5475
  180SOPE   H2X20523   4.517   1.271   6.905 -0.6219  0.5740  3.4495
  180SOPE   H2Y20524   4.472   1.127   6.800 -0.3722 -1.6277  0.3387
  180SOPE   C2320525   3.796   1.092   6.726 -0.2488  0.2756 -0.0886
  180SOPE   H3R20526   3.693   1.048   6.729 -0.2804  0.4016  1.1547
  180SOPE   H3S20527   3.778   1.201   6.720  2.3995  0.8631  1.3294
  180SOPE   C2420528   3.867   1.066   6.859  0.0958 -0.2417 -1.0672
  180SOPE   H4R20529   3.965   1.118   6.863  0.2200 -0.5226  1.1657
  180SOPE   H4S20530   3.801   1.117   6.933  0.3083 -1.4426  0.0105
  180SOPE   C2520531   3.885   0.919   6.892  0.7582  0.5706 -0.8082
  180SOPE   H5R20532   3.789   0.864   6.896  0.4683  1.0844 -0.6721
  180SOPE   H5S20533   3.952   0.877   6.814  2.5376 -0.0023  0.9583
  180SOPE   C2620534   3.961   0.895   7.024  0.4332 -1.2938  0.2279
  180SOPE   H6R20535   4.049   0.962   7.036  0.6712 -1.8656  2.0040
  180SOPE   H6S20536   3.899   0.937   7.106  0.9526 -2.0467  1.0217
  180SOPE   C2720537   3.994   0.748   7.045 -0.5072  0.2436 -0.0013
  180SOPE   H7R20538   3.927   0.684   6.985 -0.7569 -0.0485  0.5765
  180SOPE   H7S20539   4.086   0.723   6.989 -1.5083  0.3438 -1.7743
  180SOPE   C2820540   4.004   0.704   7.193 -0.1510 -0.4787  0.7857
  180SOPE   H8R20541   3.911   0.729   7.248 -0.5234  0.6101 -0.2923
  180SOPE   H8S20542   4.001   0.593   7.187 -0.3564 -0.4640  0.5857
  180SOPE   C2920543   4.137   0.757   7.247  0.0637  0.1584  1.1696
  180SOPE   H9120544   4.156   0.858   7.209  1.2589 -0.6697 -0.5234
  180SOPE  C21020545   4.236   0.689   7.307 -0.2948  0.1530  0.4632
  180SOPE  H10120546   4.334   0.737   7.319  0.4776 -0.7406 -1.7093
  180SOPE  C21120547   4.239   0.544   7.347  0.7677 -0.6189  0.5332
  180SOPE  H11R20548   4.317   0.489   7.290  0.2552 -2.3490  1.4238
  180SOPE  H11S20549   4.141   0.500   7.315  0.3837  0.7953 -0.3328
  180SOPE  C21220550   4.277   0.521   7.492  0.1792  0.0789  0.0751
  180SOPE  H12R20551   4.263   0.419   7.533  1.1699  0.9048  2.6623
  180SOPE  H12S20552   4.197   0.576   7.546 -0.2638 -0.0267 -0.4588
  180SOPE  C21320553   4.421   0.562   7.524 -0.3310 -0.2612 -0.2751
  180SOPE  H13R20554   4.431   0.670   7.500  0.3763 -0.1207  0.5850
  180SOPE  H13S20555   4.485   0.494   7.464  0.4491 -1.2353  1.5916
  180SOPE  C21420556   4.475   0.538   7.669  0.5911  0.2212  0.6025
  180SOPE  H14R20557   4.586   0.541   7.664  0.5964 -1.0248 -0.8021
  180SOPE  H14S20558   4.438   0.437   7.694  1.0202 -1.1651 -3.5143
  180SOPE  C21520559   4.420   0.640   7.766  0.3953  0.1347 -1.0383
  180SOPE  H15R20560   4.326   0.672   7.716 -0.2241 -2.3307 -1.6243
  180SOPE  H15S20561   4.494   0.722   7.776 -0.2304  0.4769  1.4869
  180SOPE  C21620562   4.392   0.587   7.908 -0.3295  0.5458  0.2676
  180SOPE  H16R20563   4.324   0.500   7.903  0.7391 -0.2465 -1.9528
  180SOPE  H16S20564   4.328   0.664   7.955 -1.0651  0.0559  0.0780
  180SOPE  C21720565   4.501   0.576   8.015 -0.0372 -0.0533  0.2561
  180SOPE  H17R20566   4.533   0.681   8.029 -1.3937  0.2807  1.1064
  180SOPE  H17S20567   4.588   0.513   7.984  0.4482  0.6282  0.2287
  180SOPE  C21820568   4.438   0.525   8.147  0.0785 -0.3505 -0.4814
  180SOPE  H18R20569   4.403   0.420   8.140  0.2907 -0.5149  0.8106
  180SOPE  H18S20570   4.362   0.592   8.193  2.4943  2.5482 -0.4037
  180SOPE  H18T20571   4.519   0.528   8.222 -0.0172  0.8791 -0.4036
  180SOPE   C3320572   4.433   1.094   7.006  0.1406 -0.3745 -0.1296
  180SOPE   H3X20573   4.512   1.017   6.993  0.2907  0.0848 -2.2777
  180SOPE   H3Y20574   4.337   1.037   7.006 -0.1280  0.0746 -0.1682
  180SOPE   C3420575   4.450   1.162   7.147 -0.2794 -0.0175 -0.6377
  180SOPE   H4X20576   4.370   1.237   7.166  0.8079  0.8558  0.6751
  180SOPE   H4Y20577   4.539   1.228   7.159 -0.1103 -0.5663  1.7019
  180SOPE   C3520578   4.440   1.069   7.263 -0.3849  0.0060  0.2112
  180SOPE   H5X20579   4.520   0.992   7.259  1.3652  1.8333 -1.2013
  180SOPE   H5Y20580   4.346   1.009   7.265 -0.5238  0.2356  0.5360
  180SOPE   C3620581   4.455   1.159   7.389  0.3150  0.2418 -0.1991
  180SOPE   H6X20582   4.378   1.240   7.386 -1.3869 -1.3096 -0.7907
  180SOPE   H6Y20583   4.559   1.193   7.404  0.3483  0.0855 -0.0761
  180SOPE   C3720584   4.418   1.077   7.513 -0.3656  0.6154  0.3457
  180SOPE   H7X20585   4.473   0.983   7.535 -1.2493 -0.5082 -1.9881
  180SOPE   H7Y20586   4.315   1.040   7.497 -0.6267  1.4481  0.0185
  180SOPE   C3820587   4.416   1.155   7.646 -0.1796 -0.4162 -0.0177
  180SOPE   H8X20588   4.341   1.234   7.626 -1.0678 -1.7427 -2.2143
  180SOPE   H8Y20589   4.514   1.204   7.667 -1.3388  1.0141  2.6669
  180SOPE   C3920590   4.390   1.062   7.757 -0.1296 -0.7540 -0.5722
  180SOPE   H9X20591   4.445   0.966   7.742  1.2857 -0.0392 -0.0963
  180SOPE   H9Y20592   4.286   1.026   7.768  0.4759 -1.8045  2.9802
  180SOPE  C31020593   4.423   1.131   7.893 -0.4948 -0.6072  0.3515
  180SOPE  H10X20594   4.371   1.072   7.971  0.1733 -1.3305  0.2507
  180SOPE  H10Y20595   4.369   1.229   7.893 -3.1604 -1.9746  0.7649
  180SOPE  C31120596   4.573   1.134   7.933 -0.6661  0.7404 -0.2834
  180SOPE  H11X20597   4.614   1.219   7.874  0.9365 -1.2229 -2.1923
  180SOPE  H11Y20598   4.631   1.041   7.913 -1.7829 -0.4397  1.6694
  180SOPE  C31220599   4.593   1.168   8.084  0.2785 -0.0680  0.5673
  180SOPE  H12X20600   4.546   1.083   8.139 -0.3999  1.1193  1.8983
  180SOPE  H12Y20601   4.535   1.262   8.092 -0.6439 -0.4568 -1.0829
  180SOPE  C31320602   4.744   1.177   8.135  0.0462 -0.7986  0.4431
  180SOPE  H13X20603   4.797   1.256   8.079 -1.8194 -0.7799 -1.4248
  180SOPE  H13Y20604   4.803   1.084   8.119  1.2370  0.3620 -2.4097
  180SOPE  C31420605   4.744   1.198   8.284 -0.1436 -0.5247  0.2251
  180SOPE  H14X20606   4.691   1.115   8.336 -0.3319 -1.8322 -1.9416
  180SOPE  H14Y20607   4.696   1.297   8.301 -0.0846 -0.4066 -0.2857
  180SOPE  C31520608   4.878   1.230   8.352 -0.6207  0.0161 -0.0998
  180SOPE  H15X20609   4.929   1.304   8.287  0.5819  0.9991  1.8713
  180SOPE  H15Y20610   4.938   1.137   8.361 -0.2392  0.1692 -1.0105
  180SOPE  C31620611   4.868   1.289   8.486 -0.0224 -0.1072 -0.4645
  180SOPE  H16X20612   4.820   1.388   8.495  0.9179  0.1944  1.6984
  180SOPE  H16Y20613   4.968   1.302   8.532 -0.5515  0.2106  0.6125
  180SOPE  C31720614   4.810   1.193   8.588  0.4108  0.1404  0.4198
  180SOPE  H17X20615   4.872   1.102   8.598 -2.0183 -1.5807  0.8844
  180SOPE  H17Y20616   4.711   1.164   8.547 -2.2345  4.5386  2.9136
  180SOPE  C31820617   4.797   1.247   8.731 -0.5137 -0.1330 -0.3062
  180SOPE  H18X20618   4.754   1.350   8.738 -2.1653 -0.7995 -0.0743
  180SOPE  H18Y20619   4.893   1.239   8.785 -0.3482 -3.9185 -0.9377
  180SOPE  H18Z20620   4.726   1.185   8.789 -0.9053  1.5796  1.1362
  181SOPE     N20621   5.359   4.026   6.148 -0.3913 -0.1904  0.1387
  181SOPE   HN120622   5.450   4.013   6.099  0.5144 -2.9240  2.2938
  181SOPE   HN220623   5.339   3.940   6.202  2.8495 -0.9343  0.3428
  181SOPE   HN320624   5.289   4.040   6.073 -0.5428 -0.5719  0.2092
  181SOPE   C1220625   5.358   4.140   6.241  0.5830 -0.1847  0.7522
  181SOPE  H12A20626   5.439   4.116   6.313 -0.0295 -0.6068  1.3021
  181SOPE  H12B20627   5.259   4.149   6.289  0.7804 -1.3969  1.4111
  181SOPE   C1120628   5.391   4.278   6.172 -0.1172 -0.1018 -0.4239
  181SOPE  H11A20629   5.498   4.281   6.140 -0.7245 -0.2067 -2.6642
  181SOPE  H11B20630   5.370   4.349   6.254  2.3262 -1.8528  1.8792
  181SOPE     P20631   5.260   4.442   6.014  0.5755  0.1396 -0.4696
  181SOPE   O1320632   5.145   4.431   5.928  0.1169  0.0717 -0.5192
  181SOPE   O1420633   5.379   4.507   5.953  0.1347 -0.1393 -0.0590
  181SOPE   O1220634   5.310   4.298   6.054  1.0263 -0.0480 -0.4989
  181SOPE   O1120635   5.216   4.508   6.144 -0.1647 -0.4783  0.1175
  181SOPE    C120636   5.116   4.466   6.237  0.3209 -0.1498 -0.1777
  181SOPE    HA20637   5.117   4.357   6.258 -0.4572 -0.0114  0.6092
  181SOPE    HB20638   5.019   4.478   6.185  0.0984  1.5617  0.5859
  181SOPE    C220639   5.122   4.539   6.372 -0.5523  0.9087  0.1801
  181SOPE    HS20640   5.120   4.644   6.337  1.4361  1.1141  0.5837
  181SOPE   O2120641   5.242   4.505   6.442 -0.3413 -0.2604  0.7216
  181SOPE   C2120642   5.350   4.577   6.413  0.5146  0.3628 -0.7081
  181SOPE   O2220643   5.352   4.673   6.339  0.2513 -0.0011 -0.3189
  181SOPE   C2220644   5.474   4.524   6.488 -0.2255 -0.4693 -0.4537
  181SOPE   H2R20645   5.535   4.466   6.415 -2.8419  0.0674 -3.3161
  181SOPE   H2S20646   5.440   4.455   6.568  1.4279 -0.8687 -0.0720
  181SOPE    C320647   5.007   4.499   6.464 -0.3276 -0.7280 -0.1531
  181SOPE    HX20648   5.012   4.389   6.477 -1.4194 -0.9150 -1.2208
  181SOPE    HY20649   4.919   4.524   6.402 -0.4625 -2.4241 -0.6802
  181SOPE   O3120650   5.000   4.575   6.585 -0.0334 -0.1045 -0.9344
  181SOPE   C3120651   5.066   4.519   6.688  0.4972  0.0223  0.3255
  181SOPE   O3220652   5.123   4.416   6.689 -0.2955 -0.2757 -0.5681
  181SOPE   C3220653   5.046   4.611   6.808 -0.0575 -0.3000  0.9433
  181SOPE   H2X20654   4.943   4.652   6.805  0.0705 -0.0075 -1.4415
  181SOPE   H2Y20655   5.124   4.690   6.800  1.2463 -1.6608 -0.4588
  181SOPE   C2320656   5.535   4.643   6.571 -0.3751 -0.0652  0.3205
  181SOPE   H3R20657   5.549   4.727   6.500 -0.1560  1.1633  1.7561
  181SOPE   H3S20658   5.638   4.628   6.611 -0.0952  1.1639  0.1044
  181SOPE   C2420659   5.455   4.680   6.696 -0.0341  0.6928  0.5905
  181SOPE   H4R20660   5.353   4.708   6.662 -1.4572 -1.5252  2.7236
  181SOPE   H4S20661   5.445   4.591   6.761 -0.0892  0.1278 -0.1829
  181SOPE   C2520662   5.512   4.794   6.782  0.1482 -0.5715  1.2342
  181SOPE   H5R20663   5.617   4.782   6.816  0.2169  0.7588  1.5335
  181SOPE   H5S20664   5.513   4.884   6.717 -0.2402 -0.2032  1.7311
  181SOPE   C2620665   5.436   4.817   6.913 -0.2549 -0.1625  0.3946
  181SOPE   H6R20666   5.481   4.906   6.963 -1.1153  0.7530 -0.4182
  181SOPE   H6S20667   5.329   4.843   6.898  0.2066  2.5338  1.2076
  181SOPE   C2720668   5.451   4.701   7.010 -0.1231 -0.0363  0.4010
  181SOPE   H7R20669   5.388   4.613   6.985  0.3247  0.2934 -2.2631
  181SOPE   H7S20670   5.556   4.664   7.006 -0.2957 -0.6679 -3.9786
  181SOPE   C2820671   5.429   4.735   7.164  0.0644 -0.2942 -0.2045
  181SOPE   H8R20672   5.483   4.647   7.206  1.1619 -1.3624 -3.5654
  181SOPE   H8S20673   5.476   4.832   7.194 -1.9178  0.3427  1.0120
  181SOPE   C2920674   5.279   4.732   7.190  0.7650  0.2567  0.3070
  181SOPE   H9120675   5.216   4.658   7.137 -0.1490 -0.4639  2.2530
  181SOPE  C21020676   5.211   4.803   7.280  0.0883 -0.2866 -0.8657
  181SOPE  H10120677   5.106   4.774   7.296  0.5390 -2.0185 -0.8028
  181SOPE  C21120678   5.266   4.901   7.384  0.6144 -0.5517  0.2601
  181SOPE  H11R20679   5.192   4.983   7.401 -1.1226 -2.1236  0.6192
  181SOPE  H11S20680   5.355   4.953   7.342  1.3411 -0.2459  2.0638
  181SOPE  C21220681   5.330   4.845   7.512  0.2730 -0.0695  0.2441
  181SOPE  H12R20682   5.382   4.922   7.572 -0.0805  0.8909 -0.6605
  181SOPE  H12S20683   5.414   4.776   7.488  0.1309 -0.4412  0.7934
  181SOPE  C21320684   5.239   4.775   7.610  0.5806  0.3689 -0.2484
  181SOPE  H13R20685   5.195   4.678   7.580  2.0315 -0.3086 -0.2536
  181SOPE  H13S20686   5.151   4.837   7.638 -0.6722 -1.6451  0.4929
  181SOPE  C21420687   5.320   4.734   7.733  0.5507  0.0949 -0.4710
  181SOPE  H14R20688   5.387   4.816   7.764  0.0991 -0.2090  1.4703
  181SOPE  H14S20689   5.390   4.655   7.699 -0.5152 -1.0050 -0.1964
  181SOPE  C21520690   5.244   4.682   7.855  0.5442 -0.5499 -0.6185
  181SOPE  H15R20691   5.313   4.668   7.941  1.2975  0.1841 -1.0820
  181SOPE  H15S20692   5.206   4.579   7.838 -2.0233  0.4993 -1.6295
  181SOPE  C21620693   5.114   4.763   7.892  0.1832 -0.5508  0.4199
  181SOPE  H16R20694   5.038   4.743   7.813  1.5621 -1.0505 -0.8429
  181SOPE  H16S20695   5.135   4.871   7.905  0.1864 -0.6784  1.5125
  181SOPE  C21720696   5.062   4.721   8.024  0.2543 -0.5153  0.2662
  181SOPE  H17R20697   5.059   4.610   8.037  2.9086 -0.4913  1.7327
  181SOPE  H17S20698   4.959   4.762   8.026 -0.4832 -2.2303 -0.0358
  181SOPE  C21820699   5.130   4.776   8.148 -0.2995  0.3920  0.0672
  181SOPE  H18R20700   5.085   4.728   8.237  0.5545 -2.1129 -0.7685
  181SOPE  H18S20701   5.121   4.886   8.163 -2.1185  0.1668  0.8712
  181SOPE  H18T20702   5.236   4.744   8.159 -1.3276 -3.1420  1.0324
  181SOPE   C3320703   5.042   4.522   6.933  0.1283  0.0361  0.0368
  181SOPE   H3X20704   5.139   4.508   6.983  1.4997 -0.9081 -2.6854
  181SOPE   H3Y20705   5.012   4.420   6.901 -2.8279  0.9514 -0.4799
  181SOPE   C3420706   4.940   4.577   7.034 -0.4467  0.2995 -1.0865
  181SOPE   H4X20707   4.843   4.588   6.981 -1.7147 -2.1748  0.5790
  181SOPE   H4Y20708   4.977   4.678   7.063 -0.5718 -0.0184  0.2107
  181SOPE   C3520709   4.937   4.502   7.165  0.2031 -0.7231  0.3233
  181SOPE   H5X20710   5.039   4.508   7.208 -0.4417 -2.6528  2.3011
  181SOPE   H5Y20711   4.925   4.393   7.146  0.2058 -0.5080 -1.0518
  181SOPE   C3620712   4.834   4.570   7.251  0.0870  0.8019  0.4649
  181SOPE   H6X20713   4.741   4.543   7.196  0.6684 -1.4783  0.5077
  181SOPE   H6Y20714   4.849   4.680   7.254  0.4017  0.8303 -1.1202
  181SOPE   C3720715   4.840   4.510   7.391 -0.2947  0.3465  0.3276
  181SOPE   H7X20716   4.948   4.526   7.415  0.2572  0.1947 -1.8539
  181SOPE   H7Y20717   4.825   4.400   7.387  4.2225 -0.4620 -0.7134
  181SOPE   C3820718   4.753   4.569   7.493 -0.1260  0.0984 -0.1785
  181SOPE   H8X20719   4.645   4.545   7.486 -0.4816  1.4897  0.1880
  181SOPE   H8Y20720   4.746   4.680   7.502 -0.9735  0.0414 -0.0071
  181SOPE   C3920721   4.796   4.508   7.633  0.7860  0.0243  0.6808
  181SOPE   H9X20722   4.902   4.536   7.652  1.0671 -0.4005 -0.2047
  181SOPE   H9Y20723   4.790   4.398   7.637  0.3259 -0.0693 -1.3376
  181SOPE  C31020724   4.714   4.565   7.745  0.1735  0.0371  0.3005
  181SOPE  H10X20725   4.709   4.499   7.835 -0.7544 -0.5882 -0.1933
  181SOPE  H10Y20726   4.612   4.558   7.703  0.5671 -1.0724 -0.5140
  181SOPE  C31120727   4.750   4.700   7.797 -0.2569 -0.7755 -0.6154
  181SOPE  H11X20728   4.770   4.769   7.713 -0.6566 -0.2374 -0.2785
  181SOPE  H11Y20729   4.841   4.685   7.859 -1.7534 -3.0225  1.2592
  181SOPE  C31220730   4.645   4.773   7.875 -0.9324  0.6940 -0.0868
  181SOPE  H12X20731   4.545   4.750   7.831 -0.2766  1.8821 -2.3396
  181SOPE  H12Y20732   4.654   4.883   7.862 -0.8724  0.8445  1.1078
  181SOPE  C31320733   4.665   4.742   8.027  0.4079 -0.2970 -0.0421
  181SOPE  H13X20734   4.758   4.792   8.061 -0.0248 -0.6851  1.8248
  181SOPE  H13Y20735   4.667   4.631   8.037 -2.4318 -0.5476 -1.1489
  181SOPE  C31420736   4.546   4.793   8.111 -0.2337 -0.6938  0.5306
  181SOPE  H14X20737   4.456   4.740   8.071  0.8218  0.0635 -3.2408
  181SOPE  H14Y20738   4.538   4.904   8.107 -2.9970 -0.8030  0.9141
  181SOPE  C31520739   4.570   4.762   8.264 -0.0242  0.3176  0.1481
  181SOPE  H15X20740   4.667   4.797   8.305  1.2388 -4.0085  1.3609
  181SOPE  H15Y20741   4.588   4.653   8.263  1.8571  0.5646  1.3663
  181SOPE  C31620742   4.452   4.802   8.350  1.0127 -0.1912 -0.1672
  181SOPE  H16X20743   4.363   4.776   8.288 -0.2575  1.3358  0.9171
  181SOPE  H16Y20744   4.445   4.909   8.378  0.8516 -0.2139 -0.1179
  181SOPE  C31720745   4.438   4.715   8.474  0.9963  0.4859  0.8998
  181SOPE  H17X20746   4.427   4.608   8.447  3.3130 -0.0856  1.9077
  181SOPE  H17Y20747   4.338   4.744   8.511 -1.1500  0.0392 -3.9072
  181SOPE  C31820748   4.547   4.746   8.575 -0.0250 -0.1840 -0.3415
  181SOPE  H18X20749   4.534   4.691   8.670  0.1212 -0.8000 -0.6771
  181SOPE  H18Y20750   4.536   4.854   8.598 -1.3938 -0.5509  0.8563
  181SOPE  H18Z20751   4.643   4.727   8.523 -0.6127 -1.3037 -1.0609
  182SOPE     N20752   4.660   5.893   6.259 -0.0316 -0.1107  0.2645
  182SOPE   HN120753   4.675   5.927   6.162 -1.6946  0.5782  0.2221
  182SOPE   HN220754   4.564   5.918   6.291 -0.2571 -0.4826 -0.1264
  182SOPE   HN320755   4.725   5.942   6.325  1.4605 -1.4979 -0.1173
  182SOPE   C1220756   4.679   5.744   6.284 -0.2755 -0.6867 -0.0602
  182SOPE  H12A20757   4.692   5.724   6.393 -1.8295  1.5921  0.6270
  182SOPE  H12B20758   4.775   5.718   6.235 -0.7139  1.1254 -2.0018
  182SOPE   C1120759   4.560   5.663   6.229 -0.0588 -0.4222  0.4967
  182SOPE  H11A20760   4.569   5.560   6.270 -1.3265 -0.2760  1.2136
  182SOPE  H11B20761   4.577   5.664   6.120 -1.6179 -0.4577  0.2357
  182SOPE     P20762   4.304   5.659   6.196 -0.4055 -0.0396 -0.4417
  182SOPE   O1320763   4.321   5.513   6.176 -0.2942 -0.1927  0.2564
  182SOPE   O1420764   4.262   5.737   6.079 -0.2858  0.8758  0.3926
  182SOPE   O1220765   4.434   5.722   6.260  0.4251  0.3466  0.1363
  182SOPE   O1120766   4.199   5.679   6.311  0.0818 -0.3533  0.1568
  182SOPE    C120767   4.194   5.580   6.411 -1.1622  0.1762 -0.0222
  182SOPE    HA20768   4.275   5.504   6.409 -0.2752  1.1319 -1.0153
  182SOPE    HB20769   4.099   5.523   6.398  0.5808 -2.2338 -4.0656
  182SOPE    C220770   4.202   5.650   6.557  0.3805 -0.7868 -0.2779
  182SOPE    HS20771   4.123   5.729   6.557  1.9159  0.8097 -0.4576
  182SOPE   O2120772   4.338   5.702   6.582  0.8231 -0.9276 -0.7175
  182SOPE   C2120773   4.347   5.806   6.661 -0.0299 -0.9129 -0.7516
  182SOPE   O2220774   4.259   5.867   6.719  0.3389 -0.1418 -0.0246
  182SOPE   C2220775   4.496   5.836   6.680 -0.3692  0.1545 -0.0312
  182SOPE   H2R20776   4.522   5.887   6.585 -2.0611  1.1843  0.0061
  182SOPE   H2S20777   4.555   5.742   6.674  0.5797  0.8222 -3.1633
  182SOPE    C320778   4.171   5.551   6.673 -0.0186  0.0044 -0.0548
  182SOPE    HX20779   4.235   5.461   6.683 -0.9178 -0.6110  0.3232
  182SOPE    HY20780   4.078   5.495   6.650 -0.9603  0.6854  1.8738
  182SOPE   O3120781   4.159   5.616   6.796  0.3592  0.0777 -0.2850
  182SOPE   C3120782   4.027   5.667   6.819  0.2055 -0.1510  0.5803
  182SOPE   O3220783   3.943   5.669   6.734 -0.3211 -0.0377  0.7867
  182SOPE   C3220784   4.017   5.725   6.966  0.1579  0.3144  0.5824
  182SOPE   H2X20785   4.075   5.820   6.968 -1.6763  1.4977  0.4201
  182SOPE   H2Y20786   4.070   5.658   7.037  1.3437  1.3982  0.7639
  182SOPE   C2320787   4.528   5.934   6.794 -0.1607 -0.0121 -0.0028
  182SOPE   H3R20788   4.460   6.022   6.794 -1.5018 -0.9320  2.6331
  182SOPE   H3S20789   4.630   5.976   6.785  0.5842 -1.8626 -0.7462
  182SOPE   C2420790   4.512   5.874   6.939 -0.2272 -0.3451  1.1261
  182SOPE   H4R20791   4.431   5.798   6.945  1.1328 -1.8742  0.7830
  182SOPE   H4S20792   4.601   5.809   6.948 -0.4602 -0.8687 -0.1424
  182SOPE   C2520793   4.512   5.976   7.046  0.1932  0.0423  0.3967
  182SOPE   H5R20794   4.592   6.052   7.037 -0.8899  1.1550 -0.2907
  182SOPE   H5S20795   4.415   6.031   7.052 -2.1144 -3.6242 -0.1343
  182SOPE   C2620796   4.541   5.909   7.180 -0.3798  0.6326  0.1789
  182SOPE   H6R20797   4.448   5.856   7.208  0.8324 -0.4590  2.4655
  182SOPE   H6S20798   4.626   5.839   7.165 -0.8644 -0.1200  0.8177
  182SOPE   C2720799   4.575   6.005   7.297 -0.7682  0.2796  0.2993
  182SOPE   H7R20800   4.678   6.038   7.271 -1.8985  2.9543 -1.2402
  182SOPE   H7S20801   4.501   6.087   7.287 -1.6714 -0.4269  1.0191
  182SOPE   C2820802   4.575   5.943   7.430  0.5884 -0.2102 -0.1705
  182SOPE   H8R20803   4.614   5.839   7.426 -0.2615 -0.5428 -0.0946
  182SOPE   H8S20804   4.655   6.002   7.481  0.6608  1.2219 -1.8666
  182SOPE   C2920805   4.442   5.924   7.496 -0.3777 -0.0891  0.9551
  182SOPE   H9120806   4.355   5.942   7.431 -0.9904 -1.6771  1.2751
  182SOPE  C21020807   4.427   5.880   7.620  0.3869 -0.1712  0.0949
  182SOPE  H10120808   4.325   5.864   7.658  1.0584  0.9009  2.5310
  182SOPE  C21120809   4.527   5.852   7.736 -0.3812  0.3400  0.3694
  182SOPE  H11R20810   4.561   5.949   7.777 -1.2253  0.5617  0.5662
  182SOPE  H11S20811   4.618   5.813   7.685 -0.1695  0.8028  0.3889
  182SOPE  C21220812   4.470   5.771   7.843  0.0471  0.3313 -0.5246
  182SOPE  H12R20813   4.473   5.668   7.800 -1.9521  0.2567 -0.5811
  182SOPE  H12S20814   4.366   5.802   7.869  0.7235  2.0682  0.2303
  182SOPE  C21320815   4.544   5.779   7.976  0.0643  0.3203  0.3339
  182SOPE  H13R20816   4.580   5.879   8.008 -0.5847 -0.0706  2.4229
  182SOPE  H13S20817   4.631   5.716   7.947 -1.6067 -1.7580 -0.4334
  182SOPE  C21420818   4.465   5.719   8.095  0.0018  0.4746 -0.3057
  182SOPE  H14R20819   4.537   5.691   8.175  0.0994  0.5273 -0.3754
  182SOPE  H14S20820   4.417   5.629   8.053  1.1279  0.7437 -2.2820
  182SOPE  C21520821   4.366   5.816   8.164  0.3739  0.2816  0.4659
  182SOPE  H15R20822   4.292   5.855   8.091 -0.4000 -0.0423  1.0659
  182SOPE  H15S20823   4.413   5.910   8.200  0.4528  0.4814 -0.1475
  182SOPE  C21620824   4.297   5.757   8.288 -0.1115 -0.1172  0.1580
  182SOPE  H16R20825   4.231   5.670   8.267 -1.2779  0.4859  1.1956
  182SOPE  H16S20826   4.221   5.831   8.322  0.1140 -0.0877  0.5971
  182SOPE  C21720827   4.389   5.735   8.418  0.1796 -0.4270  0.0314
  182SOPE  H17R20828   4.486   5.699   8.378  2.7079  2.1530  3.3110
  182SOPE  H17S20829   4.346   5.647   8.471 -0.4488  0.6310  1.3258
  182SOPE  C21820830   4.415   5.857   8.501 -0.0802 -0.3853 -0.7280
  182SOPE  H18R20831   4.483   5.838   8.588  0.3654  3.8415  0.0601
  182SOPE  H18S20832   4.314   5.886   8.538 -0.4872 -0.2800 -1.8916
  182SOPE  H18T20833   4.455   5.943   8.443 -1.1534  1.2210  0.8125
  182SOPE   C3320834   3.873   5.775   7.012 -0.1027  0.1743  0.1138
  182SOPE   H3X20835   3.808   5.695   6.972  0.6180 -0.3363 -0.0573
  182SOPE   H3Y20836   3.829   5.865   6.965 -2.2523  0.6848  2.8234
  182SOPE   C3420837   3.871   5.805   7.167 -0.1860  0.5156  0.4176
  182SOPE   H4X20838   3.941   5.888   7.189 -0.8059  0.6275  2.1470
  182SOPE   H4Y20839   3.911   5.710   7.209  1.0506  0.1499 -1.4750
  182SOPE   C3520840   3.729   5.837   7.217 -0.3001 -0.2518  0.6235
  182SOPE   H5X20841   3.656   5.767   7.171  0.3199 -1.6091  1.6237
  182SOPE   H5Y20842   3.726   5.942   7.182 -1.7588 -1.0256 -1.7701
  182SOPE   C3620843   3.710   5.839   7.369 -0.6097 -0.6168  0.3944
  182SOPE   H6X20844   3.612   5.888   7.386 -0.3884 -0.4201  1.1343
  182SOPE   H6Y20845   3.786   5.911   7.407 -3.4515  4.1044 -1.8875
  182SOPE   C3720846   3.722   5.708   7.431  0.5247 -0.1217 -0.2702
  182SOPE   H7X20847   3.819   5.661   7.406  0.9180  0.2052  0.5796
  182SOPE   H7Y20848   3.644   5.644   7.386  0.0247  0.4579 -0.2484
  182SOPE   C3820849   3.708   5.716   7.583 -0.0551 -0.2184 -0.4733
  182SOPE   H8X20850   3.624   5.786   7.600 -0.0224 -0.4314  0.6162
  182SOPE   H8Y20851   3.800   5.771   7.611 -1.1994  1.3885  0.2754
  182SOPE   C3920852   3.690   5.580   7.657  0.5568  0.4812 -0.1387
  182SOPE   H9X20853   3.776   5.511   7.642 -0.1685 -0.3794 -0.4083
  182SOPE   H9Y20854   3.594   5.534   7.624 -0.0590  3.5164 -3.1159
  182SOPE  C31020855   3.684   5.594   7.817 -0.3588  0.3263 -0.0290
  182SOPE  H10X20856   3.600   5.661   7.846 -1.2025 -1.4893  2.0150
  182SOPE  H10Y20857   3.778   5.641   7.855 -0.1595 -2.1254  2.9240
  182SOPE  C31120858   3.654   5.458   7.884 -0.7974  0.0432 -0.2117
  182SOPE  H11X20859   3.744   5.396   7.863 -0.8077  0.6110 -2.1879
  182SOPE  H11Y20860   3.565   5.404   7.843  0.5792 -0.9234 -2.1361
  182SOPE  C31220861   3.654   5.468   8.039  0.1191  0.2721  0.0668
  182SOPE  H12X20862   3.555   5.503   8.075 -0.3346 -2.7621  2.1575
  182SOPE  H12Y20863   3.730   5.541   8.076 -0.7479  0.9469  0.5585
  182SOPE  C31320864   3.688   5.338   8.107 -0.6083  0.1968 -0.2333
  182SOPE  H13X20865   3.786   5.308   8.065  0.5030  1.6703  1.1682
  182SOPE  H13Y20866   3.612   5.259   8.092 -2.8492  1.8411  1.6327
  182SOPE  C31420867   3.702   5.361   8.258 -0.1544  0.0377  0.3171
  182SOPE  H14X20868   3.604   5.378   8.307  0.7667  0.8031  1.9728
  182SOPE  H14Y20869   3.772   5.446   8.266  0.8177 -0.0497 -4.5400
  182SOPE  C31520870   3.765   5.241   8.338  0.5162 -0.5315  0.8018
  182SOPE  H15X20871   3.859   5.209   8.288  0.7888  0.4625  0.6473
  182SOPE  H15Y20872   3.686   5.164   8.324  0.0627  0.0799 -0.1809
  182SOPE  C31620873   3.779   5.251   8.489 -0.1161  0.5047  0.1884
  182SOPE  H16X20874   3.685   5.270   8.545 -0.5934 -1.8280  0.2580
  182SOPE  H16Y20875   3.856   5.329   8.508  0.5332 -0.1681  0.3596
  182SOPE  C31720876   3.842   5.121   8.558 -0.5187 -0.0670  0.0349
  182SOPE  H17X20877   3.890   5.142   8.656  0.2752  2.0369 -0.7519
  182SOPE  H17Y20878   3.927   5.095   8.492 -0.2670  1.4117 -0.2629
  182SOPE  C31820879   3.748   4.999   8.549 -0.4781  0.0124 -1.0053
  182SOPE  H18X20880   3.815   4.918   8.585 -1.6647 -0.5381  0.0280
  182SOPE  H18Y20881   3.711   4.978   8.447  0.8367  0.3941 -1.5848
  182SOPE  H18Z20882   3.662   5.000   8.620 -0.4440 -2.0092 -0.8708
  183SOPE     N20883   1.061   4.911   6.171 -0.5345  0.0932 -0.6102
  183SOPE   HN120884   0.987   4.927   6.243  1.0968  0.5578  1.0662
  183SOPE   HN220885   1.047   4.948   6.075  1.3127 -2.1269 -1.8191
  183SOPE   HN320886   1.075   4.808   6.167 -0.1016  0.1517 -0.6584
  183SOPE   C1220887   1.188   4.963   6.233 -0.7796  0.4071 -0.5703
  183SOPE  H12A20888   1.157   5.050   6.295  0.4444  0.1751  0.4234
  183SOPE  H12B20889   1.252   4.994   6.148 -0.6207  2.8967  0.3553
  183SOPE   C1120890   1.254   4.859   6.334 -0.3852  0.2536 -0.3212
  183SOPE  H11A20891   1.174   4.834   6.408 -0.2135  0.0436 -0.2037
  183SOPE  H11B20892   1.339   4.899   6.393  2.0733 -0.3080 -3.2566
  183SOPE     P20893   1.227   4.606   6.249  0.3683 -0.1025  0.1589
  183SOPE   O1320894   1.312   4.515   6.169  0.9436 -0.8273  0.7618
  183SOPE   O1420895   1.090   4.635   6.198 -0.2982 -0.4635  0.0279
  183SOPE   O1220896   1.304   4.740   6.260 -0.8799 -0.8008  0.4571
  183SOPE   O1120897   1.233   4.556   6.397  0.2867  0.1475  0.2042
  183SOPE    C120898   1.352   4.546   6.474  0.3764  0.0060 -0.2539
  183SOPE    HA20899   1.394   4.649   6.475 -0.6986  0.4760 -1.0806
  183SOPE    HB20900   1.428   4.477   6.433  0.9840 -0.4834  1.5925
  183SOPE    C220901   1.319   4.487   6.620 -0.4208  0.7280 -0.8685
  183SOPE    HS20902   1.411   4.484   6.682 -0.3094  1.3797 -0.9904
  183SOPE   O2120903   1.256   4.359   6.613 -0.3064  0.2111  0.1144
  183SOPE   C2120904   1.340   4.258   6.585 -0.6513 -0.0529 -0.1114
  183SOPE   O2220905   1.459   4.271   6.568 -0.7278 -0.3788  0.1285
  183SOPE   C2220906   1.255   4.128   6.565  0.3895 -0.7826  0.1657
  183SOPE   H2R20907   1.276   4.092   6.462 -2.1125 -1.7875 -0.0485
  183SOPE   H2S20908   1.147   4.146   6.583  1.1064  2.2916  1.9784
  183SOPE    C320909   1.223   4.573   6.702  0.5605  0.3831  0.4381
  183SOPE    HX20910   1.124   4.583   6.652 -0.1580  1.0255  1.9237
  183SOPE    HY20911   1.257   4.678   6.705 -0.8190  0.8299  0.8276
  183SOPE   O3120912   1.196   4.517   6.834 -0.9412  0.3974  0.0130
  183SOPE   C3120913   1.292   4.529   6.923  0.1147 -0.5668 -0.2033
  183SOPE   O3220914   1.406   4.566   6.905 -0.0891 -0.0801  0.0685
  183SOPE   C3220915   1.243   4.468   7.052 -0.5175 -0.0763  0.9901
  183SOPE   H2X20916   1.292   4.368   7.053  1.2290  0.7539  1.6356
  183SOPE   H2Y20917   1.134   4.444   7.054 -0.9142  1.5950  2.9657
  183SOPE   C2320918   1.287   4.020   6.671  0.1064  0.9869  0.2378
  183SOPE   H3R20919   1.391   4.003   6.708 -0.0448  0.6849  0.5286
  183SOPE   H3S20920   1.234   3.932   6.629  1.6984  0.4937 -0.8433
  183SOPE   C2420921   1.198   4.063   6.795 -0.1829  0.7825  0.3563
  183SOPE   H4R20922   1.224   4.167   6.824  1.2847  0.5053  0.1568
  183SOPE   H4S20923   1.098   4.047   6.749  0.1233 -0.4617  0.0883
  183SOPE   C2520924   1.215   3.972   6.931  0.0332  0.3882  0.8265
  183SOPE   H5R20925   1.118   3.963   6.984 -1.0045  0.6118 -0.9413
  183SOPE   H5S20926   1.225   3.873   6.882 -1.3478  0.6190  0.0372
  183SOPE   C2620927   1.324   4.030   7.020  0.2963 -0.5081  0.0965
  183SOPE   H6R20928   1.419   4.012   6.965  2.7889  1.3238  3.4512
  183SOPE   H6S20929   1.309   4.140   7.028  1.4221 -0.4727  3.2194
  183SOPE   C2720930   1.323   3.986   7.169 -0.0643  0.1941 -0.0867
  183SOPE   H7R20931   1.228   4.035   7.199  0.0076  0.3884 -0.1758
  183SOPE   H7S20932   1.317   3.875   7.178  2.0444  0.1657  2.0375
  183SOPE   C2820933   1.448   4.027   7.247 -0.0979  0.9437 -0.1971
  183SOPE   H8R20934   1.464   3.975   7.344 -1.3557  2.7296  1.0344
  183SOPE   H8S20935   1.533   3.991   7.186 -1.8613  0.0627 -2.2793
  183SOPE   C2920936   1.466   4.170   7.269 -0.3891 -0.8293 -0.0064
  183SOPE   H9120937   1.480   4.222   7.174 -0.4171 -0.2464  0.3051
  183SOPE  C21020938   1.483   4.234   7.388 -0.1795 -0.2481 -0.3614
  183SOPE  H10120939   1.495   4.343   7.391  1.5085 -0.4315  0.6552
  183SOPE  C21120940   1.497   4.173   7.529 -0.0543  0.1406 -0.3071
  183SOPE  H11R20941   1.604   4.159   7.553 -0.4301 -0.3483  1.2732
  183SOPE  H11S20942   1.467   4.066   7.533 -2.2427  0.7298  1.4015
  183SOPE  C21220943   1.412   4.252   7.638 -0.1799 -0.1916 -0.0142
  183SOPE  H12R20944   1.304   4.236   7.617 -0.5986  0.4163  1.5208
  183SOPE  H12S20945   1.436   4.360   7.631  0.0225 -0.2565 -0.2900
  183SOPE  C21320946   1.435   4.199   7.777  0.0096 -0.5016 -0.1439
  183SOPE  H13R20947   1.433   4.088   7.783  1.6438 -0.5092  0.7940
  183SOPE  H13S20948   1.366   4.239   7.854  3.5603  1.0566  2.4912
  183SOPE  C21420949   1.574   4.230   7.827 -0.1403 -0.7418 -0.2611
  183SOPE  H14R20950   1.584   4.340   7.810  0.7403 -0.6995  0.4772
  183SOPE  H14S20951   1.647   4.174   7.764 -1.8328 -2.9895 -0.3166
  183SOPE  C21520952   1.598   4.206   7.977 -0.5517 -0.6682 -0.0688
  183SOPE  H15R20953   1.583   4.098   7.998 -2.7081 -0.3609  0.1336
  183SOPE  H15S20954   1.515   4.263   8.023  2.3585  1.9840  2.4221
  183SOPE  C21620955   1.733   4.254   8.027 -0.8421 -0.5817 -0.4112
  183SOPE  H16R20956   1.736   4.363   8.004 -1.5883 -0.1738  1.2778
  183SOPE  H16S20957   1.812   4.211   7.961 -1.8956 -0.2356 -1.9421
  183SOPE  C21720958   1.756   4.242   8.175  0.1757  0.6290 -0.7936
  183SOPE  H17R20959   1.752   4.135   8.204  0.0886  0.9757  0.5585
  183SOPE  H17S20960   1.668   4.288   8.226  0.0058 -0.2959 -0.2341
  183SOPE  C21820961   1.889   4.307   8.221  0.3895  0.4798  0.4511
  183SOPE  H18R20962   1.973   4.257   8.168 -0.6251  1.0411 -1.8022
  183SOPE  H18S20963   1.900   4.305   8.331  1.7558 -1.2200  0.3264
  183SOPE  H18T20964   1.885   4.415   8.195  1.3065  0.5552  0.6013
  183SOPE   C3320965   1.285   4.552   7.175 -0.4435  0.7976 -0.8890
  183SOPE   H3X20966   1.259   4.658   7.157 -1.3443  0.9182  0.8441
  183SOPE   H3Y20967   1.394   4.543   7.195 -0.6815 -1.7008 -0.3299
  183SOPE   C3420968   1.198   4.510   7.300 -0.7169 -0.3896  0.2968
  183SOPE   H4X20969   1.199   4.399   7.308 -0.7675 -0.5023 -1.0601
  183SOPE   H4Y20970   1.097   4.552   7.283 -0.8433 -0.5138  0.7413
  183SOPE   C3520971   1.253   4.571   7.415 -0.0243 -0.1174  0.5504
  183SOPE   H5X20972   1.258   4.681   7.407 -0.2185 -0.2620 -2.7082
  183SOPE   H5Y20973   1.355   4.533   7.440 -0.5593 -1.0835  1.3620
  183SOPE   C3620974   1.162   4.539   7.541 -0.5714  0.1064 -0.7003
  183SOPE   H6X20975   1.135   4.433   7.560  2.1750 -0.6877 -0.8159
  183SOPE   H6Y20976   1.064   4.587   7.522 -0.8715  1.1980  2.8957
  183SOPE   C3720977   1.218   4.586   7.677 -0.0515  0.3664 -0.1771
  183SOPE   H7X20978   1.217   4.697   7.665 -4.2928  0.2980 -2.2457
  183SOPE   H7Y20979   1.317   4.554   7.716 -0.7853 -0.6120  0.9175
  183SOPE   C3820980   1.134   4.530   7.800  0.4884 -0.6135 -0.0354
  183SOPE   H8X20981   1.167   4.425   7.807  0.9820 -0.4512  0.1281
  183SOPE   H8Y20982   1.024   4.543   7.784  0.3951  0.8334  1.5291
  183SOPE   C3920983   1.162   4.609   7.922 -0.9419  0.0356 -0.0834
  183SOPE   H9X20984   1.197   4.711   7.896  2.2143  0.8471  5.6566
  183SOPE   H9Y20985   1.252   4.569   7.973 -0.6531  1.0247  0.1983
  183SOPE  C31020986   1.033   4.607   8.012  0.1194 -0.7582  0.1644
  183SOPE  H10X20987   0.947   4.633   7.948  1.2751  0.5953 -0.9099
  183SOPE  H10Y20988   1.049   4.694   8.081 -1.1597 -1.3440  1.2337
  183SOPE  C31120989   1.008   4.478   8.092  0.3382 -0.7432 -0.7571
  183SOPE  H11X20990   1.092   4.450   8.159 -1.5181  0.8859  2.5314
  183SOPE  H11Y20991   0.993   4.397   8.019 -1.0479 -0.8907 -0.3263
  183SOPE  C31220992   0.872   4.499   8.169 -0.2058 -0.1480 -0.6741
  183SOPE  H12X20993   0.784   4.528   8.107 -0.6573  1.9144  0.7930
  183SOPE  H12Y20994   0.885   4.592   8.228 -0.7051  0.2727 -1.2136
  183SOPE  C31320995   0.834   4.376   8.258  0.0049 -0.3226  0.2744
  183SOPE  H13X20996   0.745   4.402   8.319 -1.2482  0.8385 -1.9251
  183SOPE  H13Y20997   0.918   4.357   8.330 -1.5299  1.2354  2.6199
  183SOPE  C31420998   0.798   4.247   8.189 -0.9886 -0.0705  0.3858
  183SOPE  H14X20999   0.894   4.213   8.144 -0.6082 -0.6583  1.5878
  183SOPE  H14Y21000   0.730   4.257   8.102 -0.4084  0.0835 -0.0582
  183SOPE  C31521001   0.743   4.145   8.285 -0.0362 -0.4115 -0.2856
  183SOPE  H15X21002   0.647   4.187   8.321 -0.6185 -0.1511 -2.0351
  183SOPE  H15Y21003   0.811   4.146   8.373 -3.9930  1.0665  3.1032
  183SOPE  C31621004   0.722   4.009   8.221  0.7975  0.7647 -0.0386
  183SOPE  H16X21005   0.812   3.977   8.164 -0.1634  2.5567 -2.8028
  183SOPE  H16Y21006   0.636   4.031   8.154 -0.6459 -0.9590  1.1465
  183SOPE  C31721007   0.679   3.898   8.323  0.4171  0.0286  0.4083
  183SOPE  H17X21008   0.576   3.936   8.340 -0.3245 -0.5184 -2.3314
  183SOPE  H17Y21009   0.743   3.909   8.413  1.3171  2.1774 -0.4217
  183SOPE  C31821010   0.691   3.758   8.268  0.3684 -0.8267  0.3976
  183SOPE  H18X21011   0.791   3.710   8.255  0.4101 -0.7014  0.2407
  183SOPE  H18Y21012   0.640   3.758   8.169  1.9341  3.3398 -0.6249
  183SOPE  H18Z21013   0.635   3.687   8.333  0.4606 -0.5736  0.7552
  184SOPE     N21014   5.563   6.184   6.198  0.1184  0.3902  0.2002
  184SOPE   HN121015   5.639   6.188   6.269  0.6976  0.9626 -0.4420
  184SOPE   HN221016   5.516   6.276   6.197  0.2621  0.4789 -1.3895
  184SOPE   HN321017   5.493   6.111   6.226  0.1310  0.3231  0.0591
  184SOPE   C1221018   5.623   6.158   6.064  0.1205  0.0112 -0.5016
  184SOPE  H12A21019   5.664   6.257   6.033 -1.3183  0.7821 -0.0535
  184SOPE  H12B21020   5.543   6.142   5.989  0.8948  1.2191 -1.6447
  184SOPE   C1121021   5.703   6.026   6.064  0.3854  0.7386 -0.4813
  184SOPE  H11A21022   5.729   6.002   5.958 -1.4158 -0.6133 -0.6607
  184SOPE  H11B21023   5.629   5.948   6.093 -1.5261  3.0344  1.1116
  184SOPE     P21024   5.942   5.955   6.121 -0.2430  0.1364  0.1398
  184SOPE   O1321025   5.963   5.987   5.972 -0.0609  0.1996  0.0514
  184SOPE   O1421026   5.922   5.817   6.157  0.5311  0.7932  0.6134
  184SOPE   O1221027   5.814   6.031   6.154  0.1415  0.2914  0.0694
  184SOPE   O1121028   6.059   6.020   6.201  0.4298 -0.3099  0.3579
  184SOPE    C121029   6.068   6.159   6.219  1.3597  0.5928  0.5838
  184SOPE    HA21030   5.968   6.206   6.231  1.2359  0.6388 -0.4826
  184SOPE    HB21031   6.124   6.202   6.133  0.2167  0.3379 -0.3078
  184SOPE    C221032   6.149   6.199   6.345  0.6756  0.3149 -0.1443
  184SOPE    HS21033   6.237   6.133   6.361 -1.4706 -2.9025 -0.6848
  184SOPE   O2121034   6.059   6.202   6.459 -0.4105 -0.1667  0.1026
  184SOPE   C2121035   6.049   6.089   6.525  0.9559  0.5758  0.2119
  184SOPE   O2221036   6.108   5.981   6.499 -0.0549 -0.5826  0.3259
  184SOPE   C2221037   5.937   6.101   6.631 -0.1300  0.5116 -1.2503
  184SOPE   H2R21038   5.857   6.038   6.586 -0.1704 -1.5864  1.4752
  184SOPE   H2S21039   5.899   6.205   6.644 -2.6700 -0.2862 -1.5985
  184SOPE    C321040   6.197   6.346   6.339  0.3613  1.0271 -0.6952
  184SOPE    HX21041   6.115   6.421   6.331 -0.4217  0.2074 -0.4668
  184SOPE    HY21042   6.254   6.346   6.244 -1.3460  2.7600 -1.8063
  184SOPE   O3121043   6.285   6.378   6.445  0.0128 -0.1117 -0.5411
  184SOPE   C3121044   6.414   6.332   6.434 -0.2015 -0.9957 -0.5287
  184SOPE   O3221045   6.451   6.250   6.353  0.1618 -0.3740 -0.1724
  184SOPE   C3221046   6.491   6.378   6.559  0.0475 -0.0364  0.3846
  184SOPE   H2X21047   6.439   6.333   6.646  2.3310 -2.4458  0.6235
  184SOPE   H2Y21048   6.478   6.486   6.581 -1.7534 -0.4334  1.5083
  184SOPE   C2321049   5.992   6.059   6.775  0.6341 -0.3116  0.1675
  184SOPE   H3R21050   6.061   6.136   6.817  0.1586  0.5058 -0.5086
  184SOPE   H3S21051   6.042   5.962   6.757 -1.9490 -1.2498 -2.8848
  184SOPE   C2421052   5.887   6.024   6.885 -0.1936  0.5464  0.0310
  184SOPE   H4R21053   5.815   5.944   6.856  1.4919 -0.7589 -0.7568
  184SOPE   H4S21054   5.941   5.984   6.974  0.3824  0.1285 -0.4932
  184SOPE   C2521055   5.800   6.146   6.930 -0.2434  0.7335 -0.0997
  184SOPE   H5R21056   5.852   6.244   6.935 -0.7861  1.0463 -0.5019
  184SOPE   H5S21057   5.715   6.149   6.859  0.5939 -0.0787 -1.1693
  184SOPE   C2621058   5.753   6.117   7.078 -0.3791 -0.4125 -0.2307
  184SOPE   H6R21059   5.661   6.174   7.099 -1.3562 -1.3212 -1.8382
  184SOPE   H6S21060   5.743   6.008   7.098  0.5997 -0.1875  1.6925
  184SOPE   C2721061   5.864   6.169   7.175 -0.3124 -0.3658  0.8503
  184SOPE   H7R21062   5.957   6.132   7.126 -0.4714 -1.7179  1.5275
  184SOPE   H7S21063   5.870   6.279   7.172  2.1523 -0.4019  2.1812
  184SOPE   C2821064   5.866   6.108   7.312 -1.2078  0.0299  0.0718
  184SOPE   H8R21065   5.848   5.999   7.295 -2.5614 -0.0176  1.6610
  184SOPE   H8S21066   5.970   6.118   7.352  0.1623  0.9657 -3.3685
  184SOPE   C2921067   5.756   6.162   7.396  0.2047 -0.2174  0.1075
  184SOPE   H9121068   5.678   6.223   7.349  0.1005 -0.4149  0.0241
  184SOPE  C21021069   5.760   6.172   7.533 -0.4484 -0.1420  0.2062
  184SOPE  H10121070   5.683   6.230   7.586  0.0306  0.6621  0.0361
  184SOPE  C21121071   5.873   6.124   7.623 -0.4733  0.1533  0.3036
  184SOPE  H11R21072   5.893   6.185   7.714  3.6002 -0.7751  0.2349
  184SOPE  H11S21073   5.969   6.122   7.567  0.5852  0.6834  2.0299
  184SOPE  C21221074   5.875   5.982   7.678  0.2788  0.6368 -0.9366
  184SOPE  H12R21075   5.829   5.924   7.596  0.3324 -1.1390  0.2382
  184SOPE  H12S21076   5.803   5.967   7.762  1.5300  1.5461  0.3576
  184SOPE  C21321077   6.007   5.904   7.702 -0.1191  0.1973  0.1733
  184SOPE  H13R21078   6.066   5.942   7.788 -0.1795 -0.3232  0.4492
  184SOPE  H13S21079   6.077   5.919   7.618  0.6075 -0.6246  0.6200
  184SOPE  C21421080   5.996   5.755   7.715  0.2835  0.3803 -0.2973
  184SOPE  H14R21081   6.088   5.698   7.692 -0.8739 -1.2886 -1.0197
  184SOPE  H14S21082   5.917   5.731   7.641 -1.8314 -0.5697  2.1137
  184SOPE  C21521083   5.958   5.716   7.856 -0.0612  0.6705  0.1278
  184SOPE  H15R21084   5.858   5.755   7.882 -0.6671  2.6933 -4.2160
  184SOPE  H15S21085   6.031   5.769   7.921 -1.2905  1.5401  0.8486
  184SOPE  C21621086   5.950   5.562   7.887  0.4236  0.3599 -0.3188
  184SOPE  H16R21087   5.917   5.511   7.795  1.7648 -2.0003  0.4224
  184SOPE  H16S21088   5.866   5.550   7.959  1.5442 -2.2106  0.6972
  184SOPE  C21721089   6.082   5.498   7.943  0.4619 -0.6096  0.4541
  184SOPE  H17R21090   6.165   5.508   7.870 -0.6509 -0.3081 -0.8074
  184SOPE  H17S21091   6.062   5.389   7.940 -1.6236 -0.2300 -1.1455
  184SOPE  C21821092   6.125   5.542   8.081 -0.5556 -0.0362  0.1374
  184SOPE  H18R21093   6.058   5.515   8.165  0.1948  1.6854  1.3366
  184SOPE  H18S21094   6.140   5.652   8.079 -1.7467  0.1346  0.1227
  184SOPE  H18T21095   6.219   5.487   8.101 -0.6138 -0.3841 -0.5277
  184SOPE   C3321096   6.645   6.332   6.581  0.1075  0.4469  0.3619
  184SOPE   H3X21097   6.700   6.341   6.485 -0.7408 -0.2844 -0.2132
  184SOPE   H3Y21098   6.647   6.223   6.601 -0.8892  0.0276 -1.5625
  184SOPE   C3421099   6.721   6.413   6.690 -0.0338 -0.0900 -0.4185
  184SOPE   H4X21100   6.700   6.517   6.659  1.2875 -1.0159 -5.2899
  184SOPE   H4Y21101   6.830   6.395   6.682 -0.1671 -2.1128  1.4977
  184SOPE   C3521102   6.688   6.362   6.832 -0.1187 -0.4889 -0.3264
  184SOPE   H5X21103   6.581   6.344   6.854 -0.1667 -1.7802 -1.4978
  184SOPE   H5Y21104   6.733   6.424   6.913  0.0448 -2.3715  1.0815
  184SOPE   C3621105   6.751   6.222   6.857  0.2296 -0.5878 -0.5271
  184SOPE   H6X21106   6.857   6.220   6.824  1.9783 -2.0841  4.3603
  184SOPE   H6Y21107   6.708   6.145   6.789  0.2801 -0.1670 -1.0463
  184SOPE   C3721108   6.722   6.178   7.005 -0.0575 -0.4028  0.1425
  184SOPE   H7X21109   6.618   6.164   7.040  0.2152  1.4541  1.9431
  184SOPE   H7Y21110   6.779   6.248   7.071  2.2161 -0.1390 -1.9578
  184SOPE   C3821111   6.790   6.041   7.018 -0.0648  0.0036 -0.6491
  184SOPE   H8X21112   6.899   6.047   7.001 -0.1633 -0.3765 -1.4531
  184SOPE   H8Y21113   6.746   5.983   6.934 -0.2384  0.9428 -1.2177
  184SOPE   C3921114   6.762   5.978   7.151  0.7174  0.3126 -0.2345
  184SOPE   H9X21115   6.799   5.875   7.170 -0.1615  0.3838  2.2678
  184SOPE   H9Y21116   6.655   5.964   7.179  1.2427 -0.5555  1.5323
  184SOPE  C31021117   6.826   6.057   7.269  0.4853  0.2377  0.0931
  184SOPE  H10X21118   6.767   6.151   7.277 -2.6295 -1.4129 -1.6096
  184SOPE  H10Y21119   6.936   6.065   7.254  0.7745 -1.6135  0.9207
  184SOPE  C31121120   6.802   5.999   7.409  0.2390  0.0465  0.0125
  184SOPE  H11X21121   6.801   5.888   7.405 -0.6295  0.0407  0.1382
  184SOPE  H11Y21122   6.698   6.029   7.436 -0.1933 -1.3282 -0.0726
  184SOPE  C31221123   6.906   6.046   7.513 -0.3059 -0.1751  0.2232
  184SOPE  H12X21124   7.011   6.027   7.485  0.4915 -0.2121  2.9514
  184SOPE  H12Y21125   6.885   6.005   7.614  2.3500 -1.8939  0.1572
  184SOPE  C31321126   6.886   6.195   7.522  0.1508 -0.7562  0.3531
  184SOPE  H13X21127   6.843   6.239   7.615  0.8850  0.4313  0.1462
  184SOPE  H13Y21128   6.825   6.249   7.446 -0.8466  1.0615  2.3139
  184SOPE  C31421129   7.019   6.274   7.511 -0.1254 -0.0115  0.1756
  184SOPE  H14X21130   7.092   6.222   7.577  1.3790 -2.0326 -2.8810
  184SOPE  H14Y21131   7.006   6.376   7.552  1.6749 -0.0727  0.9988
  184SOPE  C31521132   7.090   6.277   7.375  0.2595 -1.0157  0.7138
  184SOPE  H15X21133   7.012   6.319   7.309  1.0601 -2.3692 -1.1702
  184SOPE  H15Y21134   7.118   6.176   7.339  1.7625 -0.0907 -0.8794
  184SOPE  C31621135   7.219   6.355   7.379 -0.0439 -0.4824 -0.0323
  184SOPE  H16X21136   7.278   6.317   7.466 -0.1074 -1.5408 -0.4405
  184SOPE  H16Y21137   7.211   6.465   7.388  1.0702 -0.2996 -1.1014
  184SOPE  C31721138   7.308   6.346   7.256 -0.6950  0.7133 -0.1447
  184SOPE  H17X21139   7.291   6.426   7.180  0.1887  1.3264  0.2819
  184SOPE  H17Y21140   7.288   6.246   7.212  0.8136 -0.9909  2.7991
  184SOPE  C31821141   7.456   6.359   7.296  0.1429  0.1891  0.1099
  184SOPE  H18X21142   7.482   6.460   7.333  0.7749  0.0411  0.0962
  184SOPE  H18Y21143   7.528   6.322   7.220  0.6323 -0.0706  0.6909
  184SOPE  H18Z21144   7.462   6.291   7.384 -1.5497 -0.5192 -0.2879
  185SAPI   C1221145   4.409   0.558  10.655 -0.4314 -0.3112 -0.3433
  185SAPI    H221146   4.493   0.545  10.584  0.4357  0.4563  0.5098
  185SAPI    O221147   4.321   0.657  10.605  0.0191 -0.3836  0.4787
  185SAPI   HO221148   4.274   0.614  10.534 -0.9862 -0.8151  1.3847
  185SAPI   C1321149   4.345   0.423  10.676 -0.3505 -0.5229  0.2605
  185SAPI    H321150   4.428   0.362  10.716  0.2441 -0.9423 -1.5168
  185SAPI    O321151   4.301   0.375  10.548 -0.1377 -0.2709  0.3770
  185SAPI   HO321152   4.244   0.442  10.510 -0.1731  0.0816  1.0301
  185SAPI   C1421153   4.229   0.431  10.777  0.1383  0.0790 -0.8376
  185SAPI    H421154   4.155   0.504  10.739  2.1429  0.8303 -3.6321
  185SAPI    O421155   4.172   0.303  10.790  0.1831  0.1283 -0.4845
  185SAPI   HO421156   4.085   0.299  10.750  0.0483 -4.0157 -0.2036
  185SAPI   C1521157   4.275   0.475  10.915 -0.6219  0.5930  0.0680
  185SAPI    H521158   4.340   0.395  10.956 -0.7552 -1.1436 -2.8646
  185SAPI    O521159   4.169   0.488  11.006 -0.0158 -0.4349 -0.3009
  185SAPI   HO521160   4.145   0.399  11.034 -0.4564 -0.5117 -0.8983
  185SAPI   C1621161   4.360   0.605  10.909  0.4491  0.2643  0.4990
  185SAPI    H621162   4.292   0.687  10.879  2.1939  0.4033 -3.9688
  185SAPI    O621163   4.426   0.640  11.031 -0.5910 -0.1968  0.6178
  185SAPI   HO621164   4.513   0.600  11.031 -0.6155 -0.7895 -3.6308
  185SAPI   C1121165   4.467   0.598  10.790  0.1719 -0.4182 -0.3363
  185SAPI    H121166   4.545   0.522  10.815  1.2158  1.2671  1.9122
  185SAPI     P21167   4.684   0.754  10.824 -0.3468  0.0111  0.6948
  185SAPI   O1321168   4.715   0.686  10.949 -0.0887  0.6450 -0.8927
  185SAPI   O1421169   4.720   0.898  10.816  0.3098 -0.0098  0.5360
  185SAPI   O1221170   4.534   0.723  10.773  0.6257  0.9187  0.0353
  185SAPI   O1121171   4.765   0.683  10.701  0.1937  0.6460  0.0457
  185SAPI    C121172   4.775   0.741  10.570 -0.1740 -0.3747  0.6312
  185SAPI    HA21173   4.760   0.661  10.494 -0.9539 -0.3210  0.7263
  185SAPI    HB21174   4.704   0.823  10.544  2.8789  1.7986 -1.5530
  185SAPI    C221175   4.920   0.799  10.552 -0.3078  0.0000 -0.3300
  185SAPI    HS21176   4.937   0.886  10.619 -1.4485 -0.2199  0.2744
  185SAPI   O2121177   4.959   0.835  10.417 -0.3366  0.4016  0.0322
  185SAPI   C2121178   4.879   0.926  10.365 -0.1219 -1.1192  0.3700
  185SAPI   O2221179   4.806   0.998  10.436 -0.5389  0.2069 -0.3612
  185SAPI   C2221180   4.882   0.935  10.206  0.1989 -0.2509 -0.2672
  185SAPI   H2R21181   4.848   1.039  10.185 -0.8730 -0.3918  0.6806
  185SAPI   H2S21182   4.985   0.911  10.172  0.8884  2.3627 -0.1995
  185SAPI    C321183   5.022   0.699  10.608  1.2198  0.5320  0.0197
  185SAPI    HX21184   5.001   0.691  10.717 -1.8777  0.3997 -0.4964
  185SAPI    HY21185   5.126   0.734  10.590  0.7978  1.4411 -0.7199
  185SAPI   O3121186   5.008   0.567  10.548 -0.2244  0.2176 -0.5337
  185SAPI   C3121187   5.113   0.489  10.586 -0.1210  0.4132  0.0971
  185SAPI   O3221188   5.214   0.524  10.642  0.3056 -0.3228 -0.1666
  185SAPI   C3221189   5.094   0.350  10.512  0.0772  0.8439 -0.0790
  185SAPI   H2X21190   4.993   0.356  10.465  0.0904 -0.1415 -0.2553
  185SAPI   H2Y21191   5.097   0.269  10.588  0.1565  1.5776  0.7196
  185SAPI   C2321192   4.784   0.836  10.131 -0.5278 -0.3649 -0.6270
  185SAPI   H3R21193   4.813   0.730  10.151 -1.9890 -0.5696  0.5784
  185SAPI   H3S21194   4.798   0.848  10.022  0.8024  0.1262 -0.4241
  185SAPI   C2421195   4.641   0.860  10.156 -0.7011 -0.1341  0.0078
  185SAPI   H4R21196   4.586   0.816  10.071 -1.6446  1.2233 -0.1117
  185SAPI   H4S21197   4.614   0.968  10.161 -0.3894 -0.1026  1.8882
  185SAPI   C2521198   4.580   0.801  10.278 -0.0647  0.2293 -1.0408
  185SAPI   H5R21199   4.601   0.857  10.370 -0.4060 -2.0382  0.5241
  185SAPI   C2621200   4.496   0.694  10.288  0.3221 -0.6617 -0.3666
  185SAPI   H6R21201   4.475   0.668  10.393  4.6908 -1.2548  0.5391
  185SAPI   C2721202   4.463   0.604  10.172  0.5499  0.2244 -0.1251
  185SAPI   H7R21203   4.558   0.552  10.147  0.8456 -0.3643  2.0492
  185SAPI   H7S21204   4.445   0.661  10.078 -1.9653 -1.5527 -0.8182
  185SAPI   C2821205   4.355   0.500  10.192  0.4933 -0.6207  0.9286
  185SAPI   H8R21206   4.325   0.470  10.293 -1.1179 -3.1744 -0.2091
  185SAPI   C2921207   4.297   0.448  10.084 -0.3878 -0.0163  0.4859
  185SAPI   H9R21208   4.210   0.385  10.110 -1.0814  0.6411 -0.1721
  185SAPI  C21021209   4.326   0.479   9.935  0.0065  0.7162  0.0730
  185SAPI  H10R21210   4.432   0.510   9.947  0.0531  0.4490  0.3626
  185SAPI  H10S21211   4.260   0.558   9.891 -0.7990  1.2147  2.0621
  185SAPI  C21121212   4.314   0.350   9.859 -0.1719 -0.4987  0.6758
  185SAPI  H11R21213   4.351   0.256   9.902  0.9216 -0.2076  0.3856
  185SAPI  C21221214   4.290   0.340   9.721  0.1071 -0.0440 -0.0131
  185SAPI  H12R21215   4.300   0.240   9.676  0.7436  0.8605 -1.9712
  185SAPI  C21321216   4.260   0.458   9.620  0.5961  0.6748  0.6561
  185SAPI  H13R21217   4.168   0.511   9.653  0.0027  1.6946 -2.3730
  185SAPI  H13S21218   4.212   0.409   9.532  0.4741  0.4026  0.8690
  185SAPI  C21421219   4.372   0.548   9.585 -0.1432 -0.7570  0.4007
  185SAPI  H14R21220   4.444   0.581   9.661 -0.4842 -1.2379  0.9321
  185SAPI  C21521221   4.386   0.613   9.463  0.3940 -0.4945 -0.6470
  185SAPI  H15R21222   4.479   0.671   9.452 -0.4020  0.6866 -1.3376
  185SAPI  C21621223   4.297   0.614   9.346  0.1857  0.2946 -0.0473
  185SAPI  H16R21224   4.261   0.718   9.339  0.8031  0.3986 -2.0408
  185SAPI  H16S21225   4.208   0.548   9.353 -0.1124  0.7962  1.3057
  185SAPI  C21721226   4.377   0.594   9.218  0.5386 -0.1679 -0.0710
  185SAPI  H17R21227   4.439   0.502   9.220 -0.5081 -0.9073 -0.7719
  185SAPI  H17S21228   4.447   0.678   9.200  2.0619 -0.8267  2.3456
  185SAPI  C21821229   4.285   0.578   9.091  0.9849 -0.1617 -0.5267
  185SAPI  H18R21230   4.222   0.669   9.078  1.0448 -0.3010 -1.9460
  185SAPI  H18S21231   4.213   0.494   9.103  0.1054  0.8479  2.1037
  185SAPI  C21921232   4.361   0.551   8.965 -0.3347 -0.1508 -0.0113
  185SAPI  H19R21233   4.395   0.445   8.964  0.7190  0.1718 -0.6815
  185SAPI  H19S21234   4.453   0.614   8.969 -0.2213 -0.3655  1.0568
  185SAPI  C22021235   4.277   0.573   8.840  0.3969 -0.0054  0.0680
  185SAPI  H20R21236   4.209   0.661   8.836 -3.9280 -3.0679 -3.1275
  185SAPI  H20S21237   4.200   0.493   8.833  0.5888 -0.1084 -1.1165
  185SAPI  H20T21238   4.341   0.579   8.749 -1.3553 -1.5578 -1.3692
  185SAPI   C3321239   5.196   0.309  10.397 -0.2487 -0.7655 -0.5732
  185SAPI   H3X21240   5.169   0.202  10.412 -5.1519  0.4295  1.0848
  185SAPI   H3Y21241   5.305   0.325  10.413  0.1228 -0.3006 -3.1977
  185SAPI   C3421242   5.163   0.345  10.254 -0.4737  0.4199 -0.6895
  185SAPI   H4X21243   5.065   0.296  10.238 -1.1286  1.5421 -0.2207
  185SAPI   H4Y21244   5.242   0.299  10.191  0.6649  0.1663  0.8687
  185SAPI   C3521245   5.139   0.496  10.233 -0.8545 -0.0240  0.1636
  185SAPI   H5X21246   5.234   0.553  10.244  0.3316 -2.2832  2.7922
  185SAPI   H5Y21247   5.076   0.552  10.306  1.1340  1.6151  0.7194
  185SAPI   C3621248   5.080   0.525  10.091  0.0183 -0.1498 -0.3821
  185SAPI   H6X21249   5.087   0.632  10.062  0.9216 -0.5074 -1.5618
  185SAPI   H6Y21250   4.970   0.504  10.092  0.0389 -0.2794 -0.6603
  185SAPI   C3721251   5.149   0.452   9.975 -0.1500  0.0386 -0.0006
  185SAPI   H7X21252   5.112   0.347   9.980  1.7532 -0.7171 -0.7984
  185SAPI   H7Y21253   5.259   0.452   9.989 -0.4146  1.3638  2.5975
  185SAPI   C3821254   5.121   0.513   9.834  0.0257 -0.5298  0.2982
  185SAPI   H8X21255   5.130   0.622   9.857  0.8323 -0.3288 -0.9101
  185SAPI   H8Y21256   5.012   0.510   9.812  0.2694 -0.4767 -0.9896
  185SAPI   C3921257   5.205   0.464   9.718 -0.3680  0.3235 -0.2483
  185SAPI   H9X21258   5.190   0.356   9.696  1.1632  0.1013 -0.3097
  185SAPI   H9Y21259   5.310   0.484   9.748 -0.0609 -0.7481 -0.5467
  185SAPI  C31021260   5.213   0.550   9.591  0.5942 -0.3142 -0.2549
  185SAPI  H10X21261   5.307   0.540   9.535  0.1078 -0.7533 -1.0083
  185SAPI  H10Y21262   5.215   0.657   9.620  0.6477 -0.4040  0.0892
  185SAPI  C31121263   5.080   0.524   9.512  0.4469 -0.1133 -0.1613
  185SAPI  H11X21264   4.995   0.555   9.577  0.0938 -1.2015 -0.0825
  185SAPI  H11Y21265   5.065   0.417   9.486  0.3825 -0.5356  1.4677
  185SAPI  C31221266   5.076   0.603   9.377  0.2361 -0.4371 -0.5490
  185SAPI  H12X21267   5.092   0.712   9.388 -3.5493  0.4605 -2.2025
  185SAPI  H12Y21268   4.976   0.597   9.329 -0.5433 -2.2248  1.1413
  185SAPI  C31321269   5.162   0.523   9.275  0.0660  0.5350 -0.4508
  185SAPI  H13X21270   5.109   0.440   9.223  1.0197 -1.3002  1.3679
  185SAPI  H13Y21271   5.252   0.479   9.323 -0.5698  0.7163  0.9357
  185SAPI  C31421272   5.213   0.619   9.166  0.8799 -0.5305 -0.0725
  185SAPI  H14X21273   5.289   0.564   9.106  1.3239  2.5947 -2.6563
  185SAPI  H14Y21274   5.255   0.708   9.217  0.8841 -0.7511  0.3130
  185SAPI  C31521275   5.110   0.670   9.062  0.1150  0.7614 -0.2688
  185SAPI  H15X21276   5.021   0.707   9.117 -0.2804  0.4555 -0.6880
  185SAPI  H15Y21277   5.075   0.585   8.999  0.6961  1.0918 -1.0508
  185SAPI  C31621278   5.157   0.783   8.969  0.2439  0.5375 -0.1468
  185SAPI  H16X21279   5.253   0.763   8.915  0.0819 -0.8893  0.0376
  185SAPI  H16Y21280   5.175   0.875   9.027 -0.8336  1.1140 -0.7095
  185SAPI  C31721281   5.055   0.830   8.869 -0.7594  0.1481  0.3253
  185SAPI  H17X21282   4.960   0.858   8.918 -1.1380 -1.0645  0.3033
  185SAPI  H17Y21283   5.039   0.743   8.802  0.9582 -0.8870  1.1700
  185SAPI  C31821284   5.105   0.955   8.797 -0.2549  0.4430 -0.1524
  185SAPI  H18X21285   5.032   0.990   8.721  0.0109  0.2203 -0.5161
  185SAPI  H18Y21286   5.204   0.928   8.755  0.6490  1.6000  1.1432
  185SAPI  H18Z21287   5.125   1.039   8.867  0.2906  1.4706 -1.4883
  186SAPI   C1221288   5.775   5.713  10.978  0.8305 -0.4999 -0.6198
  186SAPI    H221289   5.667   5.737  10.969  0.8269 -1.2579 -4.1120
  186SAPI    O221290   5.845   5.829  10.952 -0.5106 -0.2512 -0.1641
  186SAPI   HO221291   5.804   5.870  10.875 -1.8315  0.1463  0.7282
  186SAPI   C1321292   5.818   5.658  11.115  0.0406 -0.1287 -0.0787
  186SAPI    H321293   5.760   5.565  11.134  0.9992 -0.4538  1.4043
  186SAPI    O321294   5.778   5.747  11.224  0.3459 -0.0052 -0.0000
  186SAPI   HO321295   5.805   5.836  11.198 -1.0403  0.8237  1.1953
  186SAPI   C1421296   5.968   5.630  11.114 -0.1913 -0.0481  0.0365
  186SAPI    H421297   6.020   5.726  11.089  1.7647 -1.5650 -2.1372
  186SAPI    O421298   6.008   5.592  11.242 -0.3558  0.3491  0.0493
  186SAPI   HO421299   6.027   5.676  11.284 -0.4459  0.2135  0.3636
  186SAPI   C1521300   5.992   5.524  11.010 -0.0154 -0.2132  0.0003
  186SAPI    H521301   5.927   5.435  11.026  0.0321 -0.1706  0.4459
  186SAPI    O521302   6.127   5.469  11.010  0.2103  0.3403  0.2314
  186SAPI   HO521303   6.176   5.484  10.929 -1.0172 -0.7023 -0.7523
  186SAPI   C1621304   5.943   5.569  10.873  0.5948 -0.0936 -0.0518
  186SAPI    H621305   6.009   5.654  10.846  0.6037  0.9773  2.9442
  186SAPI    O621306   5.964   5.458  10.776  0.4435 -0.7929  0.2402
  186SAPI   HO621307   5.966   5.507  10.694 -0.4112 -0.4774  0.3913
  186SAPI   C1121308   5.794   5.610  10.871 -0.3739  0.2119  0.6166
  186SAPI    H121309   5.728   5.526  10.900 -1.3072  0.0665 -1.7278
  186SAPI     P21310   5.603   5.664  10.693  0.0859  0.6446 -0.0539
  186SAPI   O1321311   5.597   5.755  10.573 -0.6241  0.1246 -0.2082
  186SAPI   O1421312   5.505   5.685  10.804 -0.1699  0.3329 -0.1556
  186SAPI   O1221313   5.762   5.661  10.740  0.0252  0.1290 -0.8329
  186SAPI   O1121314   5.586   5.516  10.647  0.1984  0.2013  0.0718
  186SAPI    C121315   5.686   5.464  10.560 -1.0577 -0.2358  0.0564
  186SAPI    HA21316   5.792   5.494  10.570 -0.2904 -2.4168 -0.9776
  186SAPI    HB21317   5.704   5.356  10.579 -0.9980 -0.2087  0.1478
  186SAPI    C221318   5.656   5.476  10.405  0.1851 -0.4219 -0.1181
  186SAPI    HS21319   5.633   5.583  10.383 -3.1269 -0.5645  1.8512
  186SAPI   O2121320   5.533   5.407  10.383  1.3190  0.8904 -0.1841
  186SAPI   C2121321   5.442   5.443  10.294 -0.2979 -0.1404  0.5708
  186SAPI   O2221322   5.435   5.546  10.228 -0.3897  0.1805 -0.3350
  186SAPI   C2221323   5.358   5.318  10.264  0.3782 -0.6347 -0.3347
  186SAPI   H2R21324   5.420   5.234  10.225 -0.3917 -1.6257  0.5218
  186SAPI   H2S21325   5.314   5.291  10.362  1.5738 -0.7248  0.1981
  186SAPI    C321326   5.768   5.418  10.315 -0.0844 -0.0105  0.3729
  186SAPI    HX21327   5.786   5.312  10.342  1.8533 -0.2889 -1.6880
  186SAPI    HY21328   5.864   5.471  10.330  0.7870 -1.0679 -1.1727
  186SAPI   O3121329   5.726   5.418  10.173 -0.1976 -0.0891  0.1602
  186SAPI   C3121330   5.773   5.507  10.095 -0.1130 -0.5919 -0.2758
  186SAPI   O3221331   5.844   5.602  10.122  0.3467  0.1089  0.2633
  186SAPI   C3221332   5.701   5.492   9.957 -0.8797 -0.0452 -0.2164
  186SAPI   H2X21333   5.608   5.552   9.958 -0.3888  0.7235 -0.3143
  186SAPI   H2Y21334   5.664   5.387   9.947 -1.1672  0.1155 -0.8454
  186SAPI   C2321335   5.240   5.343  10.177 -0.3678  0.4051 -0.3318
  186SAPI   H3R21336   5.186   5.429  10.223 -1.3850  0.1427 -1.0004
  186SAPI   H3S21337   5.172   5.257  10.192  1.2556 -0.7551  0.6336
  186SAPI   C2421338   5.255   5.367  10.028  0.1170 -0.0815  0.0843
  186SAPI   H4R21339   5.326   5.450  10.014  1.9808 -1.4626  0.8929
  186SAPI   H4S21340   5.149   5.394  10.005 -0.3619 -3.2662 -2.0811
  186SAPI   C2521341   5.296   5.256   9.950 -0.4231 -0.1939  0.7425
  186SAPI   H5R21342   5.312   5.168  10.014 -0.6395 -0.8276 -0.0706
  186SAPI   C2621343   5.300   5.243   9.814 -0.1245  0.1874  0.4333
  186SAPI   H6R21344   5.310   5.150   9.756 -1.8505  0.4775 -0.4294
  186SAPI   C2721345   5.241   5.351   9.731 -0.2624 -0.7275 -0.2611
  186SAPI   H7R21346   5.181   5.423   9.791  1.7179  0.8753 -0.1208
  186SAPI   H7S21347   5.166   5.307   9.661  0.6827 -2.0124 -0.4985
  186SAPI   C2821348   5.341   5.430   9.647  0.9550  0.0815  0.1792
  186SAPI   H8R21349   5.397   5.510   9.697  2.1852  0.8662 -2.2750
  186SAPI   C2921350   5.368   5.413   9.517  0.5618  0.7883  0.2083
  186SAPI   H9R21351   5.427   5.491   9.465  0.3484  0.4974 -0.4741
  186SAPI  C21021352   5.320   5.311   9.421 -0.2227  0.5269  0.2412
  186SAPI  H10R21353   5.287   5.221   9.477 -2.1084  2.3179  2.1917
  186SAPI  H10S21354   5.415   5.277   9.375 -0.1085  1.2043 -0.0492
  186SAPI  C21121355   5.218   5.354   9.315 -0.1305 -0.3342  0.3003
  186SAPI  H11R21356   5.113   5.351   9.348 -0.3630 -2.1624 -0.4936
  186SAPI  C21221357   5.240   5.382   9.185 -0.3463  0.8449  0.0610
  186SAPI  H12R21358   5.158   5.415   9.119  1.5971 -0.1547 -3.0829
  186SAPI  C21321359   5.377   5.375   9.124  0.6346 -0.1668 -0.0938
  186SAPI  H13R21360   5.388   5.285   9.059  0.4357  0.7121 -1.4004
  186SAPI  H13S21361   5.449   5.354   9.206  1.1924 -0.6707 -0.6979
  186SAPI  C21421362   5.412   5.503   9.051  0.7864 -0.2704  0.3379
  186SAPI  H14R21363   5.459   5.581   9.113 -0.3561 -1.0338  2.2926
  186SAPI  C21521364   5.375   5.527   8.920 -0.7960 -0.1053  0.2241
  186SAPI  H15R21365   5.416   5.615   8.869  0.6149 -0.8903 -0.0478
  186SAPI  C21621366   5.300   5.423   8.834 -0.7812 -0.3543 -0.7326
  186SAPI  H16R21367   5.229   5.362   8.895  0.3329  0.1782  1.1972
  186SAPI  H16S21368   5.373   5.350   8.794 -1.1992 -0.5351 -1.1790
  186SAPI  C21721369   5.235   5.488   8.712 -0.1244 -0.4094 -0.3332
  186SAPI  H17R21370   5.317   5.527   8.647  0.5980 -1.2553  0.0512
  186SAPI  H17S21371   5.162   5.567   8.739  0.6224 -0.4164  1.8475
  186SAPI  C21821372   5.159   5.378   8.634  0.1436  0.0004  0.5134
  186SAPI  H18R21373   5.076   5.341   8.698  1.9600  0.3967  3.2734
  186SAPI  H18S21374   5.219   5.286   8.616 -1.3872 -0.7437 -1.0943
  186SAPI  C21921375   5.106   5.430   8.500  0.2813 -0.6351  0.5719
  186SAPI  H19R21376   5.158   5.520   8.463 -1.4079  0.5218  0.8715
  186SAPI  H19S21377   5.004   5.469   8.521  0.7078  0.1833  1.1729
  186SAPI  C22021378   5.119   5.334   8.376 -0.0205 -0.4159 -0.8252
  186SAPI  H20R21379   5.218   5.286   8.365 -0.7777 -2.8696  1.9144
  186SAPI  H20S21380   5.093   5.394   8.286 -0.7531  3.0815  1.4721
  186SAPI  H20T21381   5.045   5.255   8.400 -0.0040 -0.3399 -0.5082
  186SAPI   C3321382   5.790   5.523   9.834 -0.6678  0.3187  0.1316
  186SAPI   H3X21383   5.878   5.456   9.843 -0.4881  0.5669  0.2352
  186SAPI   H3Y21384   5.828   5.625   9.855 -1.5608  0.6991 -0.0710
  186SAPI   C3421385   5.717   5.519   9.695 -0.1346 -0.2424 -1.0217
  186SAPI   H4X21386   5.625   5.581   9.706 -0.9866 -1.2215 -2.3514
  186SAPI   H4Y21387   5.677   5.416   9.685 -1.1450 -0.0941  1.0440
  186SAPI   C3521388   5.805   5.568   9.585 -0.3479 -0.1251  0.6282
  186SAPI   H5X21389   5.904   5.517   9.583  1.3019  2.8221  0.1870
  186SAPI   H5Y21390   5.833   5.674   9.604 -0.6412  0.9137 -3.8502
  186SAPI   C3621391   5.741   5.559   9.442  0.7210  0.0764 -0.4449
  186SAPI   H6X21392   5.650   5.620   9.459 -1.4539 -3.0612 -0.1179
  186SAPI   H6Y21393   5.709   5.456   9.416 -1.7638  0.6325  0.1551
  186SAPI   C3721394   5.837   5.604   9.328  0.7254 -0.3295  0.1150
  186SAPI   H7X21395   5.922   5.533   9.333  0.2006 -0.9395  0.4996
  186SAPI   H7Y21396   5.874   5.706   9.350 -1.8640  0.6360  0.2741
  186SAPI   C3821397   5.778   5.597   9.188 -0.2943 -0.0427 -0.6272
  186SAPI   H8X21398   5.688   5.662   9.176 -0.4389  0.5578  2.7066
  186SAPI   H8Y21399   5.734   5.496   9.180 -0.2786 -0.0350 -0.8128
  186SAPI   C3921400   5.886   5.612   9.088 -0.3731 -0.2099 -0.0980
  186SAPI   H9X21401   5.975   5.550   9.112 -0.8376 -1.0671 -0.5221
  186SAPI   H9Y21402   5.916   5.719   9.091  2.9243 -1.0140 -0.5771
  186SAPI  C31021403   5.837   5.586   8.948 -0.0682  0.2326 -0.7474
  186SAPI  H10X21404   5.920   5.616   8.881  1.5549  1.2025  1.5668
  186SAPI  H10Y21405   5.748   5.649   8.925  0.2414  0.6520 -0.8148
  186SAPI  C31121406   5.788   5.435   8.933  0.1930 -0.3568 -0.2867
  186SAPI  H11X21407   5.693   5.423   8.989 -0.5155 -0.3175 -1.4548
  186SAPI  H11Y21408   5.874   5.376   8.973  2.4997  3.8939  1.7113
  186SAPI  C31221409   5.762   5.400   8.784 -0.5381 -0.2564  0.1925
  186SAPI  H12X21410   5.854   5.415   8.724 -0.8202 -1.8358 -0.6928
  186SAPI  H12Y21411   5.695   5.477   8.741 -0.7058 -0.6700 -0.3005
  186SAPI  C31321412   5.725   5.250   8.763  0.3127 -0.0426  0.4250
  186SAPI  H13X21413   5.633   5.223   8.819  0.6203 -0.4594  0.7403
  186SAPI  H13Y21414   5.796   5.183   8.816  1.5013 -2.8479 -4.1365
  186SAPI  C31421415   5.720   5.205   8.616  0.5218  0.1583 -0.0292
  186SAPI  H14X21416   5.697   5.097   8.605 -2.6100  0.4366  2.3944
  186SAPI  H14Y21417   5.820   5.221   8.570  0.7779 -0.4857  0.2827
  186SAPI  C31521418   5.630   5.288   8.527  0.1019 -0.5865  0.2269
  186SAPI  H15X21419   5.676   5.389   8.517 -0.9471  0.2621  2.8072
  186SAPI  H15Y21420   5.531   5.298   8.578 -1.2271 -0.7654 -2.1764
  186SAPI  C31621421   5.619   5.243   8.386 -0.7889 -0.0417  0.4159
  186SAPI  H16X21422   5.528   5.295   8.349  0.6687  1.6693 -0.8957
  186SAPI  H16Y21423   5.591   5.136   8.378  0.5194 -0.2675 -2.3044
  186SAPI  C31721424   5.752   5.267   8.309  0.3203  0.5470  0.7877
  186SAPI  H17X21425   5.822   5.187   8.342  0.3368  1.0464  2.0031
  186SAPI  H17Y21426   5.782   5.370   8.337 -0.9346  1.1728 -0.0873
  186SAPI  C31821427   5.735   5.261   8.150 -0.1716  0.3558  0.2642
  186SAPI  H18X21428   5.830   5.284   8.097  0.2614 -1.8106  0.0169
  186SAPI  H18Y21429   5.666   5.339   8.111 -1.5221 -0.0273  1.8183
  186SAPI  H18Z21430   5.690   5.163   8.126  1.5037 -1.6253  4.2945
  187SAPI   C1221431   6.357   1.277   6.218  1.0261  0.0241 -0.5270
  187SAPI    H221432   6.309   1.292   6.318  3.2952  1.6456  0.3920
  187SAPI    O221433   6.406   1.139   6.206  0.0400 -0.3762  0.0226
  187SAPI   HO221434   6.464   1.128   6.282  1.0426  2.0389 -0.3188
  187SAPI   C1321435   6.254   1.315   6.116  0.6912  0.5796 -0.1887
  187SAPI    H321436   6.224   1.422   6.117 -0.7572  0.2250 -1.8298
  187SAPI    O321437   6.132   1.237   6.137  0.0998  0.5364  0.2017
  187SAPI   HO321438   6.087   1.288   6.205  2.7149  1.3144  1.4787
  187SAPI   C1421439   6.319   1.293   5.982  0.3775  0.7411 -0.7925
  187SAPI    H421440   6.349   1.187   5.976 -1.5299  0.0016  1.1101
  187SAPI    O421441   6.233   1.323   5.878 -0.0470  0.3908  0.0430
  187SAPI   HO421442   6.168   1.252   5.879  0.0107  0.3276  1.3061
  187SAPI   C1521443   6.444   1.381   5.978 -0.5392  0.1344 -1.0227
  187SAPI    H521444   6.405   1.482   6.000  3.5168  1.8127 -0.6097
  187SAPI    O521445   6.509   1.370   5.852 -0.2335  0.1843 -0.2274
  187SAPI   HO521446   6.565   1.447   5.861 -2.7069  1.8738  2.6580
  187SAPI   C1621447   6.538   1.351   6.094  0.6311  0.5417 -0.4668
  187SAPI    H621448   6.569   1.245   6.083 -1.7018 -0.0849 -1.8641
  187SAPI    O621449   6.657   1.431   6.084 -0.5982 -0.1908 -0.0330
  187SAPI   HO621450   6.728   1.389   6.134 -1.1533 -0.5626  0.4602
  187SAPI   C1121451   6.474   1.371   6.225 -0.2564  0.2638 -0.1162
  187SAPI    H121452   6.435   1.475   6.226 -0.1153  0.3185  0.7540
  187SAPI     P21453   6.598   1.432   6.449 -0.2947  0.4419  0.0340
  187SAPI   O1321454   6.628   1.565   6.385 -0.4059 -0.1883 -0.2067
  187SAPI   O1421455   6.716   1.374   6.525 -0.3863  0.4325 -0.2914
  187SAPI   O1221456   6.558   1.329   6.333 -0.2860  0.0894 -0.1715
  187SAPI   O1121457   6.466   1.450   6.536  0.0414 -0.0056 -0.5611
  187SAPI    C121458   6.385   1.335   6.575  0.3745 -0.1592 -0.2781
  187SAPI    HA21459   6.279   1.347   6.547  0.6767  0.7608 -1.0832
  187SAPI    HB21460   6.410   1.241   6.521  0.2592 -0.3447 -0.0078
  187SAPI    C221461   6.382   1.319   6.729  0.3911 -0.0636  0.2814
  187SAPI    HS21462   6.335   1.414   6.762 -1.3651 -0.2551 -1.5141
  187SAPI   O2121463   6.522   1.317   6.773 -0.1182 -0.6353  0.4187
  187SAPI   C2121464   6.552   1.410   6.860  0.0480  0.2894 -0.7991
  187SAPI   O2221465   6.473   1.485   6.917 -0.2802  0.6406  0.3258
  187SAPI   C2221466   6.708   1.418   6.875  0.1188 -0.9717 -0.1664
  187SAPI   H2R21467   6.754   1.333   6.819 -0.5116 -2.0895  0.9544
  187SAPI   H2S21468   6.745   1.503   6.814  0.2851 -0.7949  0.1837
  187SAPI    C321469   6.307   1.194   6.786 -0.0673 -0.5990  0.1534
  187SAPI    HX21470   6.318   1.111   6.713  0.6637 -0.5295  0.1729
  187SAPI    HY21471   6.197   1.206   6.778 -0.1997 -2.2924 -1.0102
  187SAPI   O3121472   6.332   1.160   6.923 -0.2526  0.1613  0.3347
  187SAPI   C3121473   6.255   1.068   6.974  0.3516  0.1863  0.1781
  187SAPI   O3221474   6.178   0.998   6.910  0.5162  0.4239  0.1151
  187SAPI   C3221475   6.288   1.065   7.127  0.7386  0.2827 -0.5724
  187SAPI   H2X21476   6.342   1.156   7.159 -0.6594  0.1557  2.4985
  187SAPI   H2Y21477   6.348   0.973   7.141  1.7955  0.5330 -3.0223
  187SAPI   C2321478   6.779   1.403   7.012  0.5402  0.0831 -0.2533
  187SAPI   H3R21479   6.885   1.376   6.996  1.6248  2.1594  2.5587
  187SAPI   H3S21480   6.742   1.315   7.068  1.3372 -1.2697 -1.7867
  187SAPI   C2421481   6.774   1.521   7.089 -1.0443 -0.3341  0.2202
  187SAPI   H4R21482   6.668   1.548   7.109 -0.5519  1.7986  0.1686
  187SAPI   H4S21483   6.812   1.613   7.041 -1.2162 -0.0155  0.6862
  187SAPI   C2521484   6.835   1.506   7.226 -0.1872 -0.1875  0.0064
  187SAPI   H5R21485   6.944   1.493   7.227 -0.2410 -0.7034  1.5286
  187SAPI   C2621486   6.778   1.515   7.352  0.1594 -0.4429  0.3851
  187SAPI   H6R21487   6.836   1.484   7.440 -2.0706 -0.1927  2.0273
  187SAPI   C2721488   6.632   1.559   7.368  0.9303  0.1935 -0.5891
  187SAPI   H7R21489   6.601   1.623   7.283 -1.8597  0.6160  0.6290
  187SAPI   H7S21490   6.626   1.624   7.457 -1.4180  1.0909 -1.3046
  187SAPI   C2821491   6.538   1.440   7.364 -0.5392 -0.0935 -0.1492
  187SAPI   H8R21492   6.533   1.391   7.266  1.2177  1.7992 -1.2800
  187SAPI   C2921493   6.462   1.406   7.475 -0.5411 -0.0894  0.6796
  187SAPI   H9R21494   6.395   1.319   7.468 -3.0093  1.7905 -0.5525
  187SAPI  C21021495   6.455   1.475   7.606  0.0769  0.8338 -0.2578
  187SAPI  H10R21496   6.543   1.542   7.618  0.9403 -0.3641  0.3120
  187SAPI  H10S21497   6.468   1.411   7.695 -0.4798  0.8602 -0.1532
  187SAPI  C21121498   6.326   1.548   7.639  0.1042  0.6342  0.2659
  187SAPI  H11R21499   6.246   1.543   7.563  1.9948  0.9556 -1.8543
  187SAPI  C21221500   6.304   1.616   7.756  0.4269  0.1931 -0.5623
  187SAPI  H12R21501   6.215   1.680   7.770 -0.0338 -0.7895  1.3840
  187SAPI  C21321502   6.398   1.624   7.877  0.3751  0.5294 -0.3899
  187SAPI  H13R21503   6.459   1.532   7.886 -1.2536 -0.5008  0.8832
  187SAPI  H13S21504   6.347   1.622   7.976 -0.4623 -0.6166 -0.8244
  187SAPI  C21421505   6.481   1.744   7.871 -0.1410  0.6925  0.1487
  187SAPI  H14R21506   6.547   1.738   7.783  0.1308  0.0171  0.3889
  187SAPI  C21521507   6.485   1.852   7.950  0.4623  0.4427 -0.1485
  187SAPI  H15R21508   6.565   1.924   7.928 -0.7787  1.3762 -1.8580
  187SAPI  C21621509   6.399   1.882   8.067 -0.0478  0.1800 -0.1655
  187SAPI  H16R21510   6.292   1.871   8.039  0.4203 -0.6848 -1.7487
  187SAPI  H16S21511   6.406   1.988   8.099  1.2260 -0.2363  0.9876
  187SAPI  C21721512   6.415   1.796   8.194 -0.2074  0.2577  0.4186
  187SAPI  H17R21513   6.505   1.826   8.252  0.3628 -1.8972  0.7038
  187SAPI  H17S21514   6.422   1.692   8.158 -0.9407  0.6282 -0.8610
  187SAPI  C21821515   6.295   1.810   8.284 -0.0288 -0.2880 -0.5127
  187SAPI  H18R21516   6.201   1.812   8.225 -0.4057  4.5168 -0.1636
  187SAPI  H18S21517   6.295   1.905   8.343  0.3966 -1.6016  1.7106
  187SAPI  C21921518   6.286   1.694   8.383 -0.7848 -0.4372 -0.3258
  187SAPI  H19R21519   6.267   1.596   8.336  0.3282 -0.4757 -0.7246
  187SAPI  H19S21520   6.202   1.706   8.455  0.6699  0.8535  1.2687
  187SAPI  C22021521   6.421   1.682   8.469  0.3774 -0.5632  0.1788
  187SAPI  H20R21522   6.501   1.638   8.405 -0.3710 -0.1021 -1.1069
  187SAPI  H20S21523   6.401   1.605   8.547  0.6531  0.7718  1.6114
  187SAPI  H20T21524   6.457   1.776   8.515  2.3614 -1.8148  1.3794
  187SAPI   C3321525   6.158   1.050   7.211  1.3187 -0.0925  0.1337
  187SAPI   H3X21526   6.105   0.952   7.203 -1.6209  1.3982 -0.0413
  187SAPI   H3Y21527   6.083   1.126   7.181  0.9817 -0.8902 -1.1171
  187SAPI   C3421528   6.185   1.077   7.364 -0.2745 -0.0358  0.3902
  187SAPI   H4X21529   6.234   1.174   7.386 -0.5834  0.2543 -0.1907
  187SAPI   H4Y21530   6.258   1.001   7.399  0.1124  1.0694  2.0623
  187SAPI   C3521531   6.063   1.066   7.456  0.1376  0.8746  0.3717
  187SAPI   H5X21532   6.005   0.983   7.411  0.7613  0.9865 -0.6741
  187SAPI   H5Y21533   6.011   1.163   7.441  0.6188  0.7987 -2.2715
  187SAPI   C3621534   6.108   1.033   7.599 -0.0473  1.0722  0.0120
  187SAPI   H6X21535   6.198   0.968   7.594  0.5992  2.0000 -0.7944
  187SAPI   H6Y21536   6.032   0.969   7.649 -1.0919  1.9912 -0.3662
  187SAPI   C3721537   6.147   1.159   7.680 -0.0275 -0.0307 -0.3125
  187SAPI   H7X21538   6.059   1.225   7.696 -1.6841 -2.4509  1.2413
  187SAPI   H7Y21539   6.213   1.227   7.622 -1.9654  0.0456 -2.6102
  187SAPI   C3821540   6.188   1.128   7.829  0.3430  0.2137  0.9783
  187SAPI   H8X21541   6.157   1.216   7.889  0.2372  0.7502  0.1629
  187SAPI   H8Y21542   6.294   1.097   7.835  0.8126  1.8555  2.0143
  187SAPI   C3921543   6.108   1.013   7.889 -0.6013 -0.6013 -0.2011
  187SAPI   H9X21544   6.141   0.918   7.843  1.4073 -1.4684  2.7137
  187SAPI   H9Y21545   5.998   1.018   7.875 -0.7779  1.5952  1.2867
  187SAPI  C31021546   6.136   0.987   8.037  0.0115  0.8081  0.5098
  187SAPI  H10X21547   6.054   0.923   8.076  2.1264 -0.8035  2.5985
  187SAPI  H10Y21548   6.135   1.085   8.089  0.9551 -0.0918  2.3067
  187SAPI  C31121549   6.269   0.903   8.044 -0.6272 -0.1628 -0.6758
  187SAPI  H11X21550   6.351   0.969   8.009 -0.8453 -0.1390 -1.1432
  187SAPI  H11Y21551   6.258   0.819   7.973  1.8697 -1.1670  0.0239
  187SAPI  C31221552   6.307   0.848   8.186  0.3484 -0.3080 -0.7785
  187SAPI  H12X21553   6.343   0.743   8.181 -0.3603 -0.5625 -0.6263
  187SAPI  H12Y21554   6.211   0.848   8.242  0.7490  0.5627 -0.0479
  187SAPI  C31321555   6.408   0.939   8.255 -0.2449 -0.2371 -0.2066
  187SAPI  H13X21556   6.364   1.039   8.272 -2.1123 -0.8838 -1.0144
  187SAPI  H13Y21557   6.500   0.956   8.195  3.1290 -1.2444  4.1598
  187SAPI  C31421558   6.458   0.891   8.386 -0.0210 -0.1391 -0.0654
  187SAPI  H14X21559   6.542   0.959   8.413 -2.6912  4.6902 -2.7177
  187SAPI  H14Y21560   6.491   0.786   8.371  0.5536  0.0891 -0.4443
  187SAPI  C31521561   6.346   0.896   8.500  0.1041 -0.2765 -0.3888
  187SAPI  H15X21562   6.255   0.846   8.460 -1.5251  2.8981 -0.9129
  187SAPI  H15Y21563   6.325   1.003   8.516  2.5670 -0.0124  1.8185
  187SAPI  C31621564   6.382   0.846   8.646  0.7533  0.1820  0.2331
  187SAPI  H16X21565   6.410   0.740   8.629 -1.0981  0.0295 -2.4822
  187SAPI  H16Y21566   6.294   0.854   8.713 -0.7149  1.2808 -1.7182
  187SAPI  C31721567   6.502   0.928   8.709  0.6902 -0.4318 -0.5762
  187SAPI  H17X21568   6.479   1.036   8.726  3.0958  0.1595 -0.7890
  187SAPI  H17Y21569   6.589   0.933   8.641  1.0967 -2.0958 -0.2127
  187SAPI  C31821570   6.557   0.873   8.841  0.1862  0.2933  0.3894
  187SAPI  H18X21571   6.488   0.891   8.927  1.1889  3.7643  0.6202
  187SAPI  H18Y21572   6.654   0.919   8.870  1.2739 -0.9375 -1.1313
  187SAPI  H18Z21573   6.588   0.768   8.822 -0.5701  0.2347 -0.6196
  188SAPI   C1221574   1.977   5.702   5.936  0.0436 -0.0290  0.3805
  188SAPI    H221575   1.988   5.794   5.997  1.7070  0.7208 -0.9877
  188SAPI    O221576   1.846   5.717   5.887 -0.1587  0.7205  0.0172
  188SAPI   HO221577   1.783   5.708   5.958  0.3531  1.8537  0.6426
  188SAPI   C1321578   2.086   5.707   5.832  0.5047 -0.0856 -0.4943
  188SAPI    H321579   2.182   5.713   5.886  0.0789  0.5981  0.1921
  188SAPI    O321580   2.070   5.822   5.751  0.2524  0.1169  0.3523
  188SAPI   HO321581   2.159   5.850   5.730  0.1152  0.0378 -0.3498
  188SAPI   C1421582   2.079   5.579   5.751  0.1111  0.7515  0.0850
  188SAPI    H421583   1.992   5.578   5.681 -0.5604 -0.8425  0.8932
  188SAPI    O421584   2.190   5.575   5.663  0.2139 -0.7346 -0.3362
  188SAPI   HO421585   2.177   5.499   5.605  1.7220 -0.0499 -1.6687
  188SAPI   C1521586   2.082   5.457   5.839  0.0116 -0.2930 -0.5456
  188SAPI    H521587   2.180   5.459   5.891 -1.0459  0.6882  1.5284
  188SAPI    O521588   2.057   5.344   5.760  0.1572  0.3432  0.2938
  188SAPI   HO521589   2.005   5.290   5.821 -2.0387 -2.2316 -3.4588
  188SAPI   C1621590   1.972   5.466   5.952  0.4676 -0.2952  0.7630
  188SAPI    H621591   1.867   5.460   5.917  0.8590  1.8445 -0.9756
  188SAPI    O621592   2.003   5.351   6.037  0.5622 -0.3936 -0.0531
  188SAPI   HO621593   1.957   5.374   6.118  1.2393 -1.3793  0.6331
  188SAPI   C1121594   1.992   5.589   6.034 -0.1134  0.1403  0.1624
  188SAPI    H121595   2.099   5.586   6.065 -0.0562  0.2571 -0.0192
  188SAPI     P21596   1.932   5.582   6.303  0.5940  0.1876  0.0449
  188SAPI   O1321597   1.821   5.639   6.380  0.2900 -0.6536 -0.4436
  188SAPI   O1421598   2.066   5.640   6.312  0.2175 -0.0859 -0.2605
  188SAPI   O1221599   1.899   5.601   6.143 -0.4100  0.2680  0.6890
  188SAPI   O1121600   1.938   5.430   6.333  0.1274  1.1741  0.3904
  188SAPI    C121601   1.817   5.355   6.379 -0.6628 -0.6119 -0.1192
  188SAPI    HA21602   1.724   5.415   6.376  0.6214  1.4639 -0.4070
  188SAPI    HB21603   1.800   5.262   6.320  2.7421  0.1438 -2.6186
  188SAPI    C221604   1.821   5.317   6.531  0.5456  0.1985 -0.2478
  188SAPI    HS21605   1.720   5.275   6.552  0.7168 -0.3472 -0.4873
  188SAPI   O2121606   1.844   5.433   6.606  0.3182 -0.2795 -0.5187
  188SAPI   C2121607   1.744   5.516   6.633  0.6676  0.6040 -0.2384
  188SAPI   O2221608   1.630   5.505   6.589 -0.2471 -0.4804 -0.5489
  188SAPI   C2221609   1.780   5.628   6.727  0.2126 -0.3590  1.2524
  188SAPI   H2R21610   1.890   5.641   6.723  0.5200 -2.6947  0.6152
  188SAPI   H2S21611   1.734   5.725   6.698 -0.5086 -1.0013  0.1863
  188SAPI    C321612   1.925   5.208   6.561  0.4594 -0.5918 -0.4130
  188SAPI    HX21613   2.009   5.230   6.491  0.6495 -1.4655 -0.4771
  188SAPI    HY21614   1.891   5.110   6.521  2.3084 -0.8315 -1.5085
  188SAPI   O3121615   1.975   5.197   6.698  0.6341 -0.0449 -0.3839
  188SAPI   C3121616   1.887   5.162   6.788 -0.1254  0.5681  0.2744
  188SAPI   O3221617   1.767   5.146   6.776  0.0826  0.0767 -0.2587
  188SAPI   C3221618   1.964   5.156   6.922  0.0802  0.0990  0.3340
  188SAPI   H2X21619   2.073   5.151   6.900 -0.0865 -3.4663 -0.2302
  188SAPI   H2Y21620   1.930   5.057   6.959  0.5831  0.2060  1.1278
  188SAPI   C2321621   1.744   5.589   6.877  0.4308 -0.0243  0.1162
  188SAPI   H3R21622   1.788   5.490   6.902 -0.0516 -0.3819 -0.4239
  188SAPI   H3S21623   1.634   5.598   6.887  0.2995 -1.7949  0.6535
  188SAPI   C2421624   1.811   5.698   6.958 -0.6240 -0.0668  0.3872
  188SAPI   H4R21625   1.805   5.797   6.908  0.6018  0.0886  0.5145
  188SAPI   H4S21626   1.916   5.664   6.972 -0.6012 -0.3262 -0.3361
  188SAPI   C2521627   1.739   5.705   7.093  0.6979  0.1510 -0.1857
  188SAPI   H5R21628   1.629   5.704   7.092  0.6368 -0.1204  1.8144
  188SAPI   C2621629   1.796   5.706   7.215 -0.1968  0.1971 -0.0164
  188SAPI   H6R21630   1.729   5.722   7.300 -1.3658  3.8469 -1.4260
  188SAPI   C2721631   1.948   5.710   7.235  0.5231  0.0625  0.5594
  188SAPI   H7R21632   2.005   5.741   7.145 -0.2830  0.8050  0.2929
  188SAPI   H7S21633   1.979   5.605   7.252 -3.4528 -2.2148 -3.9379
  188SAPI   C2821634   2.001   5.796   7.347  0.1067 -0.2230  0.0429
  188SAPI   H8R21635   1.984   5.903   7.332 -1.5722 -0.6019 -1.0630
  188SAPI   C2921636   2.049   5.768   7.466 -0.8640  0.3344 -0.2812
  188SAPI   H9R21637   2.083   5.851   7.529  0.0838  1.2855 -1.9803
  188SAPI  C21021638   2.070   5.627   7.515  0.2236 -0.5093 -0.0569
  188SAPI  H10R21639   2.162   5.618   7.577  0.8022  3.1830 -0.1394
  188SAPI  H10S21640   2.096   5.554   7.436  0.0752 -0.0403 -0.5403
  188SAPI  C21121641   1.948   5.579   7.597  0.4611  0.3292 -0.1230
  188SAPI  H11R21642   1.850   5.617   7.563 -0.5063 -0.1701  1.9304
  188SAPI  C21221643   1.960   5.522   7.718  1.0803 -0.0730 -0.3778
  188SAPI  H12R21644   1.873   5.485   7.775  0.5601  0.7023 -0.6518
  188SAPI  C21321645   2.087   5.497   7.792  0.4028  0.5462 -0.6309
  188SAPI  H13R21646   2.179   5.504   7.729  0.1713  1.0868 -0.9160
  188SAPI  H13S21647   2.084   5.390   7.822 -1.1909  0.0629 -2.3290
  188SAPI  C21421648   2.123   5.594   7.909 -0.1728  1.0149 -0.0831
  188SAPI  H14R21649   2.132   5.701   7.888 -0.7643  0.9656 -0.6408
  188SAPI  C21521650   2.141   5.555   8.031  0.2463 -0.0924 -0.5243
  188SAPI  H15R21651   2.149   5.633   8.109  2.6307 -0.4551 -0.3361
  188SAPI  C21621652   2.122   5.414   8.084  0.8537 -0.1790  0.3033
  188SAPI  H16R21653   2.137   5.336   8.005 -0.6667  1.5600 -1.8223
  188SAPI  H16S21654   2.018   5.393   8.119  0.8495  0.1388  0.4843
  188SAPI  C21721655   2.222   5.392   8.195  0.1553 -0.9029  0.0127
  188SAPI  H17R21656   2.321   5.402   8.145 -0.7817 -0.9263 -1.9234
  188SAPI  H17S21657   2.215   5.284   8.218  1.8359 -0.7068  1.7440
  188SAPI  C21821658   2.179   5.467   8.323  0.5144 -0.4985  0.5571
  188SAPI  H18R21659   2.072   5.448   8.345 -0.5832  1.2762 -2.6090
  188SAPI  H18S21660   2.187   5.573   8.290  0.4429 -0.2307  1.3813
  188SAPI  C21921661   2.281   5.439   8.434 -0.2160  0.0174 -0.5106
  188SAPI  H19R21662   2.379   5.475   8.396  1.1906  0.6122  3.3145
  188SAPI  H19S21663   2.274   5.333   8.465 -1.0377  0.8506  2.4694
  188SAPI  C22021664   2.251   5.527   8.555  0.1127  0.6569 -0.1122
  188SAPI  H20R21665   2.234   5.631   8.519  2.1363  1.0177 -0.1051
  188SAPI  H20S21666   2.341   5.532   8.619 -1.0444 -3.0806  2.1120
  188SAPI  H20T21667   2.163   5.495   8.614 -0.2517  1.1213 -0.3948
  188SAPI   C3321668   1.918   5.264   7.019  0.0529 -0.7025 -0.4076
  188SAPI   H3X21669   1.807   5.265   7.020 -0.0195 -3.0282  0.5811
  188SAPI   H3Y21670   1.959   5.359   6.978 -0.2759  0.7766  2.4876
  188SAPI   C3421671   1.975   5.240   7.160 -0.9207 -0.7008  0.6030
  188SAPI   H4X21672   1.963   5.340   7.207 -1.7516  0.6187 -2.2083
  188SAPI   H4Y21673   2.081   5.227   7.127 -0.6284 -1.3853  1.7517
  188SAPI   C3521674   1.918   5.129   7.244  0.0528 -0.2386  0.4069
  188SAPI   H5X21675   1.963   5.033   7.210  1.2532  0.9423 -1.5191
  188SAPI   H5Y21676   1.809   5.115   7.227  0.4231 -0.5067 -2.0090
  188SAPI   C3621677   1.964   5.142   7.391 -0.1786 -0.2717  0.1203
  188SAPI   H6X21678   1.935   5.245   7.420  0.6749  0.7863 -2.5184
  188SAPI   H6Y21679   2.075   5.136   7.396 -0.2935 -1.5784  2.0947
  188SAPI   C3721680   1.896   5.032   7.474  0.5064 -0.5733 -0.6797
  188SAPI   H7X21681   1.907   4.931   7.428 -0.8995 -1.3139  0.5146
  188SAPI   H7Y21682   1.787   5.055   7.473  0.9304  1.6459 -0.9465
  188SAPI   C3821683   1.943   5.026   7.623 -0.3635 -0.3933  0.7244
  188SAPI   H8X21684   1.925   5.124   7.674  1.3906 -0.0164  0.6931
  188SAPI   H8Y21685   2.053   5.018   7.611 -0.3713  0.7427 -0.3253
  188SAPI   C3921686   1.887   4.914   7.709  0.2231 -0.2275 -0.9633
  188SAPI   H9X21687   1.901   4.821   7.649 -1.5449 -0.0878 -1.6547
  188SAPI   H9Y21688   1.776   4.923   7.712  0.2935  0.6996 -0.8346
  188SAPI  C31021689   1.940   4.910   7.860  0.2518  0.0889  0.1742
  188SAPI  H10X21690   2.041   4.864   7.852  0.9255  1.8140 -2.1417
  188SAPI  H10Y21691   1.874   4.842   7.918  1.0433 -2.3606 -1.6035
  188SAPI  C31121692   1.960   5.046   7.935 -0.4466 -0.1027  0.0695
  188SAPI  H11X21693   1.854   5.081   7.933 -0.3040  0.5150  1.7406
  188SAPI  H11Y21694   2.024   5.122   7.884 -0.4543  1.4603  2.2421
  188SAPI  C31221695   1.994   5.044   8.082  0.4604 -0.3044 -0.1427
  188SAPI  H12X21696   2.000   5.148   8.122 -5.3163  1.2936 -2.4212
  188SAPI  H12Y21697   2.091   4.990   8.092  1.0471  1.0320  2.4952
  188SAPI  C31321698   1.886   4.988   8.188  0.5873 -0.1727  0.0569
  188SAPI  H13X21699   1.926   4.982   8.291 -0.2074 -0.5980  0.3520
  188SAPI  H13Y21700   1.852   4.884   8.172 -0.5125 -0.0763  1.5104
  188SAPI  C31421701   1.756   5.069   8.192  0.0741 -0.6613 -0.2828
  188SAPI  H14X21702   1.684   5.020   8.261 -0.2574 -0.4292 -0.4606
  188SAPI  H14Y21703   1.722   5.064   8.086  0.2381  2.7374 -0.6240
  188SAPI  C31521704   1.762   5.213   8.239  0.1867  0.3014  0.0240
  188SAPI  H15X21705   1.856   5.257   8.199 -1.5836  0.6336 -4.2999
  188SAPI  H15Y21706   1.769   5.219   8.350  0.5408  0.4568 -0.0047
  188SAPI  C31621707   1.657   5.302   8.166 -0.1346 -0.2468  0.5737
  188SAPI  H16X21708   1.558   5.251   8.171  0.1970 -1.1071 -1.1201
  188SAPI  H16Y21709   1.690   5.306   8.060  0.5032 -2.3710  0.6404
  188SAPI  C31721710   1.649   5.439   8.241 -0.0892 -0.3103 -0.0456
  188SAPI  H17X21711   1.747   5.478   8.275 -0.7600  0.7108  0.7672
  188SAPI  H17Y21712   1.584   5.439   8.331 -0.3057 -2.5894 -0.1339
  188SAPI  C31821713   1.574   5.538   8.148 -0.0958  0.4354  0.0482
  188SAPI  H18X21714   1.465   5.517   8.143  0.0056 -0.7701  1.8432
  188SAPI  H18Y21715   1.626   5.524   8.051  1.0310 -0.0426  0.6991
  188SAPI  H18Z21716   1.578   5.646   8.172  0.1010  0.7477 -1.2900
  189POPC     N21717   4.133   5.444  11.067  0.3071  0.6256 -0.0838
  189POPC   C1221718   4.282   5.429  11.068 -0.0683  0.3645 -0.5297
  189POPC  H12A21719   4.300   5.347  11.136 -0.9116 -1.6335 -2.5740
  189POPC  H12B21720   4.321   5.519  11.112 -0.9114  0.7713 -0.6047
  189POPC   C1321721   4.063   5.311  11.041 -0.3011 -0.1839 -0.2977
  189POPC  H13A21722   4.096   5.237  11.112 -0.8460 -0.6101 -0.4891
  189POPC  H13B21723   3.955   5.311  11.042 -0.4346 -1.6865  3.8035
  189POPC  H13C21724   4.099   5.285  10.942  2.8900  0.0812  0.6556
  189POPC   C1421725   4.072   5.498  11.191 -0.7013 -0.6954 -0.5575
  189POPC  H14A21726   4.057   5.415  11.258 -1.0556 -1.8332 -2.0034
  189POPC  H14B21727   4.136   5.568  11.242 -1.9228  1.1135 -1.3876
  189POPC  H14C21728   3.981   5.554  11.170 -0.2486 -0.5704 -2.3794
  189POPC   C1521729   4.090   5.541  10.962 -0.3022 -0.0847  0.2186
  189POPC  H15A21730   4.137   5.634  10.991 -0.0371 -0.6232  1.6301
  189POPC  H15B21731   3.985   5.532  10.941 -0.3447 -1.7171  0.9634
  189POPC  H15C21732   4.142   5.517  10.871 -1.8863  1.5332 -1.1769
  189POPC   C1121733   4.352   5.404  10.924 -0.1853 -0.5117 -1.1528
  189POPC  H11A21734   4.461   5.413  10.947 -0.1707  1.0515 -1.7245
  189POPC  H11B21735   4.341   5.489  10.854  1.3467 -0.7067 -1.6799
  189POPC     P21736   4.351   5.141  10.895  0.0700  0.2464  0.2702
  189POPC   O1321737   4.233   5.060  10.865  0.1909 -0.0227  0.6919
  189POPC   O1421738   4.400   5.132  11.032  0.7667  0.1199  0.0846
  189POPC   O1221739   4.311   5.286  10.861 -0.0993 -0.0967  0.2345
  189POPC   O1121740   4.466   5.103  10.798 -0.4463  0.5558  0.0164
  189POPC    C121741   4.538   5.195  10.725  0.0672 -0.2556 -0.4679
  189POPC    HA21742   4.638   5.160  10.693  0.7032  1.9447 -1.0612
  189POPC    HB21743   4.555   5.284  10.788  0.6471  0.6244 -1.8106
  189POPC    C221744   4.482   5.256  10.593 -0.3050 -0.4621 -0.3330
  189POPC    HS21745   4.381   5.299  10.606  0.5199  1.0653  1.5093
  189POPC   O2121746   4.485   5.168  10.485  0.1604  0.3791  0.3179
  189POPC   C2121747   4.379   5.097  10.462  0.5058 -0.3143 -0.3171
  189POPC   O2221748   4.274   5.109  10.521 -0.3818  0.0750  0.1552
  189POPC   C2221749   4.409   4.989  10.355 -0.0187  0.3876 -0.4802
  189POPC   H2R21750   4.329   4.911  10.351  1.3198 -0.9961 -1.2873
  189POPC   H2S21751   4.499   4.937  10.393 -0.2047  0.4138  0.0027
  189POPC    C321752   4.580   5.376  10.558  0.0515 -0.1147  0.9331
  189POPC    HX21753   4.685   5.343  10.552  0.5890  1.7874 -2.2664
  189POPC    HY21754   4.567   5.438  10.650 -1.2043 -1.6213  1.8339
  189POPC   O3121755   4.535   5.440  10.432  0.3023 -0.9696 -0.2334
  189POPC   C3121756   4.611   5.420  10.327 -0.1458  0.4681 -0.0637
  189POPC   O3221757   4.718   5.357  10.329  0.6432  0.6379 -0.2903
  189POPC   C3221758   4.537   5.461  10.192 -0.8715 -0.3941  0.2059
  189POPC   H2X21759   4.542   5.572  10.187  1.8271 -0.3994  1.0787
  189POPC   H2Y21760   4.427   5.450  10.197 -1.0542 -0.3586 -2.3351
  189POPC   C2321761   4.444   5.037  10.207  0.6607  0.3781 -0.1368
  189POPC   H3R21762   4.541   5.091  10.198  2.3119 -2.4673 -0.6152
  189POPC   H3S21763   4.367   5.109  10.175  2.5445  2.2712 -0.6543
  189POPC   C2421764   4.439   4.919  10.105 -0.2561  0.2225 -0.3242
  189POPC   H4R21765   4.347   4.857  10.112  1.8759 -3.0950  0.2374
  189POPC   H4S21766   4.524   4.855  10.136 -0.9241 -0.0661  1.0037
  189POPC   C2521767   4.468   4.967   9.959  0.1880  0.3584 -0.1234
  189POPC   H5R21768   4.565   5.020   9.967 -1.2403  2.8170  5.4669
  189POPC   H5S21769   4.400   5.053   9.942  1.9074  1.5996 -0.9420
  189POPC   C2621770   4.452   4.857   9.853 -0.1749  0.6458  0.1737
  189POPC   H6R21771   4.350   4.813   9.848 -0.0226  0.4421 -1.5703
  189POPC   H6S21772   4.506   4.762   9.870 -2.0264 -0.1337  2.1497
  189POPC   C2721773   4.489   4.913   9.718  0.6052  0.1938 -0.4600
  189POPC   H7R21774   4.595   4.942   9.729  0.1535  1.3198  1.4089
  189POPC   H7S21775   4.433   5.003   9.684 -1.7280 -1.2468 -0.7367
  189POPC   C2821776   4.491   4.802   9.605  0.4065 -0.3977  0.0895
  189POPC   H8R21777   4.392   4.752   9.609 -0.9550  2.0737 -0.3475
  189POPC   H8S21778   4.570   4.734   9.642  0.1419 -0.0627  1.3072
  189POPC   C2921779   4.525   4.839   9.461  0.0887  0.1101  0.2473
  189POPC   H9121780   4.634   4.854   9.452  0.2819 -2.1434 -2.5880
  189POPC  C21021781   4.457   4.835   9.344  0.0323 -0.0443  0.0153
  189POPC  H10121782   4.512   4.850   9.250  0.6994 -1.9316  0.0752
  189POPC  C21121783   4.311   4.796   9.332 -0.1473 -0.3489  0.4878
  189POPC  H11R21784   4.263   4.772   9.429 -1.9520  0.1759 -0.2313
  189POPC  H11S21785   4.305   4.700   9.277 -2.4197 -0.1495  0.2991
  189POPC  C21221786   4.229   4.906   9.262  0.2779  1.0519  0.3471
  189POPC  H12R21787   4.236   5.006   9.309  1.1202  1.0833  0.1681
  189POPC  H12S21788   4.122   4.882   9.283  1.0799 -1.3262  2.1549
  189POPC  C21321789   4.251   4.933   9.110  0.0435  0.3817  0.0920
  189POPC  H13R21790   4.353   4.904   9.077 -0.7640 -2.6359 -0.1330
  189POPC  H13S21791   4.240   5.043   9.099 -0.2126  0.6053  2.1674
  189POPC  C21421792   4.152   4.857   9.014  0.2137  0.2247 -0.0407
  189POPC  H14R21793   4.138   4.924   8.927 -2.1173  0.0635  0.1438
  189POPC  H14S21794   4.051   4.827   9.051 -0.5092  2.3012 -0.1932
  189POPC  C21521795   4.207   4.723   8.949 -0.6433 -0.6006  0.6576
  189POPC  H15R21796   4.245   4.667   9.037 -3.3353 -0.1215  2.2361
  189POPC  H15S21797   4.300   4.750   8.895 -1.0613  2.4417  1.2745
  189POPC  C21621798   4.105   4.641   8.867 -0.8330  0.0543  0.2376
  189POPC  H16R21799   4.004   4.629   8.912 -0.7912  1.6770  0.8484
  189POPC  H16S21800   4.145   4.541   8.841  1.6389  1.0377 -0.0660
  189POPC  C21721801   4.069   4.715   8.736 -0.3349  0.2464 -0.4953
  189POPC  H17R21802   4.164   4.743   8.686  0.5157 -0.2870  0.7657
  189POPC  H17S21803   4.017   4.809   8.765  1.9756  1.0724  1.2961
  189POPC  C21821804   3.982   4.641   8.638  0.2025  0.5267 -0.0739
  189POPC  H18R21805   3.881   4.685   8.655  0.1036  0.2789 -0.0153
  189POPC  H18S21806   3.980   4.532   8.662  2.7509  0.3771 -0.2958
  189POPC  H18T21807   4.011   4.671   8.536  0.6737  2.0325  0.4831
  189POPC   C3321808   4.590   5.394  10.063 -0.3774 -0.4307 -0.5423
  189POPC   H3X21809   4.639   5.299  10.094  0.1113  0.5385  1.8985
  189POPC   H3Y21810   4.670   5.458  10.021 -1.1420 -0.0498 -1.4597
  189POPC   C3421811   4.483   5.355   9.960  0.1780 -0.1424 -0.1306
  189POPC   H4X21812   4.430   5.453   9.952  0.9619  0.2894 -0.1215
  189POPC   H4Y21813   4.419   5.277  10.006  0.9746 -0.5221  0.3501
  189POPC   C3521814   4.547   5.311   9.824  1.0335  0.2866  0.3078
  189POPC   H5X21815   4.580   5.206   9.840  1.9222  0.2830 -1.2905
  189POPC   H5Y21816   4.633   5.378   9.805  0.9525  0.1701 -0.5031
  189POPC   C3621817   4.457   5.302   9.692 -0.3833  0.5494 -0.1746
  189POPC   H6X21818   4.504   5.223   9.630 -1.8136 -0.8656  0.4591
  189POPC   H6Y21819   4.465   5.400   9.640  0.8427  0.8988  0.6475
  189POPC   C3721820   4.310   5.260   9.718  0.2347 -0.6512  0.2726
  189POPC   H7X21821   4.270   5.316   9.806  3.9619 -0.8977  2.3524
  189POPC   H7Y21822   4.314   5.153   9.748  1.0705 -0.2844  1.5848
  189POPC   C3821823   4.212   5.274   9.598  0.2267  0.3569  0.0465
  189POPC   H8X21824   4.252   5.201   9.525 -2.6425 -0.7791 -0.5378
  189POPC   H8Y21825   4.222   5.373   9.547 -0.2813  0.4391  0.0944
  189POPC   C3921826   4.070   5.248   9.636  0.9423  0.1878 -0.4010
  189POPC   H9X21827   4.035   5.344   9.680  2.1303  0.5201 -0.1493
  189POPC   H9Y21828   4.066   5.159   9.702  3.4033 -0.2369 -0.7121
  189POPC  C31021829   3.967   5.219   9.518 -0.0816 -0.6771 -0.1017
  189POPC  H10X21830   3.862   5.247   9.544 -0.7037 -1.0361 -2.0341
  189POPC  H10Y21831   3.964   5.111   9.491 -1.6109 -0.2369 -1.9394
  189POPC  C31121832   3.996   5.294   9.388 -0.6982  0.1184  0.6190
  189POPC  H11X21833   4.102   5.268   9.373 -0.8531 -0.5615  0.6555
  189POPC  H11Y21834   3.992   5.401   9.420  2.7280 -0.3177  3.0265
  189POPC  C31221835   3.925   5.274   9.256 -0.1581  0.4485  0.3068
  189POPC  H12X21836   3.820   5.308   9.269  0.8140  3.2440  1.5098
  189POPC  H12Y21837   3.920   5.164   9.237 -1.2563  1.0263 -3.4785
  189POPC  C31321838   3.983   5.349   9.134 -0.3558 -0.5600 -0.1981
  189POPC  H13X21839   4.094   5.352   9.133 -0.2367 -2.9374 -1.2545
  189POPC  H13Y21840   3.955   5.457   9.130 -0.2104 -0.4595  1.1166
  189POPC  C31421841   3.943   5.285   9.000  0.0746 -0.5175 -0.0640
  189POPC  H14X21842   3.956   5.175   9.004  2.2902 -0.2618  2.6317
  189POPC  H14Y21843   4.008   5.315   8.915  0.2684 -0.1993  0.1937
  189POPC  C31521844   3.794   5.309   8.959  0.5091  0.4202  0.3595
  189POPC  H15X21845   3.792   5.313   8.848  2.8194  0.1674  0.2782
  189POPC  H15Y21846   3.761   5.408   8.998  1.0174  1.3158 -1.3868
  189POPC  C31621847   3.688   5.205   9.007 -0.2717 -0.2316  0.1805
  189POPC  H16X21848   3.663   5.228   9.113 -1.4999 -3.5468  0.7277
  189POPC  H16Y21849   3.733   5.103   9.009  1.2086  0.3912  0.2872
  189POPC  H16Z21850   3.609   5.216   8.930 -1.0743 -1.7537  0.7372
  190POPC     N21851   3.897   0.706  11.161  0.3634 -0.3527 -0.8691
  190POPC   C1221852   3.758   0.771  11.190 -0.1295  0.1761 -0.2499
  190POPC  H12A21853   3.734   0.746  11.292  1.3002 -0.8162 -0.1394
  190POPC  H12B21854   3.682   0.715  11.137  1.9891 -3.1572 -0.0365
  190POPC   C1321855   4.000   0.764  11.256 -0.3552 -0.0502 -0.0317
  190POPC  H13A21856   4.014   0.871  11.257  1.9661 -0.2112 -2.7283
  190POPC  H13B21857   3.987   0.722  11.355 -0.0049 -2.7761 -1.0589
  190POPC  H13C21858   4.095   0.723  11.225 -1.0805 -0.6592 -1.5299
  190POPC   C1421859   3.894   0.558  11.184  0.7827  0.5506 -0.5391
  190POPC  H14A21860   3.864   0.528  11.284 -2.2704 -0.0015 -1.5036
  190POPC  H14B21861   3.807   0.518  11.134 -1.4640  1.2576  2.4777
  190POPC  H14C21862   3.980   0.501  11.153 -0.8676 -2.5875  0.2500
  190POPC   C1521863   3.947   0.731  11.025 -0.2148 -0.3679 -0.5656
  190POPC  H15A21864   3.890   0.677  10.951 -1.3880 -2.6129  1.8314
  190POPC  H15B21865   4.052   0.705  11.020  0.3653  1.5807  0.1898
  190POPC  H15C21866   3.944   0.838  11.005 -0.8920 -0.6036 -1.8145
  190POPC   C1121867   3.734   0.924  11.168  0.3314  0.3521  0.6314
  190POPC  H11A21868   3.817   0.984  11.210 -1.6466  2.2898  2.0478
  190POPC  H11B21869   3.641   0.940  11.228 -0.7244 -1.1784 -0.5291
  190POPC     P21870   3.757   1.080  10.958  0.1162 -0.2556  0.2139
  190POPC   O1321871   3.898   1.077  10.987  0.2571 -0.3031  0.3068
  190POPC   O1421872   3.677   1.197  11.002 -0.1401 -0.6874 -0.2666
  190POPC   O1221873   3.701   0.954  11.030 -0.4100  0.3469  0.3757
  190POPC   O1121874   3.734   1.043  10.799  0.7520 -0.0836 -0.4523
  190POPC    C121875   3.818   0.969  10.720 -0.0571  0.6868  0.6056
  190POPC    HA21876   3.756   0.878  10.703 -1.6269  2.1307 -2.3841
  190POPC    HB21877   3.908   0.932  10.772  0.1839  1.5310  0.8074
  190POPC    C221878   3.857   1.040  10.591  0.3914 -0.0270 -0.5165
  190POPC    HS21879   3.914   1.130  10.622  1.4988 -0.3827 -1.4447
  190POPC   O2121880   3.737   1.075  10.519 -0.0325  0.3894 -0.7514
  190POPC   C2121881   3.708   1.207  10.512  0.2442  0.6729 -0.5124
  190POPC   O2221882   3.766   1.295  10.568 -0.1320 -0.4444  0.1734
  190POPC   C2221883   3.604   1.227  10.405  0.4553  0.3088 -0.2339
  190POPC   H2R21884   3.600   1.338  10.392  0.9636  0.7623  2.6719
  190POPC   H2S21885   3.508   1.195  10.450  1.0274 -0.7537  0.2666
  190POPC    C321886   3.947   0.965  10.499 -0.3107  0.2316 -0.5561
  190POPC    HX21887   3.883   0.882  10.461  0.0298 -0.6058  0.6334
  190POPC    HY21888   4.030   0.921  10.558 -1.9915 -0.1444  1.6532
  190POPC   O3121889   3.993   1.041  10.388  0.1170 -0.1753  0.1309
  190POPC   C3121890   4.061   0.960  10.307  0.3781  1.1650  0.3619
  190POPC   O3221891   4.068   0.837  10.330 -0.4598 -0.1734 -0.0274
  190POPC   C3221892   4.118   1.039  10.193  0.4469  0.2850 -0.2920
  190POPC   H2X21893   4.182   1.119  10.236 -0.1044  1.4936 -1.6515
  190POPC   H2Y21894   4.033   1.093  10.145 -0.8665 -1.3343  0.1093
  190POPC   C2321895   3.630   1.152  10.272 -0.1560 -0.4603  0.0326
  190POPC   H3R21896   3.542   1.175  10.209  0.0675 -1.7477 -0.7633
  190POPC   H3S21897   3.644   1.043  10.289 -1.2432 -0.7844 -1.0349
  190POPC   C2421898   3.753   1.205  10.197  0.2057 -0.3499 -0.0211
  190POPC   H4R21899   3.844   1.184  10.258  1.6733 -2.4594 -2.7250
  190POPC   H4S21900   3.750   1.315  10.179 -1.5030 -0.9110 -4.2450
  190POPC   C2521901   3.764   1.145  10.056  0.8355 -0.7404 -0.5217
  190POPC   H5R21902   3.751   1.035  10.056  1.4147 -0.8124  0.4467
  190POPC   H5S21903   3.865   1.170  10.018  0.8700  2.2142  1.2185
  190POPC   C2621904   3.671   1.215   9.961 -1.6088  0.0100  0.0674
  190POPC   H6R21905   3.707   1.320   9.956  1.3962 -0.8305  1.4963
  190POPC   H6S21906   3.568   1.217  10.002 -1.8856  1.4554 -0.6231
  190POPC   C2721907   3.669   1.158   9.818 -0.0535 -0.1548 -0.3714
  190POPC   H7R21908   3.620   1.058   9.819  0.9603 -0.6920 -1.5668
  190POPC   H7S21909   3.776   1.142   9.791  0.1754 -0.5646  0.7245
  190POPC   C2821910   3.617   1.255   9.704 -0.5708  0.0235  0.2223
  190POPC   H8R21911   3.670   1.353   9.712 -0.9438  0.2801 -0.3508
  190POPC   H8S21912   3.511   1.282   9.725 -1.5545 -2.1107 -1.6024
  190POPC   C2921913   3.626   1.182   9.568  0.0143  0.4129 -0.0848
  190POPC   H9121914   3.544   1.115   9.539  0.1262 -0.4869  1.5971
  190POPC  C21021915   3.730   1.205   9.482 -0.2166  0.7784 -0.2719
  190POPC  H10121916   3.730   1.144   9.391  0.1624  1.9857 -1.1112
  190POPC  C21121917   3.843   1.300   9.495  0.2825  0.4173 -0.2704
  190POPC  H11R21918   3.940   1.256   9.527  0.8410  0.1664 -2.1921
  190POPC  H11S21919   3.817   1.381   9.566  1.9045  1.7829 -1.1399
  190POPC  C21221920   3.856   1.387   9.368  0.5777 -0.3623 -0.4503
  190POPC  H12R21921   3.952   1.442   9.385 -0.6636  2.7927 -2.6435
  190POPC  H12S21922   3.767   1.453   9.365 -0.5539 -1.7914  0.4792
  190POPC  C21321923   3.875   1.310   9.230  0.1939  0.4172  0.3094
  190POPC  H13R21924   3.781   1.258   9.203 -0.1013 -0.0005  2.0467
  190POPC  H13S21925   3.944   1.226   9.253 -0.1299  0.2318  0.6264
  190POPC  C21421926   3.938   1.399   9.117  0.2974  1.0863 -1.0417
  190POPC  H14R21927   3.961   1.323   9.040  1.5265  1.2576 -0.8620
  190POPC  H14S21928   4.034   1.444   9.150 -0.0052  0.5562  0.6997
  190POPC  C21521929   3.836   1.498   9.058 -0.5701  0.3555  0.1103
  190POPC  H15R21930   3.779   1.559   9.130  1.0411 -0.1637  1.9231
  190POPC  H15S21931   3.766   1.441   8.993 -0.0642 -0.1007 -0.0465
  190POPC  C21621932   3.910   1.611   8.980  0.5845  0.2848 -0.0554
  190POPC  H16R21933   3.980   1.659   9.052  0.0759  1.5118 -0.3381
  190POPC  H16S21934   3.838   1.692   8.952  1.3831  0.5592 -1.4414
  190POPC  C21721935   3.981   1.558   8.855  0.8382  0.5711  0.2942
  190POPC  H17R21936   3.912   1.508   8.784  0.6632  1.9952 -0.5650
  190POPC  H17S21937   4.052   1.478   8.886 -0.8662 -0.5350  1.5692
  190POPC  C21821938   4.057   1.671   8.784 -0.9844  0.6086 -0.5232
  190POPC  H18R21939   3.985   1.744   8.740  0.5548  1.5467 -1.5645
  190POPC  H18S21940   4.124   1.622   8.710 -0.6440  1.4838 -0.8026
  190POPC  H18T21941   4.122   1.715   8.862  1.1795 -2.8876 -0.1491
  190POPC   C3321942   4.186   0.961  10.089 -0.7758 -0.4121 -0.2925
  190POPC   H3X21943   4.103   0.897  10.051 -2.2313  1.0511  0.3012
  190POPC   H3Y21944   4.279   0.902  10.107  0.5739  0.9022 -2.4487
  190POPC   C3421945   4.237   1.045   9.961 -0.0078 -0.1288 -0.0726
  190POPC   H4X21946   4.337   1.091   9.977  0.8721 -1.9186 -0.2527
  190POPC   H4Y21947   4.161   1.126   9.960  0.1481  0.0168 -0.2885
  190POPC   C3521948   4.255   0.964   9.830  0.1739  0.2663  0.6746
  190POPC   H5X21949   4.177   0.885   9.825 -1.0639  1.4860 -0.1266
  190POPC   H5Y21950   4.347   0.902   9.823 -0.8813 -1.1835 -1.3444
  190POPC   C3621951   4.229   1.046   9.703  0.3820 -0.1683 -0.0147
  190POPC   H6X21952   4.134   1.103   9.714  0.4803  0.3479 -1.5925
  190POPC   H6Y21953   4.219   0.976   9.617  0.2564  1.0227 -1.0022
  190POPC   C3721954   4.346   1.138   9.666 -0.3890  0.0060 -0.1996
  190POPC   H7X21955   4.428   1.073   9.629 -0.9657 -1.8624  1.6188
  190POPC   H7Y21956   4.385   1.188   9.758  1.5846  0.2926 -1.1320
  190POPC   C3821957   4.310   1.249   9.564 -0.7595  0.4105  0.1003
  190POPC   H8X21958   4.403   1.307   9.544 -0.2700 -0.2356  0.4787
  190POPC   H8Y21959   4.237   1.324   9.603 -0.6554  0.6613 -0.1749
  190POPC   C3921960   4.254   1.197   9.429 -0.2992  0.1734  0.8913
  190POPC   H9X21961   4.143   1.195   9.427 -0.3043 -0.0163  1.2593
  190POPC   H9Y21962   4.296   1.097   9.404  2.7128  0.6605  3.4339
  190POPC  C31021963   4.283   1.291   9.311  0.3027  0.2722  0.6407
  190POPC  H10X21964   4.261   1.395   9.340 -1.1675  0.1085  0.1700
  190POPC  H10Y21965   4.215   1.260   9.228  0.0684  0.7192  0.6658
  190POPC  C31121966   4.429   1.286   9.265  0.6684  0.2277  0.3951
  190POPC  H11X21967   4.443   1.180   9.235 -3.9543 -0.1850 -1.1993
  190POPC  H11Y21968   4.501   1.314   9.344 -0.1761 -0.1619  1.3227
  190POPC  C31221969   4.456   1.356   9.135  0.1004 -0.1583 -0.2163
  190POPC  H12X21970   4.559   1.336   9.097  0.7120 -1.0570  1.7865
  190POPC  H12Y21971   4.456   1.462   9.169 -0.0154 -0.6596  1.4224
  190POPC  C31321972   4.353   1.348   9.021 -0.3806  0.1071  0.5562
  190POPC  H13X21973   4.265   1.399   9.065  0.0279 -0.3436  1.9737
  190POPC  H13Y21974   4.332   1.241   9.000  2.3247 -0.7423  1.6435
  190POPC  C31421975   4.396   1.425   8.892  0.2683  0.3235  0.2231
  190POPC  H14X21976   4.307   1.422   8.826  0.3247  2.2461  0.0122
  190POPC  H14Y21977   4.480   1.381   8.834 -1.3321 -1.5192 -0.7996
  190POPC  C31521978   4.432   1.574   8.927  0.6253  0.0817 -0.4413
  190POPC  H15X21979   4.528   1.581   8.982  0.9489 -3.0789 -0.4384
  190POPC  H15Y21980   4.353   1.627   8.985  1.6390  0.5951  0.5151
  190POPC  C31621981   4.468   1.667   8.809 -0.0879 -1.1412 -0.6011
  190POPC  H16X21982   4.522   1.758   8.841  0.9402 -1.8150 -0.3715
  190POPC  H16Y21983   4.376   1.700   8.756  1.6421 -0.3163 -3.3118
  190POPC  H16Z21984   4.538   1.618   8.738  1.0593  0.3320 -0.5295
  191POPC     N21985   3.281   2.190   6.543 -0.1369  0.0425  0.4292
  191POPC   C1221986   3.427   2.233   6.498  0.9775 -0.2694  0.4846
  191POPC  H12A21987   3.438   2.337   6.473  0.5035 -0.8028 -2.2073
  191POPC  H12B21988   3.450   2.187   6.403  0.5810  0.7282 -0.1102
  191POPC   C1321989   3.250   2.265   6.673  1.0368 -0.4584  0.3585
  191POPC  H13A21990   3.144   2.255   6.692  0.7629  0.3488 -0.6196
  191POPC  H13B21991   3.306   2.223   6.755 -1.6000 -1.9699  1.5072
  191POPC  H13C21992   3.267   2.371   6.675 -0.9840 -0.0869  0.7725
  191POPC   C1421993   3.178   2.231   6.431 -0.3009  0.4593  0.0757
  191POPC  H14A21994   3.185   2.169   6.343  1.6629 -0.9655  1.1333
  191POPC  H14B21995   3.074   2.229   6.459 -0.8300 -2.4811 -1.6821
  191POPC  H14C21996   3.207   2.331   6.404  0.6455 -0.1276 -1.2031
  191POPC   C1521997   3.278   2.037   6.559  0.0289 -0.4669  0.2600
  191POPC  H15A21998   3.339   2.011   6.644 -1.5822  3.2403  2.8282
  191POPC  H15B21999   3.316   1.991   6.469  1.6540  1.3082 -0.0050
  191POPC  H15C22000   3.177   2.003   6.577 -0.2712  1.3710  2.4770
  191POPC   C1122001   3.543   2.193   6.590  0.4897  0.4454 -0.0346
  191POPC  H11A22002   3.512   2.228   6.691 -1.2593  0.1184 -0.4299
  191POPC  H11B22003   3.636   2.248   6.565  2.5678 -2.8289 -0.0821
  191POPC     P22004   3.643   1.998   6.470 -0.0784 -0.0018  0.0359
  191POPC   O1322005   3.764   2.079   6.450 -0.3411 -0.3379 -0.3652
  191POPC   O1422006   3.561   1.984   6.347 -0.5220 -0.2039 -0.2490
  191POPC   O1222007   3.569   2.055   6.596 -0.0713  0.4890 -0.1223
  191POPC   O1122008   3.690   1.847   6.523 -0.1252 -0.0686 -0.2328
  191POPC    C122009   3.582   1.760   6.558 -0.3442  0.2903 -0.7280
  191POPC    HA22010   3.569   1.675   6.487 -0.3330 -0.8145  0.5550
  191POPC    HB22011   3.482   1.808   6.561  0.5634  2.2653  1.0182
  191POPC    C222012   3.611   1.694   6.697  0.1016  0.4693 -0.7744
  191POPC    HS22013   3.515   1.663   6.743  0.9154  0.7790  1.2265
  191POPC   O2122014   3.675   1.785   6.783 -0.6026  0.2215 -0.3887
  191POPC   C2122015   3.600   1.888   6.825 -0.0972  0.2653 -0.3197
  191POPC   O2222016   3.477   1.898   6.808  0.2011  0.5582 -0.0786
  191POPC   C2222017   3.678   1.992   6.902  0.6393  0.3403  0.8206
  191POPC   H2R22018   3.619   2.076   6.944  0.3888  0.3050  0.5385
  191POPC   H2S22019   3.743   2.042   6.828 -0.0834 -0.7965 -0.6354
  191POPC    C322020   3.711   1.574   6.686  0.4907  0.0236 -0.1922
  191POPC    HX22021   3.800   1.614   6.633  0.6968 -0.3899 -0.1654
  191POPC    HY22022   3.656   1.499   6.625  1.4565 -1.5288  0.7714
  191POPC   O3122023   3.739   1.512   6.810 -0.0615  0.2546 -0.5164
  191POPC   C3122024   3.850   1.548   6.875  0.2136  0.0530 -0.1898
  191POPC   O3222025   3.941   1.613   6.828 -0.2593  0.0018 -0.5287
  191POPC   C3222026   3.829   1.506   7.022 -0.3440  0.9226 -0.7168
  191POPC   H2X22027   3.745   1.433   7.025 -1.0189  1.6980 -0.3618
  191POPC   H2Y22028   3.803   1.596   7.083  0.0421  1.8395 -1.8727
  191POPC   C2322029   3.777   1.945   7.005  0.3913 -0.0091 -0.3602
  191POPC   H3R22030   3.872   2.003   7.004  0.5868 -0.1453  2.3801
  191POPC   H3S22031   3.800   1.837   6.993  0.1277  0.0846 -1.9115
  191POPC   C2422032   3.723   1.954   7.148 -0.2633 -0.5226 -0.0267
  191POPC   H4R22033   3.640   1.881   7.157 -1.1133  0.4110 -0.0593
  191POPC   H4S22034   3.678   2.056   7.150 -0.4616 -0.6033 -0.2371
  191POPC   C2522035   3.832   1.930   7.250  0.5247 -0.6172  0.0746
  191POPC   H5R22036   3.918   1.996   7.225 -1.5886  1.7945 -1.3484
  191POPC   H5S22037   3.863   1.823   7.252  0.6400 -0.7021 -2.8931
  191POPC   C2622038   3.768   1.959   7.391 -0.0057 -0.5037  0.1244
  191POPC   H6R22039   3.661   1.931   7.390 -0.5657  1.3146 -2.7499
  191POPC   H6S22040   3.757   2.068   7.409  1.4537 -0.0958 -1.2334
  191POPC   C2722041   3.859   1.904   7.495 -0.0633 -0.3318 -0.2695
  191POPC   H7R22042   3.962   1.936   7.467  0.2261 -2.7257 -2.3133
  191POPC   H7S22043   3.862   1.793   7.489 -0.8583 -0.3011 -3.5177
  191POPC   C2822044   3.828   1.954   7.636  0.8299 -0.1813 -0.2072
  191POPC   H8R22045   3.724   1.915   7.642  0.2376  1.2335 -0.8829
  191POPC   H8S22046   3.813   2.064   7.640  1.5317 -0.1201  2.2488
  191POPC   C2922047   3.911   1.904   7.758 -0.8683  0.0592  0.8143
  191POPC   H9122048   4.014   1.942   7.766  0.3412 -1.1989 -4.8313
  191POPC  C21022049   3.878   1.806   7.835  0.3942 -0.4345 -0.0596
  191POPC  H10122050   3.950   1.776   7.913  3.2206  0.7972 -2.0122
  191POPC  C21122051   3.761   1.718   7.822  0.2130 -0.2971 -0.2885
  191POPC  H11R22052   3.793   1.629   7.763  0.7887  0.5781 -1.3365
  191POPC  H11S22053   3.684   1.742   7.745 -1.0886  1.7160  1.5363
  191POPC  C21222054   3.687   1.702   7.965 -0.6139 -0.4566  0.0419
  191POPC  H12R22055   3.636   1.799   7.986 -0.0049  0.0029 -0.5349
  191POPC  H12S22056   3.766   1.684   8.041  0.5088 -0.2713 -1.0391
  191POPC  C21322057   3.590   1.591   7.962  0.4530  0.6047  0.1544
  191POPC  H13R22058   3.640   1.511   7.904  3.1762  2.7678 -0.6947
  191POPC  H13S22059   3.491   1.618   7.919  0.7637  1.6472  0.0591
  191POPC  C21422060   3.557   1.535   8.101 -0.0838 -0.4153 -0.8770
  191POPC  H14R22061   3.645   1.503   8.161  0.5407  3.3298  0.4747
  191POPC  H14S22062   3.490   1.449   8.082 -1.2934 -0.1049  1.5447
  191POPC  C21522063   3.483   1.639   8.193 -0.7142 -0.0295  0.3872
  191POPC  H15R22064   3.540   1.733   8.205 -1.4748  0.4191  0.5808
  191POPC  H15S22065   3.469   1.585   8.289 -1.4061 -2.1263 -0.8072
  191POPC  C21622066   3.350   1.690   8.136 -0.2144 -0.6903 -0.2274
  191POPC  H16R22067   3.273   1.612   8.123 -0.7668 -0.4531  1.4063
  191POPC  H16S22068   3.352   1.755   8.046  0.4860 -1.1362 -0.5406
  191POPC  C21722069   3.288   1.785   8.238 -0.1017  0.1426  0.4401
  191POPC  H17R22070   3.359   1.866   8.264  1.4094 -0.5676 -1.2936
  191POPC  H17S22071   3.265   1.729   8.331  0.9423 -1.6603 -0.3547
  191POPC  C21822072   3.171   1.842   8.175  0.0603  0.3931  0.1497
  191POPC  H18R22073   3.100   1.756   8.181  0.2405  0.3439  3.6596
  191POPC  H18S22074   3.198   1.873   8.072  1.1472  0.2076  0.3657
  191POPC  H18T22075   3.126   1.924   8.235  0.5800  0.2724  0.7158
  191POPC   C3322076   3.949   1.416   7.080  0.0862  0.3270  0.0516
  191POPC   H3X22077   4.042   1.474   7.066  0.3040 -0.2756 -1.1641
  191POPC   H3Y22078   3.974   1.327   7.019 -1.5651  0.0249 -0.2404
  191POPC   C3422079   3.937   1.366   7.222 -0.1353  0.1314 -0.0282
  191POPC   H4X22080   3.847   1.301   7.230  0.1349 -0.3874 -1.0296
  191POPC   H4Y22081   3.915   1.451   7.290  0.6366  1.9760 -2.0075
  191POPC   C3522082   4.067   1.284   7.245 -0.6993  0.0052 -0.1112
  191POPC   H5X22083   4.151   1.357   7.237 -0.6756  0.0129  0.1884
  191POPC   H5Y22084   4.092   1.209   7.167 -0.8381  0.0436 -0.1931
  191POPC   C3622085   4.057   1.206   7.381  0.0426  0.2182 -0.1755
  191POPC   H6X22086   4.131   1.124   7.399 -0.4326  0.2970  2.5754
  191POPC   H6Y22087   3.962   1.149   7.382 -0.3432  0.8537 -0.0227
  191POPC   C3722088   4.062   1.297   7.508  0.6808 -0.9757  0.7912
  191POPC   H7X22089   3.986   1.376   7.493  0.0848 -1.8608 -1.1978
  191POPC   H7Y22090   4.167   1.331   7.515 -0.1283  2.0777 -0.3798
  191POPC   C3822091   4.036   1.228   7.650 -0.1843 -0.5711  0.4913
  191POPC   H8X22092   4.112   1.147   7.655 -1.2004 -1.7012 -1.2101
  191POPC   H8Y22093   3.931   1.195   7.638 -1.0000  1.8649  0.2329
  191POPC   C3922094   4.051   1.320   7.769  0.0960  0.1758 -0.0618
  191POPC   H9X22095   3.976   1.403   7.769 -0.5217 -0.3750 -0.7850
  191POPC   H9Y22096   4.148   1.374   7.768  0.3877 -0.3479  0.0683
  191POPC  C31022097   4.051   1.253   7.910 -0.0294  0.2128  0.8114
  191POPC  H10X22098   4.147   1.198   7.915 -0.8557 -1.5822 -1.3964
  191POPC  H10Y22099   3.964   1.185   7.912 -0.6265  0.7801 -1.7836
  191POPC  C31122100   4.055   1.357   8.023  0.4227 -0.2944 -0.3842
  191POPC  H11X22101   3.961   1.416   8.019 -0.7783 -2.0524  0.5592
  191POPC  H11Y22102   4.143   1.425   8.023  0.3644 -0.2163 -0.0548
  191POPC  C31222103   4.053   1.280   8.160 -0.8581 -0.2859 -0.1005
  191POPC  H12X22104   4.133   1.204   8.175 -0.1289 -0.1598 -2.8407
  191POPC  H12Y22105   3.956   1.226   8.164 -0.5003 -0.9044  0.4257
  191POPC  C31322106   4.068   1.377   8.287  0.4873  0.7762 -0.7053
  191POPC  H13X22107   4.171   1.416   8.301  0.8830 -1.1290  2.6538
  191POPC  H13Y22108   4.058   1.317   8.379  2.0102  1.8449  0.2005
  191POPC  C31422109   3.970   1.485   8.293  0.5276  0.5171  0.3134
  191POPC  H14X22110   3.872   1.437   8.273  0.6301  0.6802 -0.6101
  191POPC  H14Y22111   3.980   1.562   8.214  1.6056 -0.2555 -0.3229
  191POPC  C31522112   3.948   1.551   8.432  0.4608  0.2795 -0.1759
  191POPC  H15X22113   4.029   1.624   8.453  1.7834 -1.0527 -0.4257
  191POPC  H15Y22114   3.960   1.469   8.506  2.3926  0.6091 -0.0544
  191POPC  C31622115   3.805   1.609   8.458 -0.1870  0.1766  0.4592
  191POPC  H16X22116   3.786   1.691   8.386  1.7970  0.2748 -0.0142
  191POPC  H16Y22117   3.785   1.646   8.561 -1.3994  1.4387 -0.2044
  191POPC  H16Z22118   3.731   1.528   8.442 -0.5154 -0.2183  3.3540
  192POPC     N22119   4.190   5.341   5.818  0.7036 -0.4041 -0.4907
  192POPC   C1222120   4.153   5.203   5.880  0.9418  0.4612 -0.2429
  192POPC  H12A22121   4.208   5.179   5.969  0.3291  2.3819  0.6975
  192POPC  H12B22122   4.178   5.128   5.806  0.7155 -1.7357  1.8096
  192POPC   C1322123   4.116   5.359   5.692  0.0305  0.4387  0.4384
  192POPC  H13A22124   4.118   5.460   5.654  0.3623  0.2146 -0.1543
  192POPC  H13B22125   4.155   5.289   5.620 -1.4421 -0.1038  0.1368
  192POPC  H13C22126   4.011   5.342   5.711 -0.1771  1.9898  0.8709
  192POPC   C1422127   4.164   5.457   5.914  0.1389  0.9569  0.2880
  192POPC  H14A22128   4.058   5.464   5.932 -0.1927 -0.5328 -0.9248
  192POPC  H14B22129   4.227   5.449   6.002 -0.8100 -1.6009  0.7947
  192POPC  H14C22130   4.187   5.544   5.854  2.8577 -0.0408 -0.2805
  192POPC   C1522131   4.331   5.340   5.778 -1.0051 -0.3419 -1.4011
  192POPC  H15A22132   4.394   5.321   5.864 -0.1814 -2.6183 -2.4410
  192POPC  H15B22133   4.355   5.442   5.751  2.5386 -1.0805 -1.5151
  192POPC  H15C22134   4.363   5.269   5.703  2.9967 -3.3380  2.5819
  192POPC   C1122135   4.006   5.190   5.922 -0.2001  0.4263  0.2234
  192POPC  H11A22136   3.943   5.232   5.841 -2.8443 -1.9331  0.9076
  192POPC  H11B22137   3.987   5.249   6.014 -1.1047  0.1766  0.2060
  192POPC     P22138   3.976   4.975   6.076  0.3375 -0.1159  0.5924
  192POPC   O1322139   4.083   5.043   6.151 -0.7100  0.4243  0.0182
  192POPC   O1422140   3.993   4.825   6.045 -0.6631 -0.1277  0.2223
  192POPC   O1222141   3.971   5.052   5.931  0.4741  0.3659 -0.3236
  192POPC   O1122142   3.826   4.988   6.141 -0.4146 -0.0852  0.4977
  192POPC    C122143   3.747   5.106   6.160  0.1518  0.1808 -1.0091
  192POPC    HA22144   3.677   5.099   6.075  0.8424 -0.1134 -1.5684
  192POPC    HB22145   3.818   5.192   6.154 -0.2202  0.6097  0.3186
  192POPC    C222146   3.674   5.110   6.293  0.1009  0.5776 -0.0439
  192POPC    HS22147   3.622   5.207   6.302  1.2090  1.1085  1.0188
  192POPC   O2122148   3.774   5.103   6.398 -0.0765  0.2344 -0.1140
  192POPC   C2122149   3.763   5.190   6.504  0.9751 -0.7089 -0.0372
  192POPC   O2222150   3.669   5.270   6.507 -0.3848 -0.3072 -0.1830
  192POPC   C2222151   3.879   5.190   6.599 -0.4468 -0.3049 -0.6918
  192POPC   H2R22152   3.943   5.276   6.569 -0.0015 -0.2390  0.4161
  192POPC   H2S22153   3.940   5.097   6.588  1.7803  0.7005  1.9923
  192POPC    C322154   3.561   5.003   6.317  0.1049  0.3197  0.6104
  192POPC    HX22155   3.616   4.906   6.315 -0.0890  0.2004  0.9077
  192POPC    HY22156   3.484   5.006   6.237  0.2726 -1.0276  0.3670
  192POPC   O3122157   3.498   5.016   6.447 -0.3163 -0.1803 -0.3698
  192POPC   C3122158   3.412   5.113   6.453  0.4216 -0.2375 -0.0262
  192POPC   O3222159   3.386   5.184   6.359  0.5244 -0.0557 -0.0544
  192POPC   C3222160   3.360   5.127   6.597 -0.6605  0.5319  0.0513
  192POPC   H2X22161   3.450   5.119   6.661 -1.0718 -0.1462  0.5631
  192POPC   H2Y22162   3.299   5.034   6.608 -0.0179  0.3327  2.2258
  192POPC   C2322163   3.838   5.193   6.751  0.3748 -0.5104 -0.5147
  192POPC   H3R22164   3.919   5.148   6.812  0.2988  0.0726  0.0279
  192POPC   H3S22165   3.743   5.145   6.781  1.4471 -2.4021 -0.0171
  192POPC   C2422166   3.845   5.342   6.794 -0.4623  1.0633 -0.4374
  192POPC   H4R22167   3.812   5.404   6.708  2.0131  1.3746 -1.2391
  192POPC   H4S22168   3.952   5.366   6.811 -0.3057 -0.9037  1.8993
  192POPC   C2522169   3.759   5.361   6.921 -0.3943  0.1912  0.3460
  192POPC   H5R22170   3.653   5.357   6.887 -0.0109  0.7858 -0.9662
  192POPC   H5S22171   3.780   5.464   6.959  0.1964  0.2713 -0.1900
  192POPC   C2622172   3.780   5.268   7.035  0.5103 -0.1851 -0.8246
  192POPC   H6R22173   3.888   5.241   7.038  0.7865  0.6171 -2.6588
  192POPC   H6S22174   3.723   5.173   7.025 -0.6170  0.2622  0.8589
  192POPC   C2722175   3.740   5.327   7.175 -0.2752  0.1687  0.3805
  192POPC   H7R22176   3.632   5.352   7.161 -0.6443 -1.7421 -0.4690
  192POPC   H7S22177   3.812   5.411   7.185  0.5086 -0.0824 -2.4589
  192POPC   C2822178   3.758   5.219   7.293 -0.3418 -0.1207 -0.0339
  192POPC   H8R22179   3.867   5.197   7.292  0.0056  1.2383  1.6685
  192POPC   H8S22180   3.694   5.130   7.277 -0.4771 -0.0032 -0.1547
  192POPC   C2922181   3.723   5.258   7.428  0.4419 -0.3808  0.0143
  192POPC   H9122182   3.636   5.324   7.436  0.3534 -0.4859 -0.0831
  192POPC  C21022183   3.792   5.242   7.542 -0.4486 -0.1927 -0.5870
  192POPC  H10122184   3.759   5.291   7.635 -1.4709 -0.0567 -1.0140
  192POPC  C21122185   3.921   5.175   7.561 -0.2107 -0.2053  0.2081
  192POPC  H11R22186   3.992   5.249   7.606  1.6301 -0.0074 -2.7526
  192POPC  H11S22187   3.965   5.146   7.463 -1.1134  1.2376 -0.6654
  192POPC  C21222188   3.904   5.047   7.650  0.5239  0.1827 -0.0314
  192POPC  H12R22189   3.986   4.978   7.620  0.5948  1.3466 -2.7833
  192POPC  H12S22190   3.805   4.999   7.637 -0.4278  2.2181 -0.6146
  192POPC  C21322191   3.923   5.090   7.798  0.9562 -0.1854  0.5796
  192POPC  H13R22192   3.827   5.133   7.833  0.7881 -0.4315  0.4174
  192POPC  H13S22193   3.996   5.173   7.809 -0.6984  1.3109  0.7425
  192POPC  C21422194   3.965   4.978   7.885 -0.2922 -0.6555  0.9214
  192POPC  H14R22195   4.076   4.966   7.887 -0.3012 -0.6510  1.9215
  192POPC  H14S22196   3.930   4.886   7.836 -1.3536  0.7809 -1.1531
  192POPC  C21522197   3.921   4.974   8.027 -0.0669 -0.2231  0.7031
  192POPC  H15R22198   3.827   4.916   8.038 -0.2133 -0.0611  0.3212
  192POPC  H15S22199   3.904   5.080   8.056  0.4385  0.2786 -0.7685
  192POPC  C21622200   4.027   4.921   8.112 -0.4454 -0.2165  0.2416
  192POPC  H16R22201   4.133   4.949   8.094  0.6715 -1.3940  4.1490
  192POPC  H16S22202   4.029   4.812   8.093 -0.5048 -0.4039  1.2671
  192POPC  C21722203   4.000   4.941   8.261 -0.0466 -0.1873 -0.5139
  192POPC  H17R22204   3.906   4.893   8.293 -0.0901 -0.7442 -1.4423
  192POPC  H17S22205   4.002   5.050   8.284  1.2948 -0.2870 -0.0666
  192POPC  C21822206   4.099   4.893   8.364 -0.3948  0.2092  0.5555
  192POPC  H18R22207   4.076   4.921   8.469  0.1989  1.3558  0.3973
  192POPC  H18S22208   4.203   4.922   8.337  0.0831 -1.6327  0.2743
  192POPC  H18T22209   4.093   4.783   8.358 -1.1074  0.3335 -2.6412
  192POPC   C3322210   3.276   5.249   6.626 -0.3732 -0.4286 -0.4588
  192POPC   H3X22211   3.191   5.253   6.555 -1.2509 -0.5523  0.5571
  192POPC   H3Y22212   3.339   5.340   6.615 -2.3088  1.1316  0.6025
  192POPC   C3422213   3.217   5.238   6.765  0.2585  0.5801 -0.0442
  192POPC   H4X22214   3.161   5.142   6.766  1.8252 -0.3525 -0.0852
  192POPC   H4Y22215   3.136   5.314   6.773 -0.8546 -0.5382 -0.3119
  192POPC   C3522216   3.315   5.253   6.876  0.6737  0.7497  0.2609
  192POPC   H5X22217   3.358   5.354   6.863  2.6924 -0.3066 -1.9817
  192POPC   H5Y22218   3.395   5.177   6.862 -0.9820 -0.8842 -0.9042
  192POPC   C3622219   3.236   5.239   7.006  0.0692  0.8732  0.2739
  192POPC   H6X22220   3.211   5.133   7.027 -0.5047  0.9380 -0.0404
  192POPC   H6Y22221   3.143   5.299   7.000 -0.8463 -0.5775 -0.8074
  192POPC   C3722222   3.317   5.290   7.128  0.1166  0.3099 -0.3127
  192POPC   H7X22223   3.344   5.394   7.101 -0.9992  0.6806 -0.0764
  192POPC   H7Y22224   3.413   5.235   7.138 -0.6697 -0.9256  0.8844
  192POPC   C3822225   3.244   5.276   7.260 -0.5407 -0.5212 -0.4112
  192POPC   H8X22226   3.183   5.183   7.268  0.4127 -1.1474 -0.3635
  192POPC   H8Y22227   3.173   5.362   7.264 -1.4541 -1.2819  0.9705
  192POPC   C3922228   3.343   5.277   7.377 -0.9569 -0.4591 -0.4142
  192POPC   H9X22229   3.424   5.354   7.369  0.4127 -1.9439 -1.5083
  192POPC   H9Y22230   3.386   5.175   7.388 -0.7627 -0.4956 -1.3927
  192POPC  C31022231   3.264   5.291   7.511 -0.0516 -0.1242 -0.0863
  192POPC  H10X22232   3.214   5.192   7.522  0.9692 -0.5793  0.5962
  192POPC  H10Y22233   3.193   5.376   7.501 -1.5689 -1.3063  0.3017
  192POPC  C31122234   3.347   5.294   7.634  0.6566  0.2539 -1.1368
  192POPC  H11X22235   3.412   5.384   7.627  0.2819  1.1086  3.2809
  192POPC  H11Y22236   3.414   5.206   7.643  1.7724  1.0808 -1.0103
  192POPC  C31222237   3.249   5.289   7.752 -0.2999 -0.4299 -0.1773
  192POPC  H12X22238   3.203   5.188   7.754  2.5173 -1.8157  1.8262
  192POPC  H12Y22239   3.184   5.375   7.726  2.3149  0.9255 -2.7574
  192POPC  C31322240   3.315   5.314   7.882 -0.6273 -0.0349  0.1318
  192POPC  H13X22241   3.344   5.421   7.893 -0.7316  0.0099 -0.0174
  192POPC  H13Y22242   3.409   5.256   7.890 -0.9895 -0.5333  0.8119
  192POPC  C31422243   3.233   5.287   8.011  0.2141 -0.0480  0.4421
  192POPC  H14X22244   3.213   5.178   8.025  0.4842 -0.2352 -0.5831
  192POPC  H14Y22245   3.132   5.333   8.005  0.3780  0.2079 -0.3947
  192POPC  C31522246   3.294   5.354   8.140 -0.3070  0.5882  0.5366
  192POPC  H15X22247   3.399   5.316   8.146 -1.5763 -3.4577 -0.1130
  192POPC  H15Y22248   3.238   5.304   8.222 -0.1962 -1.5470 -0.6053
  192POPC  C31622249   3.283   5.504   8.151  0.8041 -0.5733  0.1481
  192POPC  H16X22250   3.334   5.554   8.236 -2.3006  0.8853  1.3280
  192POPC  H16Y22251   3.176   5.532   8.161  1.3070  1.3209  0.7069
  192POPC  H16Z22252   3.317   5.558   8.060 -2.0289  0.2970 -0.4954
  193SOD    SOD22253   1.483   6.334  10.854 -0.1783  0.5378 -0.2078
  194SOD    SOD22254   6.396   2.711  15.010 -0.3345  0.1056 -0.0563
  195SOD    SOD22255   1.573   0.721  11.361 -0.4520 -0.2521 -0.2283
  196SOD    SOD22256   3.221   1.954   5.634  0.2458  0.0405 -0.2486
  197SOD    SOD22257   3.660   5.591  14.156  0.6820 -0.3513 -0.1253
  198SOD    SOD22258   0.968   6.433   5.922 -0.4154 -0.3180 -0.0210
  199SOD    SOD22259   2.225   3.841   0.286  0.8364 -0.0137  0.3411
  200SOD    SOD22260   5.209   6.007  11.388 -0.0988 -0.4821 -0.1773
  201SOD    SOD22261   3.098   0.312   4.841  0.2990 -0.1902 -0.3124
  202SOD    SOD22262   4.774   0.423  14.983  0.2111  0.0782 -0.1595
  203SOD    SOD22263   5.920   3.937   3.303  0.4861 -0.0128  0.0148
  204SOD    SOD22264   4.595   4.013  11.999  0.0908  0.0786  0.3502
  205SOD    SOD22265   1.717   3.345  10.892 -0.1088  0.1676 -0.1077
  206SOD    SOD22266   2.962   1.242  13.997  0.0609 -0.0965 -0.0571
  207SOD    SOD22267   2.463   6.176   2.587  0.1791 -0.0360  0.6242
  208SOD    SOD22268   2.710   4.403  14.318 -0.1340  0.2277  0.2229
  209SOD    SOD22269   3.874   4.633   6.064  0.1740  0.1291 -0.0482
  210SOD    SOD22270   1.921   1.688   1.157  0.4784 -0.2980  0.5998
  211SOD    SOD22271   1.468   0.438   5.198 -0.2487 -0.4787 -0.8422
  212SOD    SOD22272   4.284   4.965  12.703 -0.1409  0.2649  0.1118
  213SOD    SOD22273   2.812   2.225   4.018  0.5514 -0.0629  0.3886
  214SOD    SOD22274   6.150   0.174   0.418 -0.3690  0.5488  0.2340
  215SOD    SOD22275   5.756   1.559  12.042  0.1633 -0.0602 -0.1386
  216SOD    SOD22276   2.321   4.986  12.105  0.1715  0.0511 -0.2925
  217SOD    SOD22277   6.149   4.877  11.499  0.0182  0.5370 -0.1963
  218SOD    SOD22278   6.163   5.405  11.243  0.3879  0.2158 -0.1999
  219SOD    SOD22279   0.902   0.226  16.725  0.1715  0.2025 -0.1058
  220SOD    SOD22280   0.786   6.805   2.934 -0.1762  0.3386 -0.3726
  221SOD    SOD22281   4.653   2.887  11.353 -0.0898  0.0594  0.6344
  222SOD    SOD22282   3.491   5.953   5.387  0.3553  0.5338  0.1940
  223SOD    SOD22283   1.086   3.753   5.883 -0.2527  0.3347  0.1014
  224SOD    SOD22284   2.840   0.919  15.326 -0.4609  0.0098  0.0846
  225SOD    SOD22285   0.832   1.603   5.469  0.2833  0.1898  0.0322
  226SOD    SOD22286   6.015   4.300  16.111 -0.1380 -0.4104  0.3463
  227SOD    SOD22287   5.938   2.103   5.164  0.0721  0.1868  0.0410
  228SOD    SOD22288   1.343   0.477  15.209 -0.3525  0.1503  0.3610
  229SOD    SOD22289   1.063   3.295   4.504 -0.1392  0.0165  0.7037
  230SOD    SOD22290   1.177   3.364   6.216 -0.4244 -0.2862  0.1204
  231SOD    SOD22291   0.436   5.734  14.651 -0.1942 -0.2427 -0.4391
  232SOD    SOD22292   1.655   4.524  14.523 -0.1423 -0.1991 -0.1156
  233SOD    SOD22293   6.662   1.260   5.686  0.4292 -0.4637 -0.2409
  234SOD    SOD22294   4.557   1.047  10.757  0.0147  0.4239 -0.1124
  235SOD    SOD22295   0.046   0.366  14.733 -0.3282 -0.3156 -0.5180
  236SOD    SOD22296   4.332   5.266  11.520 -0.5205  0.0251  0.0399
  237SOD    SOD22297   5.013   0.297   1.369 -0.0141 -0.3127  0.1409
  238SOD    SOD22298   0.449   4.688  11.365 -0.0086 -1.0638 -0.0407
  239SOD    SOD22299   6.263   2.644   4.813 -0.5645 -0.5121  0.0572
  240SOD    SOD22300   5.723   2.117   2.118  0.2424  0.4985 -0.2194
  241SOD    SOD22301   2.135   6.791   0.966 -0.2343 -0.1916  0.2183
  242SOD    SOD22302   3.636   4.352  10.723  0.2767  0.6706  0.1042
  243SOD    SOD22303   1.298   3.953  11.349 -0.5693  0.2217 -0.2835
  244SOD    SOD22304   6.626   1.899   4.519 -0.2531 -0.0267 -0.2558
  245SOD    SOD22305   3.903   6.180   2.896 -0.1965 -0.1953  0.5213
  246SOD    SOD22306   6.738   4.533  10.322  0.1582 -0.5638 -0.2275
  247SOD    SOD22307   0.443   3.964  13.737  0.2058 -0.1560 -0.6135
  248SOD    SOD22308   0.326   3.002   2.387 -0.1451  0.2411  0.0735
  249SOD    SOD22309   5.523   2.801  12.141  0.1108  0.3253 -0.0232
  250SOD    SOD22310   2.173   0.361   3.803  0.0482  0.2092  0.2435
  251SOD    SOD22311   5.203   1.002   5.157 -0.7284  0.2284  0.1418
  252SOD    SOD22312   5.417   4.562  11.028 -0.1849 -0.1500 -0.4153
  253SOD    SOD22313   3.576   5.473   1.166  0.3125  0.0202 -0.2958
  254SOD    SOD22314   0.127   1.354   6.452 -0.4429 -0.1955  0.3979
  255SOD    SOD22315   0.538   6.552   3.861  0.4367 -0.2304  0.1996
  256SOD    SOD22316   4.923   4.116  14.820  0.3328  0.2216  0.1264
  257SOD    SOD22317   5.121   5.977  12.471 -0.1365 -0.3247  0.5945
  258SOD    SOD22318   0.859   3.722   1.213 -0.1445  0.6875  0.4036
  259SOD    SOD22319   3.655   4.540  12.766  0.2166 -0.5589  0.5675
  260SOD    SOD22320   0.309   4.125   0.040 -0.1464  0.0592 -0.4643
  261SOD    SOD22321   5.031   4.411   2.920  0.2593  0.0738  0.1693
  262SOD    SOD22322   3.650   1.754  11.254  0.8650  0.1040  0.3261
  263SOD    SOD22323   4.776   5.070   5.748  0.1710 -0.5454 -0.1907
  264SOD    SOD22324   3.820   4.166   0.017 -0.3781  0.3332 -0.1769
  265SOD    SOD22325   1.293   2.544  11.601  0.4795  0.0248  0.2089
  266SOD    SOD22326   1.641   5.473   0.865 -0.0736  0.4686  0.0246
  267SOD    SOD22327   5.321   4.583  16.092 -0.0188  0.1723 -0.1473
  268SOD    SOD22328   2.344   4.638   4.417  0.2606  0.1547  0.1761
  269SOD    SOD22329   2.021   3.863   3.211  0.0659  0.1836  0.1396
  270CLA    CLA22330   3.588   5.626  13.661 -0.1903  0.3166 -0.1293
  271CLA    CLA22331   6.688   1.833  15.646  0.1533 -0.2602 -0.3215
  272CLA    CLA22332   4.421   1.128  14.157 -0.6534  0.1673 -0.0322
  273CLA    CLA22333   6.042   4.762  12.866  0.1313  0.1107  0.2937
  274CLA    CLA22334   1.441   5.379   1.554  0.0132  0.2041  0.0444
  275CLA    CLA22335   0.944   0.719   3.755 -0.0999 -0.2454 -0.3171
  276CLA    CLA22336   1.953   3.820  11.654  0.5163  0.1308 -0.1587
  277CLA    CLA22337   6.484   6.256  14.500  0.0288  0.2264  0.2313
  278CLA    CLA22338   3.821   2.438  12.001  0.0582  0.2363  0.3921
  279CLA    CLA22339   1.724   1.268   4.100  0.2900  0.2731 -0.1818
  280CLA    CLA22340   0.757   5.878   2.678  0.1108  0.0959 -0.0681
  281CLA    CLA22341   0.315   1.654  14.830  0.4024  0.1101  0.3630
  282CLA    CLA22342   4.634   2.069  14.661  0.2719 -0.4973  0.2419
  283CLA    CLA22343   5.035   2.713  12.490 -0.0550  0.4853 -0.7085
  284CLA    CLA22344   4.261   6.607  13.437  0.0819  0.3681 -0.4238
  285CLA    CLA22345   6.760   0.764  14.901 -0.0586  0.2049  0.3878
  286CLA    CLA22346   3.217   5.742   0.892 -0.1661  0.1100  0.3736
  287CLA    CLA22347   2.294   5.559  11.050  0.0855  0.1381 -0.3601
  288CLA    CLA22348   1.489   1.888  14.135 -0.0268  0.1470  0.3707
  289CLA    CLA22349   4.639   4.258  15.335 -0.0691  0.0031  0.2067
  290CLA    CLA22350   0.970   2.221   5.075  0.1555  0.0292 -0.0972
  291CLA    CLA22351   2.234   0.568   4.742  0.3992 -0.2060  0.2744
  292CLA    CLA22352   1.585   4.629   2.923  0.0212 -0.0530 -0.4461
  293CLA    CLA22353   0.471   3.708  13.835  0.0810  0.1208  0.4441
  294CLA    CLA22354   1.338   2.607  16.260  0.0974 -0.1607 -0.3947
  295CLA    CLA22355   2.770   1.259  15.758  0.3548 -0.2049 -0.3007
  296CLA    CLA22356   1.989   5.039  14.696  0.2861  0.1577 -0.5185
  297CLA    CLA22357   3.042   5.988   3.931 -0.1813 -0.5643 -0.1368
  298CLA    CLA22358   6.616   0.523   3.821 -0.3163  0.3901 -0.0760
  299CLA    CLA22359   2.903   2.928   2.696 -0.1850  0.2301  0.3356
  300CLA    CLA22360   6.700   5.539   5.449  0.2746  0.4590  0.4415
  301CLA    CLA22361   4.671   3.925  13.881  0.1919 -0.0435 -0.0472
  302CLA    CLA22362   3.472   0.524   4.928  0.4046 -0.0788 -0.3570
  303CLA    CLA22363   3.092   2.201   5.235 -0.5203  0.0936  0.2473
  304CLA    CLA22364   0.338   2.116   2.583 -0.6512 -0.5599  0.2080
  305CLA    CLA22365   3.869   0.649   0.299 -0.0790 -0.3197 -0.1328
  306CLA    CLA22366   6.098   6.163   5.494  0.2260  0.1159 -0.1097
  307CLA    CLA22367   2.174   4.037   0.455 -0.5787  0.0140  0.2232
  308CLA    CLA22368   3.959   6.481   1.609 -0.2786  0.0398 -0.1312
  309CLA    CLA22369   4.689   3.334   0.857 -0.1974  0.4212 -0.1965
  310CLA    CLA22370   3.288   4.124  14.224 -0.0768  0.5260 -0.2641
  311CLA    CLA22371   4.339   5.835   3.902 -0.1253 -0.0985  0.1004
  312CLA    CLA22372   0.925   6.390  16.647 -0.1134 -0.1034 -0.1693
  313CLA    CLA22373   1.629   2.176   0.860  0.0836 -0.0678 -0.3492
  314CLA    CLA22374   0.312   3.437   1.791 -0.1062 -0.2139 -0.0918
  315CLA    CLA22375   1.982   4.426  12.614  0.5755  0.2390  0.1802
  316CLA    CLA22376   1.118   2.790   2.853  0.0150 -0.0333  0.1141
  317CLA    CLA22377   2.743   4.508  14.987  0.4471 -0.0874 -0.0157
  318CLA    CLA22378   4.632   4.872   0.215 -0.1905  0.0029 -0.4712
  319CLA    CLA22379   6.256   6.047  11.619 -0.1179  0.1156  0.0711
  320CLA    CLA22380   5.349   4.058   4.710 -0.7378  0.0992  0.4086
  321CLA    CLA22381   5.706   5.147  15.614  0.3744  0.3581 -0.1130
  322CLA    CLA22382   5.136   5.158  17.063  0.0648  0.2392  0.3509
  323TIP3   OH222383   2.407   4.449  13.817 -0.5053  0.1539  0.0809
  323TIP3    H122384   2.415   4.361  13.782 -1.1267  0.0901  0.0863
  323TIP3    H222385   2.403   4.506  13.740  0.0085  0.1883  0.0789
  324TIP3   OH222386   2.728   0.479   3.491  0.0758  0.5052  0.2230
  324TIP3    H122387   2.691   0.393   3.511  0.9667  0.3580  1.3310
  324TIP3    H222388   2.673   0.541   3.538  0.3312  0.4118  0.6475
  325TIP3   OH222389   2.090   3.633   6.662  0.4735 -0.3640  0.5757
  325TIP3    H122390   2.156   3.569   6.634  0.0992 -0.5569  0.1086
  325TIP3    H222391   2.120   3.716   6.627 -0.6976 -0.8157 -1.6920
  326TIP3   OH222392   2.100   3.709   5.077  0.1999 -0.0039 -0.0973
  326TIP3    H122393   2.078   3.799   5.103 -0.5147  0.2776 -1.5715
  326TIP3    H222394   2.120   3.665   5.159  0.9160  1.5958  0.6342
  327TIP3   OH222395   5.397   3.172   0.970  0.9588 -0.1989  0.1458
  327TIP3    H122396   5.373   3.164   1.062  0.8935  0.9232  0.2430
  327TIP3    H222397   5.351   3.251   0.940  1.9503  0.1440 -0.5158
  328TIP3   OH222398   6.561   5.314   5.063 -0.3164  0.0569  0.0269
  328TIP3    H122399   6.576   5.407   5.080 -0.5215  0.0353  0.3300
  328TIP3    H222400   6.466   5.306   5.054 -0.3462 -0.2074  0.5217
  329TIP3   OH222401   6.304   5.115  12.351 -0.4511  0.1092 -0.2123
  329TIP3    H122402   6.235   5.164  12.396 -0.0023 -0.0384  0.6452
  329TIP3    H222403   6.303   5.029  12.393 -0.4521 -0.2455 -0.9219
  330TIP3   OH222404   3.476   4.326  10.556  0.2952 -0.2614  0.0301
  330TIP3    H122405   3.389   4.291  10.578  0.4853 -1.9257 -1.5295
  330TIP3    H222406   3.465   4.362  10.467  0.9272  0.6329  0.2999
  331TIP3   OH222407   0.031   4.364   4.340  0.4747  0.2605 -0.2683
  331TIP3    H122408   0.126   4.373   4.338  0.6343  0.6594  3.2376
  331TIP3    H222409   0.016   4.272   4.363 -0.0154  0.2418 -0.6313
  332TIP3   OH222410   1.467   0.829  11.980 -0.0599  0.0465 -0.0306
  332TIP3    H122411   1.389   0.824  12.035 -0.1242  0.0683 -0.1223
  332TIP3    H222412   1.447   0.774  11.904  0.0402 -0.0053 -0.0209
  333TIP3   OH222413   1.994   1.160  13.030 -0.1378  0.3622 -0.1022
  333TIP3    H122414   2.064   1.165  13.095  2.5968 -0.1016 -2.7355
  333TIP3    H222415   2.037   1.184  12.948 -2.7868 -1.1873 -2.1160
  334TIP3   OH222416   5.462   3.455  13.710 -0.3091 -0.3573  0.0666
  334TIP3    H122417   5.450   3.380  13.768 -2.4305 -1.7185 -1.9840
  334TIP3    H222418   5.521   3.424  13.642 -2.8065 -1.0292 -1.9621
  335TIP3   OH222419   5.367   3.395   5.454 -0.2351 -0.3590 -0.4423
  335TIP3    H122420   5.330   3.311   5.427 -1.0297 -1.2908  3.0748
  335TIP3    H222421   5.451   3.373   5.494 -0.3602  0.5208  0.3377
  336TIP3   OH222422   1.656   1.414   2.026  0.0897 -0.0237  0.0970
  336TIP3    H122423   1.626   1.343   1.969 -1.1890 -0.9254  1.7985
  336TIP3    H222424   1.616   1.492   1.989  0.5701 -0.3383 -1.1319
  337TIP3   OH222425   3.076   0.004   3.919  0.2202 -0.5546 -0.1467
  337TIP3    H122426   3.105   0.012   3.828 -0.7078  0.0778 -0.3895
  337TIP3    H222427   3.076   0.093   3.952 -1.1880 -0.5584 -0.0791
  338TIP3   OH222428   1.766   3.694  14.903 -0.6717 -0.3506  0.1785
  338TIP3    H122429   1.744   3.621  14.844  1.9917  0.0180 -1.4539
  338TIP3    H222430   1.833   3.658  14.962 -2.3668 -0.3327  2.2095
  339TIP3   OH222431   1.411   6.757   0.579 -0.4124 -0.1800  0.1350
  339TIP3    H122432   1.444   6.782   0.492 -0.0611 -2.5485 -0.4650
  339TIP3    H222433   1.320   6.789   0.580  0.3782  2.3384  0.0421
  340TIP3   OH222434   6.134   6.170  15.832 -0.4932  0.0022  0.6846
  340TIP3    H122435   6.213   6.155  15.883  0.0049  0.4095  0.0573
  340TIP3    H222436   6.121   6.265  15.836  0.0434  0.1608 -0.6116
  341TIP3   OH222437   0.968   3.508   2.578 -0.5981 -0.2231 -0.0108
  341TIP3    H122438   1.008   3.465   2.502 -2.8045 -1.4697 -0.5517
  341TIP3    H222439   1.037   3.509   2.644  0.5400 -1.6121 -1.1105
  342TIP3   OH222440   2.693   3.256   2.289 -0.3235 -0.4384  0.0353
  342TIP3    H122441   2.673   3.331   2.346  0.3875 -0.6163  0.5295
  342TIP3    H222442   2.626   3.260   2.220 -1.5375 -0.5185  1.1612
  343TIP3   OH222443   5.241   2.825  16.717  0.4211 -0.3649 -0.0366
  343TIP3    H122444   5.241   2.753  16.654 -0.7881 -0.7005  0.3047
  343TIP3    H222445   5.217   2.783  16.800  1.7410  0.1019  0.6145
  344TIP3   OH222446   1.103   0.387  11.547  0.2541 -0.2231  0.4931
  344TIP3    H122447   1.113   0.383  11.642  0.3155 -0.9330  0.4572
  344TIP3    H222448   1.164   0.321  11.513 -0.0623 -0.2586 -0.0180
  345TIP3   OH222449   5.327   2.358   5.462 -0.5433  0.2818 -0.3915
  345TIP3    H122450   5.359   2.437   5.418 -3.5076  0.8069 -1.8536
  345TIP3    H222451   5.333   2.380   5.555  0.6971  1.3394 -0.6768
  346TIP3   OH222452   6.680   6.646  13.351  0.3614 -0.0732  0.6465
  346TIP3    H122453   6.629   6.594  13.290 -0.4795  1.3291  0.1015
  346TIP3    H222454   6.732   6.705  13.296  1.1043 -0.1476  1.2431
  347TIP3   OH222455   3.418   0.245  15.399 -0.2972 -0.0450  0.5449
  347TIP3    H122456   3.325   0.262  15.407 -1.0128 -3.2661  0.6079
  347TIP3    H222457   3.438   0.260  15.307 -1.3348 -0.9724  0.1430
  348TIP3   OH222458   5.866   6.664   2.738 -0.3604 -0.0583  0.3137
  348TIP3    H122459   5.953   6.625   2.730  0.0572 -0.2751  3.9809
  348TIP3    H222460   5.881   6.758   2.727  0.3886 -0.0893  0.9628
  349TIP3   OH222461   3.415   4.999   5.801 -0.2256 -0.1633 -0.2280
  349TIP3    H122462   3.439   4.916   5.843 -2.5223 -1.8960 -2.0779
  349TIP3    H222463   3.373   5.050   5.870 -2.5722 -2.3355  0.1072
  350TIP3   OH222464   2.856   3.438  13.644 -0.2242  0.4108 -0.1149
  350TIP3    H122465   2.773   3.405  13.612 -0.1858 -0.2954  0.4986
  350TIP3    H222466   2.860   3.411  13.736  0.5508  0.6871 -0.0556
  351TIP3   OH222467   5.939   5.446  12.373 -0.0040  0.1180 -0.6157
  351TIP3    H122468   5.952   5.533  12.410  0.3352  0.1844 -0.8873
  351TIP3    H222469   5.869   5.457  12.309 -0.0418  0.1656 -0.5659
  352TIP3   OH222470   0.569   1.186  15.447 -0.0978 -0.3252 -0.1809
  352TIP3    H122471   0.609   1.159  15.529  0.5760  0.2337 -0.3138
  352TIP3    H222472   0.496   1.243  15.473  0.9392  0.9645  0.0272
  353TIP3   OH222473   0.950   3.154  15.835 -0.4223  0.5784  0.3078
  353TIP3    H122474   0.901   3.074  15.851 -0.1788  0.6003  1.1790
  353TIP3    H222475   1.041   3.131  15.853 -0.3116  0.9728  0.2619
  354TIP3   OH222476   1.208   1.097   1.284  0.3709 -0.1320  0.0496
  354TIP3    H122477   1.239   1.029   1.344 -0.6771 -0.4736  0.2314
  354TIP3    H222478   1.120   1.068   1.260 -0.3089  1.4300  0.5431
  355TIP3   OH222479   5.490   1.391   4.275  0.2680  0.2997  0.0348
  355TIP3    H122480   5.419   1.385   4.339 -0.6628  0.0768 -0.9954
  355TIP3    H222481   5.543   1.312   4.290  0.0476  0.2401  0.5072
  356TIP3   OH222482   3.440   6.800   1.781 -0.3880  0.3260  0.3004
  356TIP3    H122483   3.433   6.750   1.700 -0.3329 -1.2680  1.2377
  356TIP3    H222484   3.532   6.789   1.808 -0.4300  0.7574  0.6298
  357TIP3   OH222485   5.811   1.863  16.790 -0.1708  0.0214  1.0111
  357TIP3    H122486   5.800   1.787  16.847  0.3583 -0.0945  0.9595
  357TIP3    H222487   5.877   1.836  16.726  1.7058  1.2798  2.3250
  358TIP3   OH222488   3.940   5.216   1.733 -0.2750  0.0253  0.3372
  358TIP3    H122489   3.919   5.190   1.823 -1.1508 -0.9849 -0.1371
  358TIP3    H222490   3.995   5.294   1.743 -2.0755  1.2138  1.7171
  359TIP3   OH222491   0.186   3.575  13.776  0.3430  0.4751  0.1108
  359TIP3    H122492   0.265   3.622  13.801  0.0363  0.1774  1.7223
  359TIP3    H222493   0.169   3.515  13.848 -1.6995  0.9564  0.0964
  360TIP3   OH222494   0.825   2.246  12.271 -0.2272  0.2177 -0.0980
  360TIP3    H122495   0.805   2.301  12.195 -0.8451  0.3649  0.1636
  360TIP3    H222496   0.841   2.307  12.342  1.0558  0.0959 -0.2616
  361TIP3   OH222497   1.749   4.988  15.902  0.6441  0.2998  0.5189
  361TIP3    H122498   1.805   4.946  15.967  1.1490  0.7992  0.4186
  361TIP3    H222499   1.687   4.920  15.876  1.0800 -0.2049  0.7801
  362TIP3   OH222500   5.264   1.976  12.370 -0.7419 -0.0211  0.2519
  362TIP3    H122501   5.272   1.933  12.455 -2.7896 -1.5782 -0.2377
  362TIP3    H222502   5.172   2.002  12.365 -0.2165  1.8289 -0.7262
  363TIP3   OH222503   0.589   3.726   1.926  0.5426 -0.2037  0.0127
  363TIP3    H122504   0.537   3.804   1.912 -0.4520 -1.1106 -1.6402
  363TIP3    H222505   0.679   3.758   1.939  0.2419  1.1763 -1.1913
  364TIP3   OH222506   3.152   6.130   5.914 -0.7093  0.1008  0.4678
  364TIP3    H122507   3.075   6.184   5.929 -0.2957  0.6891  0.5162
  364TIP3    H222508   3.192   6.119   6.001  0.0237  0.9706  0.2508
  365TIP3   OH222509   3.984   1.261  15.587 -0.5952 -0.4260 -0.3557
  365TIP3    H122510   4.068   1.304  15.605  0.2482 -2.9211  2.4923
  365TIP3    H222511   3.918   1.322  15.621  0.0492  1.2105 -1.9063
  366TIP3   OH222512   0.217   2.433  11.143  0.7952  0.3884  0.3280
  366TIP3    H122513   0.160   2.464  11.213  1.5209  1.8697  0.2924
  366TIP3    H222514   0.188   2.343  11.127 -0.0943  0.3891  1.7710
  367TIP3   OH222515   0.493   5.585   6.207 -0.5088  0.6158 -0.3953
  367TIP3    H122516   0.444   5.648   6.153 -1.1584 -0.4704 -1.1148
  367TIP3    H222517   0.427   5.520   6.232  0.1146  0.3165  0.4879
  368TIP3   OH222518   3.957   4.243   1.756 -0.1321 -0.4654  0.7117
  368TIP3    H122519   3.912   4.328   1.752 -1.2400 -1.0340  0.4096
  368TIP3    H222520   3.974   4.221   1.664  2.5483  0.6045  0.8765
  369TIP3   OH222521   0.672   0.070  13.167 -0.3093  0.0197  0.2125
  369TIP3    H122522   0.595   0.113  13.204 -0.2267 -0.7860  1.3598
  369TIP3    H222523   0.725   0.045  13.243  0.4210 -0.6545 -0.4963
  370TIP3   OH222524   3.660   5.631  14.992  0.5115 -0.2035 -0.2897
  370TIP3    H122525   3.598   5.699  15.017  0.7214  0.3567 -1.2665
  370TIP3    H222526   3.681   5.586  15.075  0.9617  1.4078  0.5056
  371TIP3   OH222527   0.983   1.483   2.695 -0.7231 -0.3497 -0.1842
  371TIP3    H122528   1.045   1.511   2.627  0.2112 -2.3701 -0.2271
  371TIP3    H222529   0.953   1.397   2.666  0.6739 -1.8740  2.5131
  372TIP3   OH222530   2.110   1.372  16.185 -0.0398  0.0576 -0.2060
  372TIP3    H122531   2.191   1.322  16.193 -0.6717 -0.8657  0.6763
  372TIP3    H222532   2.125   1.450  16.238 -0.2701 -0.8722  1.2857
  373TIP3   OH222533   5.935   0.499  16.665  0.7217  0.0322  0.2028
  373TIP3    H122534   5.850   0.456  16.661  1.1070 -0.6743 -3.1301
  373TIP3    H222535   5.981   0.456  16.737 -0.5318 -2.0160 -0.1435
  374TIP3   OH222536   1.029   2.135  16.876 -0.2238  0.3208  0.0398
  374TIP3    H122537   1.056   2.086  16.798 -1.0740  0.5971 -0.4435
  374TIP3    H222538   0.998   2.068  16.937  0.5523  0.0933  0.1972
  375TIP3   OH222539   4.343   3.095  14.856  0.1095 -0.5446  0.2650
  375TIP3    H122540   4.419   3.038  14.872  1.3305  0.8511 -0.3289
  375TIP3    H222541   4.317   3.077  14.766  0.8663  0.2173 -0.1210
  376TIP3   OH222542   3.361   1.658   0.248  0.3928 -0.2074  0.2960
  376TIP3    H122543   3.269   1.640   0.226 -0.3055  0.3728  2.4460
  376TIP3    H222544   3.364   1.754   0.258  1.3925 -0.1627 -0.2662
  377TIP3   OH222545   0.164   0.144  14.045  0.2843  0.0944  0.2382
  377TIP3    H122546   0.178   0.238  14.033 -0.6705  0.0390 -1.9894
  377TIP3    H222547   0.207   0.104  13.970  0.3445 -1.2220  0.9480
  378TIP3   OH222548   3.397   2.949  12.663 -0.7441  0.2724  0.4951
  378TIP3    H122549   3.482   2.993  12.669 -1.1179  0.9691  0.8048
  378TIP3    H222550   3.380   2.917  12.751  0.8706 -3.1546 -0.2635
  379TIP3   OH222551   6.029   1.596  15.443  0.5098  0.1115 -0.4264
  379TIP3    H122552   5.960   1.585  15.509  0.3327  0.4224 -0.5564
  379TIP3    H222553   6.000   1.545  15.368 -0.7707  2.1283 -1.3803
  380TIP3   OH222554   1.644   6.335   3.211  0.0278 -0.1582 -0.2486
  380TIP3    H122555   1.706   6.320   3.282 -1.5769 -0.7993  1.0895
  380TIP3    H222556   1.692   6.388   3.147  1.6694  0.0304  1.0876
  381TIP3   OH222557   4.582   4.191  16.903  0.1832  0.1001  0.1302
  381TIP3    H122558   4.602   4.142  16.823  0.4222  1.5769 -0.7591
  381TIP3    H222559   4.648   4.162  16.966  0.6578 -0.3148 -0.5340
  382TIP3   OH222560   4.771   5.560  12.999  0.2461  0.8485 -0.0415
  382TIP3    H122561   4.700   5.623  13.011  0.6496  1.4523 -0.7145
  382TIP3    H222562   4.730   5.475  13.010 -0.0556  1.2289  2.3012
  383TIP3   OH222563   5.421   3.773   5.318 -0.5125 -0.2933  0.0047
  383TIP3    H122564   5.341   3.825   5.309 -1.0259 -0.9161  0.7525
  383TIP3    H222565   5.454   3.763   5.229 -0.0455  1.8221 -0.1075
  384TIP3   OH222566   2.558   2.339  12.238  0.0742 -0.3721  0.0958
  384TIP3    H122567   2.531   2.420  12.194  3.6136  1.4335  0.8103
  384TIP3    H222568   2.571   2.277  12.167 -1.8946 -0.1019 -0.5584
  385TIP3   OH222569   0.829   6.304  12.811 -0.1653 -0.0923  0.4892
  385TIP3    H122570   0.823   6.377  12.749 -0.4268 -0.3938  0.1509
  385TIP3    H222571   0.797   6.340  12.894  1.4380  0.6834  0.7951
  386TIP3   OH222572   6.657   5.251  10.881  0.7652 -0.7684 -0.1352
  386TIP3    H122573   6.688   5.263  10.791  0.6979 -2.0472 -0.3406
  386TIP3    H222574   6.563   5.237  10.872  0.8646 -1.6119  0.0539
  387TIP3   OH222575   6.690   6.463  15.971  0.4270  0.3164 -0.2399
  387TIP3    H122576   6.602   6.425  15.966  0.8200 -1.2507  2.5823
  387TIP3    H222577   6.715   6.477  15.880 -3.1225  1.8956 -1.1769
  388TIP3   OH222578   4.031   5.263  11.915  0.0267  0.3122  1.1697
  388TIP3    H122579   3.978   5.236  11.840  0.3129 -0.0959  1.1122
  388TIP3    H222580   4.051   5.355  11.898 -1.0800  0.6249  1.4415
  389TIP3   OH222581   6.092   2.707  10.995  0.5856 -0.4458  0.3196
  389TIP3    H122582   6.186   2.722  11.006  0.5891 -1.2568  1.5343
  389TIP3    H222583   6.068   2.759  10.918  1.7300  0.9323  0.8587
  390TIP3   OH222584   0.990   6.226   5.823 -0.4408 -0.4031  0.3547
  390TIP3    H122585   0.982   6.131   5.814 -3.2914 -0.3408  1.2541
  390TIP3    H222586   1.055   6.251   5.756  0.2326 -2.9125 -0.0368
  391TIP3   OH222587   5.921   1.850   3.266 -0.1690  0.1700  0.5735
  391TIP3    H122588   6.005   1.823   3.228 -0.4167 -0.3566  0.3989
  391TIP3    H222589   5.918   1.945   3.251  0.0674  0.0798 -0.0686
  392TIP3   OH222590   6.682   6.414   1.738  0.3769  0.0460  0.2974
  392TIP3    H122591   6.646   6.361   1.809 -1.0722 -0.4465 -0.7598
  392TIP3    H222592   6.680   6.356   1.662  2.1079  0.4945 -0.1251
  393TIP3   OH222593   0.500   2.260  13.029 -0.2211  0.2169  0.0892
  393TIP3    H122594   0.570   2.197  13.047 -0.5142 -0.3727 -0.7502
  393TIP3    H222595   0.544   2.345  13.028  0.3703 -0.0832  0.2158
  394TIP3   OH222596   5.335   3.231  14.894  0.4380 -0.0121 -0.5257
  394TIP3    H122597   5.396   3.171  14.851 -2.6690 -1.7786 -2.8415
  394TIP3    H222598   5.327   3.197  14.983  1.3297 -0.9322 -0.7739
  395TIP3   OH222599   1.111   5.437  13.790  0.8306 -0.4752  0.1724
  395TIP3    H122600   1.028   5.394  13.772  1.0417 -0.9465  0.3099
  395TIP3    H222601   1.165   5.369  13.830  1.0488  0.0096  0.7149
  396TIP3   OH222602   1.421   0.970  16.632  0.6244  0.2065 -0.8083
  396TIP3    H122603   1.412   0.889  16.581  1.7250  0.8031 -2.0165
  396TIP3    H222604   1.454   0.940  16.717  1.9634 -0.5872 -1.5509
  397TIP3   OH222605   4.814   1.729  11.245 -0.1397 -0.4895 -0.2648
  397TIP3    H122606   4.845   1.771  11.165 -2.7915 -0.3451 -1.3096
  397TIP3    H222607   4.764   1.797  11.291 -1.4967 -1.4686 -0.2210
  398TIP3   OH222608   1.935   1.227   5.389  0.6068  0.0629 -0.2302
  398TIP3    H122609   1.951   1.136   5.365  0.6864  0.2902 -1.0525
  398TIP3    H222610   2.017   1.255   5.430 -0.0675 -0.7944  1.8323
  399TIP3   OH222611   0.716   1.354  12.333 -0.2389 -0.5639 -0.0146
  399TIP3    H122612   0.786   1.420  12.327 -1.2432  0.4227 -2.0889
  399TIP3    H222613   0.695   1.350  12.426  1.4355  0.3289  0.4603
  400TIP3   OH222614   1.204   4.082  11.534 -0.5613 -0.0212 -0.5798
  400TIP3    H122615   1.282   4.075  11.590 -0.4874 -1.2868 -0.8125
  400TIP3    H222616   1.153   4.154  11.573  0.6289  0.7184 -0.3316
  401TIP3   OH222617   3.653   5.912  13.580  0.1599  0.2973 -0.1464
  401TIP3    H122618   3.612   5.833  13.614  0.4741  1.1757  2.5036
  401TIP3    H222619   3.739   5.915  13.622  0.6800  1.3730 -1.2154
  402TIP3   OH222620   1.684   1.827  15.590 -0.3013 -0.3241  0.4348
  402TIP3    H122621   1.701   1.756  15.529  1.3328  0.9983 -0.7503
  402TIP3    H222622   1.751   1.892  15.570 -0.7188  0.8535  2.5840
  403TIP3   OH222623   2.437   4.635  10.312  0.4948  0.4908 -0.3961
  403TIP3    H122624   2.527   4.641  10.279  0.8186 -1.4699  0.0018
  403TIP3    H222625   2.440   4.563  10.374 -1.7811 -0.9390 -1.8378
  404TIP3   OH222626   2.215   2.190   4.803  0.2616  0.2121 -0.2325
  404TIP3    H122627   2.140   2.132   4.815  0.8873 -0.7961 -1.0949
  404TIP3    H222628   2.224   2.200   4.708  1.0225  0.5814 -0.1323
  405TIP3   OH222629   3.085   4.879   5.614 -0.1585  0.4653  0.7996
  405TIP3    H122630   3.063   4.956   5.667 -0.3620  0.3870  0.8269
  405TIP3    H222631   3.172   4.899   5.578 -0.9316  1.4603 -0.6139
  406TIP3   OH222632   2.442   2.476   2.124  0.1338 -0.1331 -0.3386
  406TIP3    H122633   2.403   2.515   2.202  0.8271 -0.0627 -0.0128
  406TIP3    H222634   2.407   2.387   2.122  0.2929 -0.2149  0.2016
  407TIP3   OH222635   2.850   0.385   0.743  0.2554  0.3728 -0.4085
  407TIP3    H122636   2.835   0.472   0.705  1.1501  1.6152  1.8792
  407TIP3    H222637   2.913   0.401   0.813 -0.2433 -2.0006  0.6533
  408TIP3   OH222638   6.274   6.424   0.425  0.2205 -0.4163  0.0180
  408TIP3    H122639   6.343   6.426   0.491 -0.4202  2.0129  0.7063
  408TIP3    H222640   6.320   6.441   0.342  0.3268  4.8389  0.8105
  409TIP3   OH222641   3.792   2.976   0.099  0.1640 -0.0656 -0.2200
  409TIP3    H122642   3.809   2.968   0.193  0.0946 -1.3149 -0.3038
  409TIP3    H222643   3.808   3.069   0.080  2.0342 -0.1824  0.6475
  410TIP3   OH222644   5.977   3.378   3.567 -0.3286 -0.0227  0.0648
  410TIP3    H122645   6.000   3.403   3.477  1.5049  0.3704  0.6014
  410TIP3    H222646   5.955   3.461   3.610 -1.5183 -0.2477 -0.0850
  411TIP3   OH222647   2.594   0.008  14.403 -0.2464  0.1252  0.0876
  411TIP3    H122648   2.590  -0.055  14.331 -0.6729 -1.6904  1.6193
  411TIP3    H222649   2.508   0.002  14.444 -0.0999  1.3313  0.5939
  412TIP3   OH222650   6.741   1.589  11.620 -0.1452 -0.2195 -0.1736
  412TIP3    H122651   6.769   1.584  11.712  1.1583 -0.2104 -0.5511
  412TIP3    H222652   6.681   1.664  11.618  2.2912  1.8975  0.1059
  413TIP3   OH222653   4.001   3.599   4.965  0.0822 -0.5296 -0.0385
  413TIP3    H122654   3.907   3.620   4.966  0.4027  1.0278  0.6257
  413TIP3    H222655   4.018   3.565   5.053  0.3859  0.5473  0.3435
  414TIP3   OH222656   4.388   5.289  14.242 -0.1677 -0.3283 -0.3987
  414TIP3    H122657   4.333   5.306  14.318  0.7027  1.1791 -0.0671
  414TIP3    H222658   4.327   5.280  14.169 -0.8943  0.6488  0.0704
  415TIP3   OH222659   5.023   3.928  11.824  0.5181 -0.2412  0.9012
  415TIP3    H122660   5.089   3.879  11.776  1.1694 -0.1676  1.6906
  415TIP3    H222661   4.960   3.957  11.758  1.7994  0.5237 -0.0199
  416TIP3   OH222662   1.187   6.629  14.241 -0.1205  0.3039 -0.6437
  416TIP3    H122663   1.236   6.614  14.160 -1.2416  0.8353 -1.4539
  416TIP3    H222664   1.096   6.612  14.217 -0.4932  0.6829  0.4536
  417TIP3   OH222665   5.861   2.317   4.494 -0.4529  0.3803  0.2451
  417TIP3    H122666   5.884   2.305   4.586  0.9215  0.7210 -0.0333
  417TIP3    H222667   5.863   2.228   4.457  0.9538  0.4532  0.1212
  418TIP3   OH222668   2.416   3.447  14.569 -0.1394 -0.8538  0.6732
  418TIP3    H122669   2.406   3.450  14.474  0.0829 -3.0261  0.5302
  418TIP3    H222670   2.491   3.504  14.588 -0.5958  0.1108 -0.3597
  419TIP3   OH222671   6.048   5.171  12.436  0.2726  0.3789  0.1658
  419TIP3    H122672   6.015   5.081  12.438  0.7636  0.1625 -0.9453
  419TIP3    H222673   5.969   5.224  12.421  0.2159 -0.0345 -1.1491
  420TIP3   OH222674   3.879   0.335   0.385  0.0839  0.2927  0.1783
  420TIP3    H122675   3.940   0.322   0.313  1.3628 -2.1951  1.5492
  420TIP3    H222676   3.853   0.427   0.380 -0.2889  0.1227 -3.6571
  421TIP3   OH222677   6.583   5.286   1.552  0.1989  0.2025  0.1317
  421TIP3    H122678   6.515   5.284   1.484 -0.0671 -0.0118  0.4039
  421TIP3    H222679   6.646   5.219   1.523 -0.0629 -0.0989  0.2454
  422TIP3   OH222680   6.183   0.629  14.899 -0.2080 -0.1772  0.2933
  422TIP3    H122681   6.110   0.691  14.902  1.2957  1.6534  1.2018
  422TIP3    H222682   6.197   0.613  14.806 -1.3846 -0.1167  0.0872
  423TIP3   OH222683   0.928   3.154   0.845 -0.2985  0.3752 -0.6318
  423TIP3    H122684   0.838   3.129   0.866 -0.3077  1.5119  0.8550
  423TIP3    H222685   0.981   3.077   0.866 -0.7134  0.3438  0.3041
  424TIP3   OH222686   4.878   5.589   3.634 -0.1107 -0.1226 -0.0472
  424TIP3    H122687   4.938   5.644   3.685 -1.6964  0.3731  1.4044
  424TIP3    H222688   4.820   5.652   3.589 -1.7629 -0.5148  1.4063
  425TIP3   OH222689   0.688   6.103   0.766 -0.0891 -0.2004 -0.3430
  425TIP3    H122690   0.745   6.117   0.841 -2.1961  1.0998  1.1302
  425TIP3    H222691   0.605   6.145   0.791 -0.8865  0.2539 -3.3853
  426TIP3   OH222692   2.758   0.248  16.987  0.2166  0.6045 -0.1762
  426TIP3    H122693   2.795   0.186  17.049  1.9113  2.4639  0.7691
  426TIP3    H222694   2.739   0.326  17.039 -3.0632  0.5474 -1.0577
  427TIP3   OH222695   6.292   3.273   5.619  0.1012 -0.1564  0.1403
  427TIP3    H122696   6.331   3.324   5.691 -0.4066 -0.6476  0.7678
  427TIP3    H222697   6.367   3.248   5.565  0.8276 -1.8385  1.8045
  428TIP3   OH222698   6.569   4.124   0.608 -0.4164  0.0448 -0.5045
  428TIP3    H122699   6.544   4.033   0.623  1.4408 -0.3774  0.3801
  428TIP3    H222700   6.564   4.134   0.513 -0.3228 -1.0979 -0.6497
  429TIP3   OH222701   3.508   0.005  16.859 -0.0172  0.3913  0.6115
  429TIP3    H122702   3.466  -0.075  16.890  1.1152 -0.6812 -0.4953
  429TIP3    H222703   3.599  -0.021  16.842 -0.0241  1.4679 -1.3699
  430TIP3   OH222704   0.262   6.025  12.670 -0.2046  0.2952 -0.4368
  430TIP3    H122705   0.297   6.089  12.732 -0.2959  1.7170 -1.8060
  430TIP3    H222706   0.280   6.062  12.584 -1.3664 -0.9440 -1.2572
  431TIP3   OH222707   4.699   3.351  14.518 -0.2226  0.0848  0.2155
  431TIP3    H122708   4.662   3.355  14.606  0.1461 -0.3996  0.3961
  431TIP3    H222709   4.659   3.273  14.479 -1.4341  1.0380 -0.5416
  432TIP3   OH222710   2.428   5.099  14.936  0.0247 -0.7676 -0.2998
  432TIP3    H122711   2.493   5.071  14.872  0.3017 -0.3392 -0.2105
  432TIP3    H222712   2.469   5.079  15.021 -0.4926 -1.6746 -0.2583
  433TIP3   OH222713   6.176   3.609   2.951 -0.4208  0.0724  0.1661
  433TIP3    H122714   6.250   3.592   2.893  0.0058 -0.3660  0.8338
  433TIP3    H222715   6.213   3.654   3.026 -1.0975  1.3763 -0.2379
  434TIP3   OH222716   1.228   4.920   4.219  0.1640  0.6193  0.9118
  434TIP3    H122717   1.226   4.891   4.128 -1.1798  0.9434  0.8159
  434TIP3    H222718   1.318   4.904   4.248  0.1245 -1.2550  0.1070
  435TIP3   OH222719   0.375   3.679  13.091 -0.3540 -0.0817 -0.1216
  435TIP3    H122720   0.406   3.746  13.030  0.1133 -0.9171 -0.8149
  435TIP3    H222721   0.283   3.700  13.104 -0.4340  0.1729 -1.0279
  436TIP3   OH222722   3.991   4.475   0.589 -0.6678 -0.3339 -0.4788
  436TIP3    H122723   3.931   4.434   0.526 -3.5767  0.6163  1.4531
  436TIP3    H222724   3.970   4.568   0.585 -0.2596 -0.1418  1.1667
  437TIP3   OH222725   1.921   4.670   3.035 -0.6570 -0.1478 -0.1451
  437TIP3    H122726   1.975   4.660   2.956  1.5078 -0.7547  1.2982
  437TIP3    H222727   1.944   4.756   3.069 -0.0792 -0.6515  0.8014
  438TIP3   OH222728   1.587   2.823   1.832 -0.4174  0.6743 -0.3775
  438TIP3    H122729   1.655   2.829   1.765 -0.2960  0.8691 -0.2386
  438TIP3    H222730   1.614   2.886   1.899 -1.0271  1.1450 -0.5787
  439TIP3   OH222731   0.443   5.373  15.002 -0.5030  0.1296  0.1235
  439TIP3    H122732   0.390   5.370  14.922 -1.1465  0.2919  0.5375
  439TIP3    H222733   0.395   5.431  15.060 -0.7102 -0.9942  1.1077
  440TIP3   OH222734   3.553   1.860  13.641  0.4541  0.0422  0.5962
  440TIP3    H122735   3.583   1.945  13.612  0.5199 -0.4632 -0.8877
  440TIP3    H222736   3.629   1.820  13.684  0.2355  0.9554  1.8934
  441TIP3   OH222737   2.790   1.667  13.289  0.8477  0.0423 -0.0582
  441TIP3    H122738   2.696   1.651  13.279  1.1356 -1.3662 -0.7297
  441TIP3    H222739   2.812   1.727  13.218  0.9029 -1.6435 -1.5338
  442TIP3   OH222740   5.987   5.352   4.293  0.0160 -0.6207 -0.1263
  442TIP3    H122741   5.995   5.409   4.216 -1.4735 -0.1264  0.0486
  442TIP3    H222742   6.042   5.276   4.272  0.5142  0.0027 -1.1913
  443TIP3   OH222743   4.219   2.283   0.256  0.5153 -0.1503 -0.2953
  443TIP3    H122744   4.219   2.192   0.228  0.2149 -0.3849  0.4304
  443TIP3    H222745   4.129   2.300   0.284  0.8123  0.0260  0.6055
  444TIP3   OH222746   1.760   4.319   0.357  0.0097 -0.5449  0.2879
  444TIP3    H122747   1.803   4.260   0.295 -1.1645 -0.6494 -0.4646
  444TIP3    H222748   1.679   4.275   0.380  0.9051 -1.0124  2.7999
  445TIP3   OH222749   2.010   4.813   4.265  0.4544  0.4520  0.1955
  445TIP3    H122750   1.986   4.900   4.298 -0.5041 -0.0806  0.9760
  445TIP3    H222751   1.932   4.782   4.220  0.5947 -0.2253  0.4025
  446TIP3   OH222752   2.019   2.817  14.336  0.0634  0.7456  0.1689
  446TIP3    H122753   1.957   2.763  14.286  0.5675 -1.2205  1.5293
  446TIP3    H222754   2.029   2.771  14.419  3.7261  0.6661 -0.1515
  447TIP3   OH222755   5.420   6.532  14.744 -0.8535 -0.3546 -0.8149
  447TIP3    H122756   5.377   6.498  14.665  0.7324  0.6303 -2.1685
  447TIP3    H222757   5.365   6.606  14.770 -2.3805 -1.7521  0.1103
  448TIP3   OH222758   0.865   6.752   4.223 -0.5568  0.2673  0.1107
  448TIP3    H122759   0.862   6.682   4.288 -1.0591  0.8736  0.7547
  448TIP3    H222760   0.807   6.722   4.153  0.8469 -0.8969 -0.6066
  449TIP3   OH222761   3.951   4.910  15.763 -0.6366 -0.3159  0.3982
  449TIP3    H122762   3.994   4.904  15.678  0.4964 -0.2640  0.9446
  449TIP3    H222763   3.927   4.820  15.784 -0.3867 -0.4117  0.2796
  450TIP3   OH222764   6.147   4.008  15.345 -0.0014 -0.3551  0.3621
  450TIP3    H122765   6.080   3.977  15.406  0.1507  0.2365  0.8388
  450TIP3    H222766   6.222   4.030  15.400 -0.2269  1.1876  0.0979
  451TIP3   OH222767   3.308   1.277  13.240  0.0955  0.0638  0.2904
  451TIP3    H122768   3.329   1.307  13.329  1.7710 -0.1859  0.0178
  451TIP3    H222769   3.287   1.185  13.251 -0.2417  0.1659  0.5039
  452TIP3   OH222770   2.107   6.498  15.930 -0.6199 -0.2343  0.1530
  452TIP3    H122771   2.078   6.534  15.847  1.4375  0.8067 -0.1770
  452TIP3    H222772   2.072   6.408  15.931 -1.7824  0.1662 -1.2041
  453TIP3   OH222773   2.566   6.689   3.281 -0.1462 -0.0818  0.5270
  453TIP3    H122774   2.608   6.766   3.242 -0.2492  0.8567  2.2077
  453TIP3    H222775   2.598   6.615   3.228  3.9695  0.5083  1.8815
  454TIP3   OH222776   2.159   2.046   5.992 -0.4229 -0.3419 -0.3571
  454TIP3    H122777   2.160   1.990   5.914  1.2508 -1.3703  0.3351
  454TIP3    H222778   2.242   2.028   6.035 -0.6289  1.3842  0.8572
  455TIP3   OH222779   6.314   2.429  16.126 -0.2070 -0.3242 -0.0439
  455TIP3    H122780   6.302   2.503  16.185 -2.2711  0.8720 -1.7936
  455TIP3    H222781   6.363   2.465  16.052  1.7901 -1.6372  0.5370
  456TIP3   OH222782   6.677   2.869  15.501  0.1624 -0.5695 -0.0311
  456TIP3    H122783   6.757   2.870  15.448  0.7854  2.2433  0.8010
  456TIP3    H222784   6.614   2.918  15.449 -0.5051 -1.2999  0.0757
  457TIP3   OH222785   5.357   3.476  15.715 -0.3188 -0.2568  0.1545
  457TIP3    H122786   5.421   3.412  15.684  0.4931  0.7458 -0.3158
  457TIP3    H222787   5.276   3.452  15.670  0.6105  0.6039 -2.1257
  458TIP3   OH222788   0.818   6.650  17.002  0.6392  1.6813 -0.0964
  458TIP3    H122789   0.912   6.646  17.019  0.4385  0.8096  0.8869
  458TIP3    H222790   0.784   6.703  17.074  0.2353  1.0276  0.1962
  459TIP3   OH222791   0.477   5.621   5.217 -0.0553 -0.1241  0.6846
  459TIP3    H122792   0.395   5.654   5.255  0.4277  1.1592  0.6435
  459TIP3    H222793   0.452   5.588   5.131 -0.4694  0.6801  0.4853
  460TIP3   OH222794   3.719   6.322   2.415  0.2719 -0.2607  0.3909
  460TIP3    H122795   3.696   6.233   2.390  0.2389  0.1671 -1.1991
  460TIP3    H222796   3.813   6.327   2.402  0.1425  0.1952 -0.4456
  461TIP3   OH222797   3.077   0.230  16.246  0.3055  0.0474 -0.4358
  461TIP3    H122798   3.023   0.249  16.322  2.3059  1.8046  0.6898
  461TIP3    H222799   3.125   0.151  16.269  0.6614  0.3900  0.0194
  462TIP3   OH222800   2.271   1.027  15.820 -0.2012  0.1313  0.3791
  462TIP3    H122801   2.244   1.118  15.835 -1.7190 -0.2180 -0.1038
  462TIP3    H222802   2.287   0.992  15.908  0.8321  0.9739  0.5469
  463TIP3   OH222803   6.277   6.661  11.463  0.1514 -0.7083  0.1270
  463TIP3    H122804   6.291   6.616  11.379  0.9931 -0.7919  0.2979
  463TIP3    H222805   6.286   6.754  11.442  0.2423 -0.7235  0.0970
  464TIP3   OH222806   0.856   1.118  12.335  0.5468 -0.2471 -0.0889
  464TIP3    H122807   0.935   1.169  12.354  1.1698 -1.2022 -0.0585
  464TIP3    H222808   0.787   1.184  12.325  1.3296  0.5999 -0.0579
  465TIP3   OH222809   0.807   4.100   5.878 -0.4811  0.8288 -0.2425
  465TIP3    H122810   0.748   4.062   5.813  0.4330 -0.0244 -0.5991
  465TIP3    H222811   0.763   4.179   5.907 -1.5589  0.4773 -0.8723
  466TIP3   OH222812   6.519   4.379   0.743 -0.2578  0.0326  0.2376
  466TIP3    H122813   6.530   4.298   0.693 -0.0918  1.0403 -1.4384
  466TIP3    H222814   6.605   4.421   0.740 -0.4535  0.4778  0.7060
  467TIP3   OH222815   3.356   2.631  13.763 -0.0220 -0.8345  0.1812
  467TIP3    H122816   3.340   2.703  13.825 -0.7730 -1.4877  0.7645
  467TIP3    H222817   3.365   2.675  13.678 -2.0779 -0.1492  0.2597
  468TIP3   OH222818   0.979   6.381  16.294  0.2836 -0.3298 -0.6421
  468TIP3    H122819   0.983   6.379  16.390 -2.3169 -1.6637 -0.4634
  468TIP3    H222820   1.070   6.395  16.267  1.0953  0.1665  1.9933
  469TIP3   OH222821   6.371   0.891   1.718  0.2576 -0.1473 -0.1586
  469TIP3    H122822   6.299   0.869   1.659 -0.4021  1.6185 -0.0855
  469TIP3    H222823   6.427   0.948   1.666  1.1833 -0.8409  0.0568
  470TIP3   OH222824   2.102   2.602   4.472 -0.4864 -0.1706 -0.0116
  470TIP3    H122825   2.157   2.579   4.546  1.1486  1.4299 -0.6612
  470TIP3    H222826   2.162   2.605   4.397 -1.9001 -0.7146 -1.2273
  471TIP3   OH222827   4.133   1.822  10.865  0.1689  0.2273  0.2217
  471TIP3    H122828   4.112   1.850  10.776  0.6306  0.2963  0.1306
  471TIP3    H222829   4.178   1.738  10.853 -0.8340 -0.3650  0.4646
  472TIP3   OH222830   4.800   2.739   5.809 -0.4325  0.0956 -0.7866
  472TIP3    H122831   4.859   2.793   5.757  0.4292  0.4526  0.5137
  472TIP3    H222832   4.733   2.799   5.840 -0.0397  0.2312 -0.1761
  473TIP3   OH222833   0.362   3.931  14.179 -0.2130  0.3740  1.0645
  473TIP3    H122834   0.301   3.860  14.159 -1.4213  1.3946  0.9941
  473TIP3    H222835   0.418   3.895  14.247  1.3577 -1.7702 -1.1692
  474TIP3   OH222836   1.504   0.306   3.630  0.1319 -0.0775  0.2399
  474TIP3    H122837   1.600   0.308   3.620  0.1018 -1.6673 -0.6561
  474TIP3    H222838   1.488   0.357   3.710  1.6658  0.7065  0.0938
  475TIP3   OH222839   3.812   5.634  12.863 -0.2085 -0.1234  0.3842
  475TIP3    H122840   3.810   5.596  12.951 -1.5349  0.4968  0.6463
  475TIP3    H222841   3.723   5.624  12.830  0.1524  0.1008 -0.6921
  476TIP3   OH222842   5.376   0.648   4.391  0.3121  0.0593  0.1299
  476TIP3    H122843   5.374   0.620   4.300  0.0503  2.2495 -0.6025
  476TIP3    H222844   5.463   0.622   4.422  0.6382 -0.1735 -0.9339
  477TIP3   OH222845   0.326   5.815  11.712 -0.0680 -0.5062  0.2954
  477TIP3    H122846   0.301   5.762  11.788 -0.4195 -0.4008  0.2586
  477TIP3    H222847   0.252   5.806  11.652 -0.0003 -0.2076  0.1654
  478TIP3   OH222848   1.763   5.273  13.907 -0.0476  0.8079 -0.3396
  478TIP3    H122849   1.680   5.297  13.868 -0.2163  2.2454  0.8294
  478TIP3    H222850   1.803   5.356  13.933  1.9928  0.1927 -1.3096
  479TIP3   OH222851   3.593   5.127   5.258 -0.3702 -0.5323 -0.8541
  479TIP3    H122852   3.577   5.084   5.174  0.9206  0.9023 -1.8840
  479TIP3    H222853   3.689   5.129   5.265 -0.3922 -2.4575  1.6649
  480TIP3   OH222854   4.255   4.333   3.124  0.0132  0.4437  0.9027
  480TIP3    H122855   4.280   4.424   3.108  1.5779 -0.0840  0.0614
  480TIP3    H222856   4.336   4.284   3.109 -1.1940 -1.2657 -0.2970
  481TIP3   OH222857   3.032   4.688   3.197 -0.0820 -1.0750  0.5275
  481TIP3    H122858   2.982   4.623   3.246 -3.2847 -0.2596 -1.3532
  481TIP3    H222859   3.067   4.640   3.122 -1.2491 -0.9986 -0.1001
  482TIP3   OH222860   0.576   1.231  14.780 -0.5196 -0.2207 -0.5333
  482TIP3    H122861   0.669   1.218  14.800 -0.2880  0.1772 -1.2984
  482TIP3    H222862   0.541   1.277  14.856 -0.3156 -1.2335  0.1870
  483TIP3   OH222863   2.921   6.299   1.629  0.0079  0.0463  0.3559
  483TIP3    H122864   2.889   6.347   1.552  2.1028  0.4210 -0.3512
  483TIP3    H222865   2.857   6.317   1.697  0.8102  4.1898  0.2501
  484TIP3   OH222866   3.903   6.074   0.108 -0.0766 -0.7588  0.2096
  484TIP3    H122867   3.949   5.996   0.076  1.2055 -0.2643  0.7737
  484TIP3    H222868   3.973   6.135   0.130 -0.9464 -0.3919  2.1923
  485TIP3   OH222869   5.940   2.396   3.485 -0.0070  0.5210 -0.2571
  485TIP3    H122870   5.889   2.446   3.548  0.9918  1.0200  0.1874
  485TIP3    H222871   6.021   2.373   3.532  0.0184 -0.5808 -0.8085
  486TIP3   OH222872   0.816   5.860  16.379 -0.6502 -0.3679  0.2395
  486TIP3    H122873   0.904   5.865  16.342 -0.6917  1.8934  0.3124
  486TIP3    H222874   0.805   5.768  16.405  1.8210 -0.6069  0.6073
  487TIP3   OH222875   5.837   4.934   0.784  0.2745  0.4842  0.4146
  487TIP3    H122876   5.836   4.852   0.735  0.5314 -0.5484  2.0587
  487TIP3    H222877   5.784   4.994   0.731 -1.6170 -1.3239  0.1388
  488TIP3   OH222878   0.200   6.565   4.525  0.4907  0.0092  0.2177
  488TIP3    H122879   0.212   6.632   4.457  1.2494  1.1316  1.4133
  488TIP3    H222880   0.113   6.583   4.561  0.2054 -0.4102 -0.2437
  489TIP3   OH222881   1.753   4.237  14.168 -0.0112  0.4291 -0.3986
  489TIP3    H122882   1.716   4.150  14.185 -2.2317  1.6495  1.5173
  489TIP3    H222883   1.821   4.248  14.234  0.3829  0.1249 -0.7442
  490TIP3   OH222884   0.143   3.777   0.574 -0.3704 -0.7728  0.0926
  490TIP3    H122885   0.151   3.711   0.643 -0.3173 -1.4483 -0.5457
  490TIP3    H222886   0.063   3.825   0.595 -0.0833 -0.6350  0.9031
  491TIP3   OH222887   0.145   6.644  11.318 -0.0524  0.3725  0.3019
  491TIP3    H122888   0.099   6.673  11.397  0.0902  1.6892 -0.0786
  491TIP3    H222889   0.154   6.723  11.265  0.3157 -0.3951 -0.8064
  492TIP3   OH222890   0.298   6.665  10.547 -0.1382 -1.1484 -0.0229
  492TIP3    H122891   0.297   6.675  10.643  0.6846 -1.6865  0.0526
  492TIP3    H222892   0.371   6.605  10.530 -0.7314 -1.6369 -0.9380
  493TIP3   OH222893   2.265   4.245   3.389 -0.4855  0.7287  0.3045
  493TIP3    H122894   2.204   4.260   3.461 -0.5024  1.1551  0.2046
  493TIP3    H222895   2.273   4.150   3.384 -1.2500  0.6638  0.2218
  494TIP3   OH222896   1.254   3.429  14.388  0.3295 -0.0327 -0.1362
  494TIP3    H122897   1.344   3.426  14.420  1.0976  2.1537 -1.7701
  494TIP3    H222898   1.249   3.358  14.324 -0.0138 -1.9034  1.8852
  495TIP3   OH222899   1.768   1.881   6.099  0.0119 -0.0835  0.4489
  495TIP3    H122900   1.799   1.805   6.148 -1.0507 -1.3485 -0.7734
  495TIP3    H222901   1.791   1.863   6.008 -1.3216  0.4889 -0.0272
  496TIP3   OH222902   2.036   2.567   0.434  0.5301 -0.4540  0.1892
  496TIP3    H122903   1.943   2.577   0.452  0.9856 -1.0425  3.3255
  496TIP3    H222904   2.051   2.619   0.355 -2.1861  0.7457  0.3735
  497TIP3   OH222905   3.692   6.181  11.229 -0.4296 -0.1535  0.1383
  497TIP3    H122906   3.654   6.110  11.177 -2.8005 -0.7104  2.4082
  497TIP3    H222907   3.653   6.260  11.193 -0.4254 -0.3244 -0.2511
  498TIP3   OH222908   3.272   4.274  12.879  0.0114 -0.3660  0.0631
  498TIP3    H122909   3.182   4.265  12.910 -0.3065  2.2049  0.0757
  498TIP3    H222910   3.319   4.203  12.922 -1.6306 -0.5971  1.6010
  499TIP3   OH222911   5.258   3.232   3.188  0.1528  0.0958 -0.5042
  499TIP3    H122912   5.254   3.138   3.171 -0.5654  0.3218 -1.6592
  499TIP3    H222913   5.352   3.252   3.191  0.3334 -0.2961 -2.4505
  500TIP3   OH222914   5.815   0.945  13.513 -0.1771 -0.3002 -0.8297
  500TIP3    H122915   5.864   1.022  13.483 -0.2588  1.1020  2.2282
  500TIP3    H222916   5.723   0.972  13.508 -0.2013 -0.1001  0.3367
  501TIP3   OH222917   2.289   6.363   0.981  0.2957 -0.1162  0.2882
  501TIP3    H122918   2.325   6.325   0.900 -0.9362  1.0296 -0.8436
  501TIP3    H222919   2.363   6.361   1.042  1.1224 -1.4909 -0.6741
  502TIP3   OH222920   1.561   6.609  16.822 -0.2173 -0.1643  0.5302
  502TIP3    H122921   1.611   6.533  16.852 -1.2603 -0.8717  0.5155
  502TIP3    H222922   1.535   6.653  16.903 -3.2310 -2.2026  0.8707
  503TIP3   OH222923   0.273   0.204   1.330  0.1192  0.1684  0.1575
  503TIP3    H122924   0.321   0.122   1.342  1.9822  1.2682  0.5720
  503TIP3    H222925   0.313   0.265   1.392 -2.5811  0.8910  1.3482
  504TIP3   OH222926   6.400   5.704   3.316  0.5562  0.5104  0.0939
  504TIP3    H122927   6.331   5.730   3.376  0.3393  1.3940 -0.5221
  504TIP3    H222928   6.417   5.782   3.264  0.6454 -0.2740 -1.0811
  505TIP3   OH222929   5.597   5.914   2.964  0.0962 -0.1153 -0.8524
  505TIP3    H122930   5.676   5.959   2.932  0.0959 -0.5474 -1.4803
  505TIP3    H222931   5.581   5.953   3.050  1.2905 -0.3738 -0.4923
  506TIP3   OH222932   1.670   6.640   3.139 -0.3094 -0.3525 -0.5955
  506TIP3    H122933   1.722   6.571   3.099  0.5165 -0.2589  0.2808
  506TIP3    H222934   1.686   6.631   3.233  0.5329  1.5598 -0.4974
  507TIP3   OH222935   3.792   1.330  14.253  0.2533 -0.2592 -0.2655
  507TIP3    H122936   3.809   1.237  14.236  1.2929 -0.3338  1.0591
  507TIP3    H222937   3.750   1.332  14.338 -0.0492  0.4710 -0.4257
  508TIP3   OH222938   6.350   4.065   4.851 -0.1300 -0.4376  0.4858
  508TIP3    H122939   6.320   3.980   4.882  0.2254 -0.8842 -0.3675
  508TIP3    H222940   6.443   4.068   4.872 -0.1032 -0.3344  0.3571
  509TIP3   OH222941   3.138   0.489   0.455  0.0419  0.1117 -0.3680
  509TIP3    H122942   3.151   0.460   0.545 -0.6831  0.8176 -0.0259
  509TIP3    H222943   3.069   0.433   0.421 -0.3817  0.5008 -0.1577
  510TIP3   OH222944   4.750   1.635   5.977  0.6209 -0.3386  0.0806
  510TIP3    H122945   4.827   1.615   6.030  1.0463  0.2404 -0.3131
  510TIP3    H222946   4.683   1.575   6.010  1.1300 -0.5997  0.6715
  511TIP3   OH222947   4.641   1.942  16.295 -0.0283  0.0014  0.3174
  511TIP3    H122948   4.619   2.028  16.260 -0.4170 -0.5980 -0.9457
  511TIP3    H222949   4.737   1.942  16.300  0.0643 -0.0718 -1.2168
  512TIP3   OH222950   3.237   2.345  10.998 -0.6818  0.1232 -0.6682
  512TIP3    H122951   3.244   2.307  10.910 -0.2239 -0.1510 -0.5115
  512TIP3    H222952   3.213   2.271  11.054 -3.0154  0.6346 -0.8610
  513TIP3   OH222953   5.384   3.183  16.391  0.2228  0.2117  0.2209
  513TIP3    H122954   5.413   3.185  16.482  0.3749  0.6212  0.1650
  513TIP3    H222955   5.464   3.170  16.340  0.6104  3.1489 -0.0527
  514TIP3   OH222956   2.196   1.462  14.052 -0.2865  0.3753  0.7047
  514TIP3    H122957   2.217   1.526  13.983  0.1202 -0.4085  0.0737
  514TIP3    H222958   2.273   1.405  14.055 -0.7467 -0.2322  1.0805
  515TIP3   OH222959   0.928   4.065   3.556 -0.3906  0.3227  0.5205
  515TIP3    H122960   1.020   4.069   3.580 -0.3448 -0.7301  0.5978
  515TIP3    H222961   0.926   4.015   3.474 -0.8595  0.6400  0.3329
  516TIP3   OH222962   4.453   1.864   6.546  0.5115  0.2643 -0.4341
  516TIP3    H122963   4.536   1.893   6.508 -0.4931  2.2732 -1.2524
  516TIP3    H222964   4.435   1.929   6.614 -1.1347  0.8017 -1.3360
  517TIP3   OH222965   1.040   4.846   0.786 -0.1887 -0.0999  0.0337
  517TIP3    H122966   1.102   4.840   0.713  0.0145 -0.5411  0.2390
  517TIP3    H222967   1.031   4.756   0.817 -1.0523 -0.0675 -0.0876
  518TIP3   OH222968   5.599   0.903   2.229 -0.5037 -0.7293 -0.2967
  518TIP3    H122969   5.629   0.813   2.243 -0.5671 -0.7277 -0.1419
  518TIP3    H222970   5.598   0.941   2.317  3.2237  0.6359 -0.6547
  519TIP3   OH222971   3.696   0.652  11.503 -0.8908  0.1875 -0.6212
  519TIP3    H122972   3.645   0.668  11.582  0.2273  1.3996 -0.1045
  519TIP3    H222973   3.769   0.598  11.533  0.1747  1.6083 -0.5422
  520TIP3   OH222974   3.439   1.320  16.201  0.3730 -0.1402  0.1847
  520TIP3    H122975   3.495   1.243  16.190 -0.2563 -1.4293  4.3374
  520TIP3    H222976   3.497   1.388  16.234  0.5504  0.6244 -1.5903
  521TIP3   OH222977   3.963   6.576   0.679 -0.3018  0.8117 -0.1965
  521TIP3    H122978   3.899   6.648   0.678 -1.8999 -0.5521 -1.5007
  521TIP3    H222979   3.997   6.573   0.590  1.3269  1.2310  0.3742
  522TIP3   OH222980   0.577   5.113   4.003  0.4386 -0.5187 -0.1803
  522TIP3    H122981   0.508   5.068   4.052  1.2331 -1.2164  0.3168
  522TIP3    H222982   0.658   5.079   4.039  1.0504 -0.1699 -1.1935
  523TIP3   OH222983   2.898   2.606  15.442  0.2178  0.2057 -0.4330
  523TIP3    H122984   2.913   2.624  15.535  0.8314 -1.6390 -0.1287
  523TIP3    H222985   2.805   2.584  15.438  0.2257  0.1272 -0.2279
  524TIP3   OH222986   0.636   5.882   2.345 -0.3914  0.5387  0.2542
  524TIP3    H122987   0.593   5.863   2.428  0.8968  0.4111  0.9251
  524TIP3    H222988   0.728   5.858   2.360  0.2649  2.3719 -0.5534
  525TIP3   OH222989   1.043   0.897  13.734 -0.3465 -0.3381 -0.0043
  525TIP3    H122990   1.018   0.890  13.826 -1.8085  1.6828 -0.1826
  525TIP3    H222991   1.043   0.807  13.702 -1.0523 -0.9680  1.6624
  526TIP3   OH222992   4.169   0.396  11.362  0.2136 -0.7512  0.3502
  526TIP3    H122993   4.220   0.461  11.313  0.7610 -2.2274 -1.1293
  526TIP3    H222994   4.166   0.319  11.304 -2.0592 -1.3996  1.2174
  527TIP3   OH222995   0.733   2.457  11.101 -0.0893  0.1701 -0.4902
  527TIP3    H122996   0.782   2.476  11.022 -0.3888  1.1479 -0.4588
  527TIP3    H222997   0.641   2.473  11.077 -0.3347 -0.9640 -0.3591
  528TIP3   OH222998   0.982   6.669   2.865  0.0736  0.5009  0.1494
  528TIP3    H122999   1.046   6.733   2.833  0.5273 -0.1257 -0.2016
  528TIP3    H223000   1.033   6.590   2.883 -0.5786  0.0329 -0.0178
  529TIP3   OH223001   5.267   5.209  12.906  0.0309  0.0065 -0.1083
  529TIP3    H123002   5.345   5.265  12.912  0.6514 -0.7680 -0.6604
  529TIP3    H223003   5.195   5.270  12.893  0.1856  0.9396  2.5913
  530TIP3   OH223004   0.350   0.535  15.751 -0.3985 -0.7706 -0.1052
  530TIP3    H123005   0.369   0.603  15.687 -0.2696 -0.6043  0.1077
  530TIP3    H223006   0.256   0.544  15.768 -0.2259 -0.0797  0.5587
  531TIP3   OH223007   4.011   6.221  15.317 -0.5993 -0.1268  0.8654
  531TIP3    H123008   4.103   6.243  15.333 -0.2662  0.4094 -1.4061
  531TIP3    H223009   3.963   6.298  15.347  0.1097  1.4937 -1.8169
  532TIP3   OH223010   0.285   6.505   6.140 -0.0217 -1.0572  0.0369
  532TIP3    H123011   0.214   6.550   6.094 -0.6283 -3.2034 -1.2948
  532TIP3    H223012   0.250   6.487   6.227  0.2690  1.0316  0.6285
  533TIP3   OH223013   3.578   2.510  12.925 -0.0799 -0.3405  0.4570
  533TIP3    H123014   3.505   2.559  12.888 -0.7438 -1.8837 -0.3282
  533TIP3    H223015   3.645   2.577  12.941 -1.3203  0.9716  0.3885
  534TIP3   OH223016   1.955   0.653   1.463  0.0991 -0.0940 -0.0289
  534TIP3    H123017   1.970   0.559   1.452 -0.0040 -0.2156  0.7603
  534TIP3    H223018   1.868   0.668   1.427  1.0642  0.1719 -2.4239
  535TIP3   OH223019   0.325   5.826   0.383  0.5638 -0.0980  0.0841
  535TIP3    H123020   0.406   5.875   0.366  0.1457 -0.1624 -2.5335
  535TIP3    H223021   0.338   5.743   0.337 -1.3647  0.3180 -1.3179
  536TIP3   OH223022   5.042   4.728  10.908  0.1102 -0.6653 -0.0899
  536TIP3    H123023   5.111   4.683  10.957  0.4737 -0.1962 -0.1677
  536TIP3    H223024   5.004   4.660  10.853 -0.1036 -1.1344  0.6165
  537TIP3   OH223025   6.444   2.667  13.637 -0.0308  0.0493 -0.2821
  537TIP3    H123026   6.439   2.735  13.569  0.3055  0.7244  0.3510
  537TIP3    H223027   6.445   2.585  13.588  0.3438  0.5234 -1.1014
  538TIP3   OH223028   2.532   5.639   4.523  0.5858 -0.5171  0.1015
  538TIP3    H123029   2.587   5.717   4.512  0.0761  0.2150  2.3081
  538TIP3    H223030   2.579   5.570   4.475  2.1793  0.6336 -0.0785
  539TIP3   OH223031   4.388   2.821  16.548 -0.1005 -0.2198 -0.3897
  539TIP3    H123032   4.418   2.763  16.478  1.9485  0.3031 -0.0243
  539TIP3    H223033   4.463   2.826  16.608 -0.4818  2.1676 -0.0023
  540TIP3   OH223034   4.361   4.177   0.998  0.2123  0.2895  1.2060
  540TIP3    H123035   4.287   4.152   0.943  3.6759 -3.7475 -2.3701
  540TIP3    H223036   4.375   4.101   1.055  1.6862  0.8428  1.6269
  541TIP3   OH223037   4.638   6.081   3.835 -0.3755 -0.0787 -0.1557
  541TIP3    H123038   4.597   6.043   3.912 -1.8953 -0.2115 -0.9888
  541TIP3    H223039   4.612   6.023   3.763  0.1120  0.6378 -0.9272
  542TIP3   OH223040   3.655   0.407   2.351 -0.2830  1.0531 -0.0399
  542TIP3    H123041   3.569   0.441   2.373 -1.0065 -0.9380  0.4017
  542TIP3    H223042   3.691   0.375   2.434  1.8426  3.6924  0.2180
  543TIP3   OH223043   0.761   3.863  11.138  0.3930 -0.0791 -0.0552
  543TIP3    H123044   0.747   3.958  11.142 -1.4857 -0.1878 -2.0146
  543TIP3    H223045   0.823   3.850  11.066  0.0070 -0.3645 -0.3426
  544TIP3   OH223046   1.387   6.610  16.584 -0.0293  0.2159  0.4581
  544TIP3    H123047   1.421   6.604  16.673  0.0172 -1.8882  0.3349
  544TIP3    H223048   1.460   6.583  16.529 -0.2313  0.9814 -0.2066
  545TIP3   OH223049   5.266   1.874   3.114  0.5485  1.2092 -0.0359
  545TIP3    H123050   5.318   1.820   3.055 -2.4808  0.2305 -2.0351
  545TIP3    H223051   5.232   1.812   3.179 -1.0960  1.0771 -0.9854
  546TIP3   OH223052   4.709   2.320   4.910  0.0348  0.0525 -0.0977
  546TIP3    H123053   4.774   2.313   4.840 -1.2210 -1.3269 -1.1970
  546TIP3    H223054   4.658   2.398   4.888  0.1501  0.0770 -0.2810
  547TIP3   OH223055   0.038   5.153  13.999 -0.0940 -0.2060 -0.1449
  547TIP3    H123056   0.099   5.181  13.931 -0.0076 -1.1646 -0.4704
  547TIP3    H223057   0.056   5.060  14.012  0.4849  0.1315  1.7986
  548TIP3   OH223058   3.538   4.639  13.675  0.1040 -0.0997 -0.1350
  548TIP3    H123059   3.460   4.676  13.632 -0.5226 -0.6664  0.4744
  548TIP3    H223060   3.539   4.547  13.648  1.7491  0.3736 -1.7765
  549TIP3   OH223061   2.283   5.609  16.719 -0.0072  0.2688 -0.6209
  549TIP3    H123062   2.189   5.613  16.702  0.0666 -1.4035 -1.7102
  549TIP3    H223063   2.317   5.551  16.651  1.6163 -0.1931  0.5198
  550TIP3   OH223064   0.326   1.830  11.114  0.5328  0.4899  0.1989
  550TIP3    H123065   0.357   1.873  11.035  1.0568  0.3634  0.3299
  550TIP3    H223066   0.248   1.781  11.087  1.1347 -0.1610 -0.4087
  551TIP3   OH223067   3.101   4.567   0.135  0.0769 -0.2275 -0.0656
  551TIP3    H123068   3.041   4.586   0.207  0.8191  1.6642  0.1181
  551TIP3    H223069   3.045   4.565   0.057 -0.4322 -0.1440  0.2916
  552TIP3   OH223070   2.315   2.036   6.319 -0.3179  0.4875 -0.6012
  552TIP3    H123071   2.263   1.963   6.351  1.3980  0.0820  1.5208
  552TIP3    H223072   2.339   2.012   6.229 -2.6047  0.1066 -1.1600
  553TIP3   OH223073   6.333   6.057  15.988 -0.0897  0.6046  0.2470
  553TIP3    H123074   6.375   5.986  15.939  0.8267  1.0016  0.4326
  553TIP3    H223075   6.308   6.018  16.071 -1.5291 -0.0398 -0.4496
  554TIP3   OH223076   4.120   2.246   3.042 -0.3648 -0.7546 -0.6721
  554TIP3    H123077   4.209   2.263   3.012 -0.3353 -0.3537 -0.3674
  554TIP3    H223078   4.070   2.324   3.018 -0.5440 -0.8135 -0.5018
  555TIP3   OH223079   0.116   3.103   0.522 -0.1842 -0.4022 -0.0666
  555TIP3    H123080   0.048   3.053   0.566 -0.7996 -0.9925 -1.6021
  555TIP3    H223081   0.098   3.091   0.428  1.1414  0.6609 -0.5002
  556TIP3   OH223082   1.003   3.182   1.979  0.6343  0.3897  0.6259
  556TIP3    H123083   1.054   3.144   2.050 -1.0111  0.3107  1.8159
  556TIP3    H223084   0.962   3.107   1.935  3.7881  0.1221 -2.3105
  557TIP3   OH223085   2.178   5.984   1.902  0.2701  0.0811  0.5900
  557TIP3    H123086   2.153   5.964   1.992  0.8002  0.7005  0.8863
  557TIP3    H223087   2.240   5.914   1.879  0.2317 -0.0067  0.7481
  558TIP3   OH223088   2.894   1.659   0.574  0.2238  0.4487  0.1001
  558TIP3    H123089   2.958   1.681   0.641 -0.1852 -0.1257  0.6933
  558TIP3    H223090   2.810   1.682   0.613  0.1328  3.2523 -1.4687
  559TIP3   OH223091   3.466   1.123  13.860  0.1237 -0.2955  0.4340
  559TIP3    H123092   3.527   1.106  13.931  0.3468  1.4369  0.6992
  559TIP3    H223093   3.491   1.210  13.827 -0.9847 -0.3790 -0.7052
  560TIP3   OH223094   0.953   3.895  14.481  0.6600 -0.5248  0.1034
  560TIP3    H123095   0.955   3.894  14.577  0.5809 -0.9729  0.1019
  560TIP3    H223096   1.032   3.944  14.456  1.7340 -2.0719  0.3664
  561TIP3   OH223097   5.935   3.098   1.597 -0.2185 -0.4920 -0.2535
  561TIP3    H123098   5.872   3.099   1.669 -0.0797 -2.0291 -0.0739
  561TIP3    H223099   6.016   3.065   1.636  0.1212 -0.4656 -0.9212
  562TIP3   OH223100   4.455   0.633  16.323  0.5446  0.0502 -0.2313
  562TIP3    H123101   4.398   0.661  16.394 -0.3155  0.4743 -1.0632
  562TIP3    H223102   4.395   0.595  16.258  1.2104  0.4203 -1.0817
  563TIP3   OH223103   5.973   0.885   5.511  0.4677  0.1396 -0.0745
  563TIP3    H123104   5.985   0.791   5.528 -0.5900  0.3043  1.8686
  563TIP3    H223105   5.930   0.888   5.426 -1.4573 -1.3210  0.7545
  564TIP3   OH223106   5.477   4.255   4.278 -0.0885 -0.3357  0.4897
  564TIP3    H123107   5.450   4.165   4.260 -1.5123  0.4382 -1.5492
  564TIP3    H223108   5.551   4.246   4.339  2.2419 -3.0655 -2.4075
  565TIP3   OH223109   0.541   5.810  11.343 -0.2582 -0.3063 -0.4678
  565TIP3    H123110   0.559   5.778  11.255  0.7095 -1.1200  0.0192
  565TIP3    H223111   0.609   5.772  11.398  2.2956  4.0588 -0.1082
  566TIP3   OH223112   2.009   5.929  10.844  0.3194 -0.5971  0.0828
  566TIP3    H123113   2.040   5.849  10.801  0.6857 -0.0821 -0.6465
  566TIP3    H223114   1.914   5.926  10.837  0.3719 -0.5667 -0.6996
  567TIP3   OH223115   3.954   3.209   4.857 -0.0333 -0.0709  0.4773
  567TIP3    H123116   3.916   3.221   4.943 -0.2327  0.1115  0.3641
  567TIP3    H223117   4.045   3.237   4.867 -0.4260  1.3596  0.2797
  568TIP3   OH223118   3.825   1.245  17.066 -0.1244  0.3914 -0.2507
  568TIP3    H123119   3.805   1.242  17.159  0.9671  0.0644 -0.0192
  568TIP3    H223120   3.739   1.257  17.024 -0.8010 -0.9131  0.7038
  569TIP3   OH223121   6.599   6.640  15.568  0.0132  0.8002  0.0693
  569TIP3    H123122   6.671   6.678  15.517  1.5804 -2.7575 -0.6359
  569TIP3    H223123   6.529   6.625  15.505  0.7302 -0.6034 -0.4385
  570TIP3   OH223124   3.354   1.903  12.471 -0.3285 -0.1813  0.0161
  570TIP3    H123125   3.401   1.965  12.416 -1.7040  0.5791 -0.3478
  570TIP3    H223126   3.368   1.818  12.429 -1.3206  0.3813 -1.5218
  571TIP3   OH223127   5.732   5.754   5.341 -0.1101 -0.1386  0.3210
  571TIP3    H123128   5.741   5.666   5.303  0.4080 -0.9205  2.1555
  571TIP3    H223129   5.822   5.783   5.356 -0.2963  0.4041  0.3851
  572TIP3   OH223130   3.932   0.828   0.794 -0.3338 -0.4077 -0.1023
  572TIP3    H123131   3.974   0.837   0.708  0.9398 -1.3886  0.3741
  572TIP3    H223132   3.842   0.804   0.774 -0.2091 -0.0810 -1.1637
  573TIP3   OH223133   0.877   0.574   1.689  0.0842  0.1714 -0.2869
  573TIP3    H123134   0.797   0.597   1.641  0.3751 -0.3605 -1.0422
  573TIP3    H223135   0.849   0.512   1.755 -0.0313 -0.5402 -0.9921
  574TIP3   OH223136   6.715   6.693  12.043 -0.4895 -0.4130  0.2076
  574TIP3    H123137   6.780   6.760  12.025 -0.4305 -0.5511 -0.0946
  574TIP3    H223138   6.645   6.739  12.091  0.3119 -0.4817  1.5012
  575TIP3   OH223139   4.227   5.297   4.063  0.0614 -0.7067  0.1025
  575TIP3    H123140   4.280   5.256   3.994  0.4306  0.5173 -0.3559
  575TIP3    H223141   4.224   5.390   4.040  0.8273 -0.1286  2.1441
  576TIP3   OH223142   1.426   0.619  11.772  0.0818  0.3118  0.2155
  576TIP3    H123143   1.336   0.592  11.790  0.3720  0.1463  1.4824
  576TIP3    H223144   1.473   0.536  11.759  0.7910  0.1292  3.2425
  577TIP3   OH223145   0.037   6.415   0.961 -0.2044  0.1464 -0.2103
  577TIP3    H123146   0.048   6.478   0.889  0.1547 -0.0695 -0.3433
  577TIP3    H223147   0.052   6.467   1.040  0.7118  0.1025 -0.3405
  578TIP3   OH223148   4.712   2.797  16.088 -0.8081  0.2747 -0.2717
  578TIP3    H123149   4.678   2.837  16.009  1.0494  0.0571 -1.2301
  578TIP3    H223150   4.788   2.747  16.059  1.5552  2.2814  1.9635
  579TIP3   OH223151   1.749   1.809  15.865  0.4722  0.8204  0.0906
  579TIP3    H123152   1.686   1.787  15.796  0.0577  1.1790  0.3491
  579TIP3    H223153   1.834   1.784  15.829  0.1042 -0.5001  0.0811
  580TIP3   OH223154   5.383   3.587   0.693  0.0907 -0.1953 -0.1329
  580TIP3    H123155   5.460   3.594   0.637 -0.3559 -0.7618 -0.8352
  580TIP3    H223156   5.387   3.664   0.750  0.1229  0.8304 -1.4859
  581TIP3   OH223157   5.810   3.994   4.229  0.4374  0.6190  0.1126
  581TIP3    H123158   5.753   3.944   4.288  2.2088 -1.5733  0.0950
  581TIP3    H223159   5.895   3.995   4.273  1.9286 -1.4234 -2.4724
  582TIP3   OH223160   1.749   3.968   0.982 -0.5195  0.3646 -0.0599
  582TIP3    H123161   1.723   3.992   1.071 -0.3855  1.7605 -0.3672
  582TIP3    H223162   1.763   4.052   0.939  1.0363 -0.3151 -0.9215
  583TIP3   OH223163   5.255   1.888  13.893 -0.0592  0.3625  0.3873
  583TIP3    H123164   5.228   1.799  13.913 -0.6082  0.6473  0.9512
  583TIP3    H223165   5.345   1.894  13.926  0.2118 -0.1600 -0.2242
  584TIP3   OH223166   3.726   6.762  13.940 -0.5160  0.1529 -0.5760
  584TIP3    H123167   3.687   6.836  13.894 -1.3494 -0.3273 -0.6671
  584TIP3    H223168   3.655   6.698  13.948 -0.0258 -0.3212  0.1885
  585TIP3   OH223169   5.637   0.608   2.160  0.1900 -0.0078 -0.4141
  585TIP3    H123170   5.668   0.519   2.176  0.4773  0.4255  1.6255
  585TIP3    H223171   5.588   0.601   2.078  0.9456 -1.8487 -0.7699
  586TIP3   OH223172   0.596   4.162  16.740  0.1673 -0.5011 -0.3015
  586TIP3    H123173   0.648   4.113  16.803 -1.5794 -1.6923  0.2869
  586TIP3    H223174   0.512   4.116  16.737 -1.7295  2.6209  0.5416
  587TIP3   OH223175   0.067   4.437  11.781  0.3865  0.4844  0.2803
  587TIP3    H123176   0.078   4.462  11.689 -3.0583 -0.9794 -0.7008
  587TIP3    H223177   0.124   4.361  11.792 -1.2703 -1.1727 -1.6485
  588TIP3   OH223178   6.606   4.010  14.089 -0.1016 -1.3601 -0.6624
  588TIP3    H123179   6.531   4.030  14.144 -0.0281  0.3163 -1.1118
  588TIP3    H223180   6.571   4.005  14.000  0.3480 -0.1473 -0.9302
  589TIP3   OH223181   0.561   4.981  16.301 -0.0080 -0.2085  0.1049
  589TIP3    H123182   0.478   4.986  16.350 -0.2521  2.4420 -0.4557
  589TIP3    H223183   0.603   5.065  16.316  0.8370 -0.0535 -2.6455
  590TIP3   OH223184   2.158   1.313  15.569 -0.0928  0.2403  0.5480
  590TIP3    H123185   2.163   1.403  15.537 -0.5662  0.2776  0.5836
  590TIP3    H223186   2.070   1.304  15.604 -0.2175 -0.3870  0.0908
  591TIP3   OH223187   3.524   4.341  15.391  0.1714 -0.1610 -0.0750
  591TIP3    H123188   3.577   4.341  15.471  0.9409  1.6382 -0.5241
  591TIP3    H223189   3.436   4.364  15.420  0.3538  0.0378  0.3242
  592TIP3   OH223190   6.131   5.238   3.495 -0.1228 -0.0164 -0.2192
  592TIP3    H123191   6.212   5.221   3.543 -0.3811 -1.3271 -0.2207
  592TIP3    H223192   6.156   5.235   3.403 -0.2178 -0.6661 -0.2244
  593TIP3   OH223193   5.581   5.856  14.116 -0.2078 -0.6380 -0.2720
  593TIP3    H123194   5.492   5.865  14.149  0.3490 -0.4304  1.3092
  593TIP3    H223195   5.630   5.820  14.191  1.3176  0.6804 -0.5865
  594TIP3   OH223196   2.889   2.440   0.253 -0.5142 -0.2480 -0.1182
  594TIP3    H123197   2.910   2.439   0.347  0.2659  1.5932 -0.2397
  594TIP3    H223198   2.828   2.367   0.242 -2.0543  0.5787  2.1780
  595TIP3   OH223199   3.425   3.587   1.747 -0.1615  0.0272  0.2402
  595TIP3    H123200   3.430   3.664   1.804 -2.2248  0.5981 -0.2793
  595TIP3    H223201   3.333   3.580   1.724 -0.1312 -2.9142  0.6526
  596TIP3   OH223202   5.629   6.341   5.759 -0.1842  0.2859  0.0432
  596TIP3    H123203   5.534   6.342   5.749 -0.1168  1.2658 -0.6434
  596TIP3    H223204   5.661   6.303   5.677 -0.0105 -1.2676  0.7879
  597TIP3   OH223205   1.271   6.450  14.441  0.6944 -0.1330  0.1819
  597TIP3    H123206   1.362   6.468  14.418  0.9169  0.0041  1.1460
  597TIP3    H223207   1.220   6.510  14.387  1.1724 -0.2614 -0.4175
  598TIP3   OH223208   4.123   2.954   0.488  0.0167 -0.5427  0.4710
  598TIP3    H123209   4.141   2.943   0.395 -1.3565  1.2596 -0.0718
  598TIP3    H223210   4.200   2.918   0.532  1.1601 -0.4988 -1.3911
  599TIP3   OH223211   3.883   4.928   5.698 -0.5058 -0.2930 -0.1631
  599TIP3    H123212   3.922   4.984   5.766  0.7520 -1.1008 -0.1798
  599TIP3    H223213   3.817   4.983   5.656  0.8401  1.2655 -0.3289
  600TIP3   OH223214   1.528   5.055   1.036 -0.4316 -0.6875 -0.6340
  600TIP3    H123215   1.579   5.049   1.117  2.8616 -0.8404 -2.5498
  600TIP3    H223216   1.500   4.966   1.019  0.1630 -0.9182 -0.4320
  601TIP3   OH223217   5.457   6.183  13.989 -0.1609  0.1771 -0.2162
  601TIP3    H123218   5.398   6.128  14.039 -1.1935  0.5542 -0.9754
  601TIP3    H223219   5.541   6.176  14.034 -0.8698 -0.0716  1.1094
  602TIP3   OH223220   1.238   0.755  16.795 -0.4976  0.1244 -0.3428
  602TIP3    H123221   1.238   0.668  16.833 -1.3797 -0.0520 -0.7232
  602TIP3    H223222   1.203   0.742  16.707 -1.7220  1.0215 -0.0075
  603TIP3   OH223223   5.955   5.293   5.042 -0.3977  0.0984 -0.0695
  603TIP3    H123224   5.868   5.269   5.010 -0.4711  0.7340 -0.3712
  603TIP3    H223225   5.981   5.368   4.988 -0.1287  0.6126  0.7417
  604TIP3   OH223226   2.682   2.271  11.421 -0.0949  0.3283  0.3519
  604TIP3    H123227   2.590   2.298  11.419 -0.1269  0.2057 -0.7892
  604TIP3    H223228   2.723   2.330  11.484 -0.2445  2.8424 -1.7043
  605TIP3   OH223229   1.422   3.094   4.968 -0.4158 -0.1124 -0.1953
  605TIP3    H123230   1.340   3.143   4.970 -0.3246  0.0365  0.0752
  605TIP3    H223231   1.398   3.005   4.993 -0.6054 -0.2405 -0.8341
  606TIP3   OH223232   5.228   4.525  14.098  0.5167  0.3780 -0.5603
  606TIP3    H123233   5.311   4.496  14.137 -0.2837  0.0973  1.0156
  606TIP3    H223234   5.254   4.573  14.020  2.1959  0.7276  0.1668
  607TIP3   OH223235   4.842   4.842  15.378  0.8688  0.1923 -0.5344
  607TIP3    H123236   4.763   4.801  15.412  2.0959 -0.9640  1.0643
  607TIP3    H223237   4.830   4.935  15.396  0.2535 -0.0775  0.5611
  608TIP3   OH223238   1.870   2.727   5.217  0.3092 -0.0635  0.1382
  608TIP3    H123239   1.791   2.682   5.246  0.7596 -0.5969  0.5681
  608TIP3    H223240   1.925   2.731   5.295  0.3008  1.2067  0.1018
  609TIP3   OH223241   3.274   0.438  16.132 -0.0621  0.2355  0.3799
  609TIP3    H123242   3.290   0.522  16.173  1.0465 -0.9370  2.5064
  609TIP3    H223243   3.224   0.388  16.197 -0.8818 -0.7109 -0.9138
  610TIP3   OH223244   1.060   3.231   0.604  0.2789  0.2055 -0.7127
  610TIP3    H123245   1.112   3.153   0.583  0.6780  0.5102 -0.8783
  610TIP3    H223246   1.034   3.219   0.696  0.0988 -0.2552 -0.8243
  611TIP3   OH223247   6.009   2.411  15.514 -0.3365 -0.0847  0.3476
  611TIP3    H123248   6.040   2.322  15.501  0.4575  0.1046  0.8985
  611TIP3    H223249   5.964   2.409  15.598 -0.7385 -0.0698  0.1360
  612TIP3   OH223250   1.228   5.451   0.481 -0.1658  0.4504 -0.3305
  612TIP3    H123251   1.171   5.505   0.534  0.9953  1.6821 -0.2834
  612TIP3    H223252   1.246   5.374   0.535 -1.4174  0.2475 -0.1879
  613TIP3   OH223253   5.331   0.554  15.140 -0.1654 -0.3839 -0.0436
  613TIP3    H123254   5.368   0.542  15.228  0.0463  1.0820  0.0847
  613TIP3    H223255   5.373   0.633  15.107  0.3389 -1.3136 -1.7867
  614TIP3   OH223256   0.062   0.660   6.116  0.5353 -0.1649  0.1897
  614TIP3    H123257   0.151   0.627   6.126  0.8560  0.6003 -0.0489
  614TIP3    H223258   0.009   0.607   6.176  1.0609 -0.9634 -0.0398
  615TIP3   OH223259   3.679   2.940  13.815 -0.5298 -0.7991  0.2738
  615TIP3    H123260   3.625   2.965  13.741  0.8361 -0.4854 -0.6512
  615TIP3    H223261   3.654   3.000  13.885  0.2889  0.9863 -0.8749
  616TIP3   OH223262   5.261   6.659  12.995  0.2209 -0.1588 -0.2194
  616TIP3    H123263   5.259   6.754  12.985 -1.2407 -0.0797  0.5465
  616TIP3    H223264   5.199   6.626  12.930 -0.5052 -0.4507  0.5920
  617TIP3   OH223265   4.129   6.646  11.587  0.4240  0.3978  0.2710
  617TIP3    H123266   4.052   6.597  11.558 -0.1771  0.1852  2.0801
  617TIP3    H223267   4.187   6.648  11.511 -0.6125 -0.9660 -0.5961
  618TIP3   OH223268   4.916   1.219  13.010 -0.1315 -0.7099  0.5242
  618TIP3    H123269   4.839   1.218  12.953  0.5825  2.2276 -0.7113
  618TIP3    H223270   4.886   1.264  13.089  0.2607  0.4177  0.0500
  619TIP3   OH223271   1.685   3.064   1.468  0.1300 -0.2156  0.5550
  619TIP3    H123272   1.685   3.010   1.389 -0.7619  1.0762 -0.3750
  619TIP3    H223273   1.593   3.070   1.492  0.0604  1.8760 -0.0933
  620TIP3   OH223274   1.920   1.154  15.212 -0.0732 -0.5009  0.0606
  620TIP3    H123275   1.941   1.243  15.186  0.2438 -0.2217  1.1986
  620TIP3    H223276   1.902   1.108  15.130  3.1176 -0.2837 -0.8600
  621TIP3   OH223277   2.852   5.007   5.920 -0.3913 -0.2589 -0.3244
  621TIP3    H123278   2.830   5.069   5.989  1.5631 -1.8456  1.8708
  621TIP3    H223279   2.930   5.043   5.878 -1.0463  0.2485 -1.1367
  622TIP3   OH223280   5.104   3.518   5.888 -0.2688  0.1668  0.0172
  622TIP3    H123281   5.141   3.496   5.973 -0.7779  0.1069  0.2246
  622TIP3    H223282   5.067   3.605   5.899 -2.4182 -0.7602  0.5447
  623TIP3   OH223283   5.257   0.335  15.704  0.8057 -0.1597  0.1058
  623TIP3    H123284   5.325   0.270  15.688  1.1859  0.2088  0.2156
  623TIP3    H223285   5.178   0.297  15.666  1.0635 -0.6078  0.0152
  624TIP3   OH223286   0.224   1.093  10.650 -0.3057  0.0024  0.2127
  624TIP3    H123287   0.170   1.133  10.582 -1.9106 -2.7883 -0.2948
  624TIP3    H223288   0.254   1.010  10.613  0.8314 -0.4756  2.0395
  625TIP3   OH223289   6.612   6.171   0.238 -0.3043  0.5980  0.1891
  625TIP3    H123290   6.576   6.105   0.296  0.6391  0.2660  0.4064
  625TIP3    H223291   6.686   6.129   0.195  1.3552  1.9593  1.5380
  626TIP3   OH223292   0.085   3.303  10.926  0.0654  0.1709  0.7571
  626TIP3    H123293   0.140   3.225  10.928  0.1892  0.2435  0.3036
  626TIP3    H223294   0.041   3.304  11.011 -2.6449 -2.3412 -0.4362
  627TIP3   OH223295   2.766   3.289  15.655 -0.1920  0.9003  0.0250
  627TIP3    H123296   2.844   3.252  15.696 -1.0214 -0.5109  0.3890
  627TIP3    H223297   2.787   3.293  15.562  0.7515  1.7139  0.2479
  628TIP3   OH223298   1.227   1.237  15.796 -0.8082 -0.1450 -0.2040
  628TIP3    H123299   1.304   1.241  15.853 -0.6322 -0.0679 -0.4450
  628TIP3    H223300   1.196   1.328  15.792 -0.4484 -0.0386 -0.7324
  629TIP3   OH223301   3.671   1.187   6.012  0.2715  0.1392 -0.0508
  629TIP3    H123302   3.701   1.221   6.096  0.6224 -0.8415  0.2412
  629TIP3    H223303   3.706   1.247   5.947 -0.0957  0.9713  0.5022
  630TIP3   OH223304   0.145   0.641  16.337  0.0632 -0.7070  0.3062
  630TIP3    H123305   0.201   0.718  16.325  0.0496 -0.4514  1.7152
  630TIP3    H223306   0.060   0.668  16.301  0.5643 -0.7878 -1.0226
  631TIP3   OH223307   1.753   2.427   0.632 -0.0398  1.0027 -0.2523
  631TIP3    H123308   1.689   2.414   0.702 -0.1038  0.7127 -0.3613
  631TIP3    H223309   1.828   2.469   0.675  1.6524 -2.7509  0.9610
  632TIP3   OH223310   1.686   2.878  13.468 -0.0063 -0.1403 -0.5664
  632TIP3    H123311   1.624   2.948  13.451  0.0625  0.0494 -0.0634
  632TIP3    H223312   1.764   2.901  13.419 -0.1081 -0.0447 -0.6822
  633TIP3   OH223313   2.936   3.445   6.189  0.7666 -0.2353 -0.1991
  633TIP3    H123314   2.887   3.509   6.241  0.1534 -0.6201 -0.2860
  633TIP3    H223315   2.993   3.401   6.252  1.6347  0.7989 -0.2411
  634TIP3   OH223316   1.083   4.880  11.987  0.1040 -0.7343  0.2251
  634TIP3    H123317   1.007   4.909  12.038 -1.2720 -1.4642 -1.2881
  634TIP3    H223318   1.147   4.852  12.052 -1.0492 -0.4124  1.5562
  635TIP3   OH223319   2.086   5.188  12.406  0.6761 -0.3752  0.4480
  635TIP3    H123320   2.180   5.203  12.395  0.2441  1.4041 -1.5546
  635TIP3    H223321   2.055   5.267  12.451 -0.0811 -0.1555 -0.4364
  636TIP3   OH223322   5.205   1.454   0.882 -0.1311  0.4779 -0.6020
  636TIP3    H123323   5.207   1.369   0.837 -0.7620 -1.3901  2.5493
  636TIP3    H223324   5.270   1.445   0.951 -0.3860  2.5104 -0.0537
  637TIP3   OH223325   2.212   6.583   2.315 -0.4482  0.2413  0.2483
  637TIP3    H123326   2.282   6.646   2.331  1.1415 -1.0510 -1.1721
  637TIP3    H223327   2.250   6.521   2.252 -2.5347 -1.1093  0.2287
  638TIP3   OH223328   3.101   2.421  14.153  0.4636 -0.5677 -0.3998
  638TIP3    H123329   3.094   2.365  14.076  0.4345 -0.3921 -0.5239
  638TIP3    H223330   3.079   2.509  14.122 -0.9968 -0.7340  0.1113
  639TIP3   OH223331   4.440   2.735   2.958 -0.3717  0.3186  0.0744
  639TIP3    H123332   4.444   2.641   2.942  1.3649  0.6302 -1.7237
  639TIP3    H223333   4.474   2.775   2.877  4.3358  2.2839  2.5793
  640TIP3   OH223334   4.806   1.007   2.655 -0.3262 -0.0301  0.2028
  640TIP3    H123335   4.741   1.039   2.717 -1.3217 -2.0608  0.2740
  640TIP3    H223336   4.775   0.920   2.629 -0.1090  0.8365 -3.4203
  641TIP3   OH223337   5.101   0.206   4.109 -0.2815 -0.8873 -0.3274
  641TIP3    H123338   5.118   0.166   4.194  0.0677  1.0414  0.5550
  641TIP3    H223339   5.057   0.137   4.059  0.6887 -2.5041  0.9409
  642TIP3   OH223340   5.564   6.510   5.515  0.4043  0.4106 -0.1322
  642TIP3    H123341   5.523   6.580   5.565  1.1242  0.3295  0.5775
  642TIP3    H223342   5.652   6.503   5.551  0.8733  0.2237 -1.2845
  643TIP3   OH223343   0.491   3.464   3.990 -0.7685  0.1181  0.0419
  643TIP3    H123344   0.502   3.369   3.988 -0.1370  0.1094  1.9340
  643TIP3    H223345   0.539   3.492   4.068 -0.9625  1.9968 -0.4646
  644TIP3   OH223346   3.449   6.586   6.205  0.3783 -0.6253 -0.3265
  644TIP3    H123347   3.458   6.555   6.296 -0.9137  0.0625  0.0688
  644TIP3    H223348   3.533   6.627   6.185  0.9793 -1.5304  0.2531
  645TIP3   OH223349   5.824   6.311  16.852  0.4406 -0.0047  0.0218
  645TIP3    H123350   5.894   6.249  16.876  0.6306 -0.7372 -2.1925
  645TIP3    H223351   5.747   6.256  16.838 -0.1973  0.6304  0.9186
  646TIP3   OH223352   2.292   3.435   3.209 -0.1436  0.1697  0.1828
  646TIP3    H123353   2.322   3.360   3.259 -0.4378  0.3181  0.5894
  646TIP3    H223354   2.285   3.403   3.119 -0.6981 -0.4190  0.4260
  647TIP3   OH223355   5.157   2.105  11.195 -0.2726  0.0175 -0.6098
  647TIP3    H123356   5.112   2.152  11.125 -2.5277 -2.4769 -1.0164
  647TIP3    H223357   5.106   2.124  11.274  1.0459  1.1861 -0.0022
  648TIP3   OH223358   4.240   1.472  15.623 -0.5483  0.1058  0.4942
  648TIP3    H123359   4.188   1.541  15.664 -0.0301  0.6435  0.2483
  648TIP3    H223360   4.324   1.474  15.669  0.6236  1.7555 -1.5743
  649TIP3   OH223361   3.979   1.857  12.533  0.0241  0.2221  0.3297
  649TIP3    H123362   3.892   1.885  12.562 -0.1730  1.4965 -1.3212
  649TIP3    H223363   3.999   1.915  12.460  1.1923 -1.6753 -0.9544
  650TIP3   OH223364   5.273   5.976   1.813  0.2940  0.1343 -0.1643
  650TIP3    H123365   5.271   5.987   1.718  1.4828 -0.0668 -0.2207
  650TIP3    H223366   5.188   5.937   1.834 -1.4478  3.3152 -0.7005
  651TIP3   OH223367   4.874   2.770   2.982 -0.1542  0.0975 -0.0664
  651TIP3    H123368   4.895   2.854   3.022 -0.7157 -0.0712  0.6015
  651TIP3    H223369   4.893   2.705   3.049 -1.7644 -0.1400  0.2177
  652TIP3   OH223370   1.235   5.814   3.049 -0.4301  0.1550 -0.0958
  652TIP3    H123371   1.229   5.735   2.994 -0.5719 -0.2679  0.5111
  652TIP3    H223372   1.191   5.789   3.131 -1.0578  1.0802 -0.1320
  653TIP3   OH223373   3.529   0.959  13.621  0.0837 -0.0437 -1.1810
  653TIP3    H123374   3.612   0.941  13.577  1.7413 -0.2890  1.7339
  653TIP3    H223375   3.547   1.038  13.673 -0.6747 -1.4460  1.3599
  654TIP3   OH223376   1.136   4.018   4.993 -0.3870 -0.3086 -0.0327
  654TIP3    H123377   1.138   3.925   4.971 -1.4270 -0.0375 -1.3575
  654TIP3    H223378   1.049   4.047   4.967 -0.0169  1.0872  0.2169
  655TIP3   OH223379   5.659   2.742  15.710 -0.0131 -0.5708  0.0066
  655TIP3    H123380   5.570   2.710  15.698  0.1453 -0.7230 -0.7732
  655TIP3    H223381   5.691   2.695  15.787 -0.5838 -0.5458  0.2690
  656TIP3   OH223382   6.562   4.823  15.415 -0.0071  0.3872  0.2283
  656TIP3    H123383   6.655   4.835  15.394 -0.2261  2.6303  0.3780
  656TIP3    H223384   6.559   4.738  15.460  1.5169 -1.1002 -2.2278
  657TIP3   OH223385   5.889   3.550   5.573 -0.2884 -0.4048  0.2300
  657TIP3    H123386   5.824   3.480   5.578  0.4258 -1.2038 -0.9587
  657TIP3    H223387   5.874   3.590   5.487  0.3321 -0.1632  0.2286
  658TIP3   OH223388   1.313   3.902  14.153  0.3824  0.6428  0.1045
  658TIP3    H123389   1.364   3.821  14.142  0.3064  0.2020  2.5565
  658TIP3    H223390   1.375   3.966  14.186 -0.2709  0.5444  1.6018
  659TIP3   OH223391   2.262   5.022  16.148  0.3385  0.4930  0.4004
  659TIP3    H123392   2.210   4.954  16.189  1.8141  0.3316  2.1627
  659TIP3    H223393   2.221   5.037  16.063 -1.6817 -0.5845  1.1266
  660TIP3   OH223394   4.951   5.142  12.628  0.2794  0.1893  0.3871
  660TIP3    H123395   5.025   5.133  12.568  0.6102  0.6054  0.7227
  660TIP3    H223396   4.881   5.089  12.589  1.7551 -3.0189  1.7400
  661TIP3   OH223397   4.602   5.577  15.139 -0.4614  0.2857 -0.7816
  661TIP3    H123398   4.601   5.488  15.105 -1.5621 -0.7610  1.7279
  661TIP3    H223399   4.689   5.610  15.119  0.5941 -2.0216 -0.2477
  662TIP3   OH223400   1.929   6.714  14.184  0.2952 -0.6009 -1.0063
  662TIP3    H123401   1.839   6.730  14.214  0.7915  0.4389  0.0409
  662TIP3    H223402   1.923   6.635  14.131 -1.1123 -0.9920 -0.3227
  663TIP3   OH223403   1.137   2.395   5.260  0.2544 -0.6894 -0.4230
  663TIP3    H123404   1.194   2.426   5.190  0.6330 -0.1938  0.0931
  663TIP3    H223405   1.062   2.355   5.215 -0.2191  0.8974 -1.1328
  664TIP3   OH223406   1.154   1.549   0.547  0.2948 -0.3850  0.2790
  664TIP3    H123407   1.142   1.612   0.618 -0.2089 -0.0102 -0.1364
  664TIP3    H223408   1.117   1.591   0.470  0.4771 -0.9536 -0.1298
  665TIP3   OH223409   1.610   5.166  14.850  0.1385 -0.6745  0.4715
  665TIP3    H123410   1.540   5.134  14.907  0.5091  0.0047  1.3448
  665TIP3    H223411   1.586   5.258  14.833  0.1689 -0.7978 -0.2640
  666TIP3   OH223412   6.337   4.051   3.280 -0.1277 -0.3562  0.2992
  666TIP3    H123413   6.322   4.096   3.363  0.5839 -1.3522  0.9927
  666TIP3    H223414   6.354   3.960   3.305 -0.2834 -0.7464 -0.9694
  667TIP3   OH223415   3.688   5.175   4.228 -0.0597 -0.3145  0.4881
  667TIP3    H123416   3.685   5.093   4.278 -0.4717 -0.7422 -0.2167
  667TIP3    H223417   3.739   5.234   4.282  0.1125 -0.9915  1.0838
  668TIP3   OH223418   3.592   4.860  15.025 -0.4865  0.0518  0.8018
  668TIP3    H123419   3.641   4.803  15.085 -0.6334  1.2591  2.1033
  668TIP3    H223420   3.652   4.933  15.008 -0.0059 -0.7683 -1.4503
  669TIP3   OH223421   1.721   4.864   0.138 -0.1369 -0.4572  0.7624
  669TIP3    H123422   1.636   4.865   0.094  0.5858 -0.8386 -0.7100
  669TIP3    H223423   1.719   4.940   0.196 -1.7597 -0.8906  1.3263
  670TIP3   OH223424   0.461   3.707   5.542 -0.4751  0.3860  0.1719
  670TIP3    H123425   0.552   3.677   5.536 -0.9382 -1.2066  0.5366
  670TIP3    H223426   0.416   3.659   5.473 -0.7526  2.4913 -1.1945
  671TIP3   OH223427   6.513   1.327  11.664  0.1236  0.5712 -0.4097
  671TIP3    H123428   6.459   1.399  11.697 -1.0102 -0.2392 -0.4703
  671TIP3    H223429   6.454   1.253  11.657  1.1858 -0.2763 -0.7428
  672TIP3   OH223430   5.405   0.503   3.647 -0.0009 -0.4333 -0.3809
  672TIP3    H123431   5.342   0.502   3.719 -0.0031  0.3844 -0.3632
  672TIP3    H223432   5.363   0.556   3.579  0.5226 -0.1638 -0.4989
  673TIP3   OH223433   5.664   0.004  10.515  0.0711  0.4793  0.8717
  673TIP3    H123434   5.752  -0.032  10.502  0.3036  1.3285 -0.0144
  673TIP3    H223435   5.679   0.098  10.530 -0.7324  0.7817 -0.1281
  674TIP3   OH223436   6.556   6.118  15.741  0.1441 -0.0894  0.1468
  674TIP3    H123437   6.522   6.194  15.787 -0.3741  0.2280 -0.7309
  674TIP3    H223438   6.478   6.073  15.708  0.5212  0.7247 -2.0185
  675TIP3   OH223439   1.036   5.408   3.067 -0.3380 -0.0477  0.2786
  675TIP3    H123440   1.092   5.403   3.145  0.4810 -3.6743 -0.3862
  675TIP3    H223441   1.090   5.452   3.002  0.2070  0.0531  0.7850
  676TIP3   OH223442   0.907   5.860   3.998 -0.2411  0.3408  0.2175
  676TIP3    H123443   0.877   5.806   4.071 -2.6693  1.9280  0.5024
  676TIP3    H223444   0.872   5.817   3.920  1.5102 -0.7973 -0.0086
  677TIP3   OH223445   3.083   3.373   5.435 -0.3344 -0.0170  1.0386
  677TIP3    H123446   3.084   3.305   5.368 -2.8857  1.9774 -1.2014
  677TIP3    H223447   3.038   3.332   5.509 -0.6248 -1.1758  0.2521
  678TIP3   OH223448   2.638   3.757  13.243  0.3535  0.5215 -0.8028
  678TIP3    H123449   2.638   3.747  13.148 -0.0066 -2.3854 -0.6066
  678TIP3    H223450   2.587   3.682  13.274 -1.1234  2.4163  1.6431
  679TIP3   OH223451   3.204   4.100   4.043 -0.2136 -0.3314  0.3874
  679TIP3    H123452   3.199   4.185   3.999  1.5836 -0.4236 -0.0644
  679TIP3    H223453   3.150   4.042   3.988  0.3567  0.0194 -0.5630
  680TIP3   OH223454   1.085   0.569  13.297  0.2150  0.4217 -0.2219
  680TIP3    H123455   1.064   0.477  13.312  0.1293  0.6269  1.0829
  680TIP3    H223456   1.019   0.599  13.234 -0.8991  0.0359  0.7195
  681TIP3   OH223457   4.644   6.093  12.874 -0.0296 -0.1308  0.4615
  681TIP3    H123458   4.608   6.175  12.839 -2.3020 -0.0829  2.6339
  681TIP3    H223459   4.603   6.083  12.959  2.0988 -2.3193  1.3553
  682TIP3   OH223460   3.007   0.932   4.937  0.0645  0.5425 -0.0192
  682TIP3    H123461   3.070   0.876   4.983 -2.5667 -3.2494 -0.6003
  682TIP3    H223462   3.035   0.929   4.846  0.2732  0.7413  0.0362
  683TIP3   OH223463   0.618   3.148   2.927 -0.0505  0.0932  0.1379
  683TIP3    H123464   0.672   3.186   2.857 -0.1040 -1.1847 -0.6390
  683TIP3    H223465   0.530   3.147   2.890 -0.5720  1.7322  1.2224
  684TIP3   OH223466   0.717   4.248  15.037 -0.2133 -0.0284  0.1612
  684TIP3    H123467   0.756   4.275  14.953  0.9280  1.4250  1.0950
  684TIP3    H223468   0.791   4.245  15.097 -1.1445 -0.1709  1.3212
  685TIP3   OH223469   6.194   2.510   5.243 -0.7400 -0.1687  0.2352
  685TIP3    H123470   6.264   2.471   5.294 -0.3428  1.4397  1.0059
  685TIP3    H223471   6.114   2.480   5.285 -0.4413 -0.0077  0.9417
  686TIP3   OH223472   0.221   0.941   0.053  0.0471 -0.4997  0.2708
  686TIP3    H123473   0.232   1.018  -0.003 -1.8421 -1.1370 -1.0979
  686TIP3    H223474   0.172   0.973   0.129  1.1456  0.0394  0.7703
  687TIP3   OH223475   4.211   2.035  16.453 -0.4041 -0.0602 -0.2616
  687TIP3    H123476   4.288   1.985  16.426 -0.9129 -0.7099 -0.5510
  687TIP3    H223477   4.205   2.106  16.389 -0.3895 -0.3640 -0.6041
  688TIP3   OH223478   3.976   6.335   2.342  0.2487  0.5277  0.8430
  688TIP3    H123479   4.008   6.247   2.320  1.1395  0.6430  1.6242
  688TIP3    H223480   3.985   6.385   2.262 -0.7300 -0.2075  0.2392
  689TIP3   OH223481   0.138   2.178  11.070  0.1751 -0.3411 -0.1270
  689TIP3    H123482   0.152   2.132  11.153  1.6647  0.9761  0.4048
  689TIP3    H223483   0.112   2.109  11.009  0.0392 -1.5022  1.1917
  690TIP3   OH223484   5.213   3.782   4.847  0.6470  0.1668  0.3471
  690TIP3    H123485   5.257   3.844   4.789  2.0588 -2.0316 -1.1187
  690TIP3    H223486   5.284   3.743   4.899  0.1044 -1.4239 -0.0300
  691TIP3   OH223487   4.360   0.950   5.764  0.7822  0.1442  0.0013
  691TIP3    H123488   4.408   0.867   5.768  0.4206 -0.2031 -1.9782
  691TIP3    H223489   4.276   0.931   5.804 -0.3370 -1.2899 -2.7501
  692TIP3   OH223490   1.145   4.422   3.159  0.1673  0.0132 -0.0996
  692TIP3    H123491   1.223   4.469   3.129 -0.1895 -0.0035 -1.0881
  692TIP3    H223492   1.079   4.490   3.171  0.3274  0.0272  0.7395
  693TIP3   OH223493   1.292   0.459  10.953 -0.4898  0.0783 -0.0866
  693TIP3    H123494   1.325   0.508  10.877  2.0139 -0.1214  0.7721
  693TIP3    H223495   1.263   0.376  10.916  1.7158 -0.4536 -0.7947
  694TIP3   OH223496   4.731   5.496  11.254 -0.3101 -0.7856  0.2600
  694TIP3    H123497   4.763   5.549  11.181 -1.9861  0.3745  0.2947
  694TIP3    H223498   4.672   5.432  11.214  0.1135 -1.2859  0.4281
  695TIP3   OH223499   6.641   0.657  14.418  0.1745  0.1410  0.3527
  695TIP3    H123500   6.562   0.604  14.433 -0.2750  0.4278 -0.8924
  695TIP3    H223501   6.694   0.605  14.358  1.3218 -0.3981  1.7802
  696TIP3   OH223502   1.886   5.180  10.661  0.3022 -0.0475  0.4114
  696TIP3    H123503   1.790   5.188  10.668  0.3840  0.8137  0.7004
  696TIP3    H223504   1.910   5.243  10.593  0.6273 -0.5761  0.0277
  697TIP3   OH223505   5.666   2.326  15.472 -0.2131 -0.1458  0.1905
  697TIP3    H123506   5.686   2.236  15.447  1.7666  0.4068 -0.4583
  697TIP3    H223507   5.632   2.320  15.561 -1.3755 -1.6234 -0.3176
  698TIP3   OH223508   6.357   6.095   1.827 -0.6580  0.4410  0.4657
  698TIP3    H123509   6.293   6.165   1.820  0.9602  2.1164  1.4251
  698TIP3    H223510   6.315   6.020   1.786 -3.7506  1.0469  2.1858
  699TIP3   OH223511   3.586   6.445   1.670  0.0040  0.2127  0.2642
  699TIP3    H123512   3.666   6.492   1.646  0.3672 -0.9637 -0.9193
  699TIP3    H223513   3.613   6.389   1.743  0.1974  0.0152  0.0424
  700TIP3   OH223514   2.602   1.715  12.835  0.3628  0.0309 -0.2540
  700TIP3    H123515   2.578   1.804  12.860 -0.6668 -0.4506  0.5338
  700TIP3    H223516   2.655   1.726  12.756 -0.6760  1.2724 -0.8119
  701TIP3   OH223517   2.270   2.009  16.694 -0.0377  0.1687  0.0098
  701TIP3    H123518   2.348   2.062  16.673 -0.2229 -0.1484 -1.6628
  701TIP3    H223519   2.272   1.999  16.789  1.6711  0.6222  0.0536
  702TIP3   OH223520   5.947   2.888  14.753  0.0720 -0.3601 -0.6307
  702TIP3    H123521   6.027   2.931  14.721  0.5677 -1.1314 -0.4708
  702TIP3    H223522   5.952   2.896  14.848  0.0418 -0.5433 -0.6131
  703TIP3   OH223523   6.314   0.278   0.790 -0.5251 -0.1177  0.2695
  703TIP3    H123524   6.223   0.306   0.794 -0.4351  0.5392 -1.6257
  703TIP3    H223525   6.361   0.355   0.759  0.2441 -1.2787 -1.5881
  704TIP3   OH223526   3.782   4.740  10.406 -0.1327  0.2961  0.0906
  704TIP3    H123527   3.856   4.780  10.360  1.6639 -3.4214 -0.6367
  704TIP3    H223528   3.771   4.793  10.485  1.6410  2.4398 -0.9988
  705TIP3   OH223529   2.022   3.056   0.874  0.8609 -0.4695  0.4140
  705TIP3    H123530   2.009   2.963   0.892 -0.5943 -0.0932  1.4323
  705TIP3    H223531   1.996   3.066   0.782  1.1959 -1.0792  0.2447
  706TIP3   OH223532   0.175   4.669  12.679  0.8028 -0.1164 -0.2610
  706TIP3    H123533   0.094   4.714  12.657  0.4745  0.0377  1.1602
  706TIP3    H223534   0.151   4.577  12.683  0.4759 -0.0019  0.9455
  707TIP3   OH223535   0.473   1.449   4.368 -0.0525 -0.0537  0.3495
  707TIP3    H123536   0.544   1.496   4.413 -0.6964  0.1121  1.2308
  707TIP3    H223537   0.484   1.472   4.276  1.1261 -0.1547  0.4484
  708TIP3   OH223538   0.692   3.464   4.176 -0.1739 -0.3333  0.5194
  708TIP3    H123539   0.694   3.544   4.229 -2.2687 -0.4994  0.9190
  708TIP3    H223540   0.768   3.472   4.118  0.7344  1.0402  1.8309
  709TIP3   OH223541   1.077   1.849  15.925 -0.4896 -0.2570  0.0122
  709TIP3    H123542   1.135   1.788  15.969 -0.4780 -0.7048 -0.6134
  709TIP3    H223543   0.989   1.817  15.945 -0.5602  0.5895  1.2057
  710TIP3   OH223544   4.923   6.597   5.658  0.3346 -0.2514  0.5175
  710TIP3    H123545   4.881   6.517   5.691  2.3806 -0.6146  2.5685
  710TIP3    H223546   4.946   6.577   5.567  0.6822 -1.9980  0.9445
  711TIP3   OH223547   2.971   0.692   0.222  0.4194 -0.0442  0.8055
  711TIP3    H123548   3.049   0.692   0.167 -0.3898  0.0910 -0.3879
  711TIP3    H223549   2.904   0.649   0.168 -0.7102  1.1208  1.2262
  712TIP3   OH223550   3.126   3.990   1.164 -0.0426  0.3854 -0.5402
  712TIP3    H123551   3.209   3.984   1.212 -0.3003  1.2377  0.0295
  712TIP3    H223552   3.140   3.935   1.087  0.6551 -0.3767  0.1054
  713TIP3   OH223553   1.539   0.643   3.033 -0.3589 -0.5299  0.2583
  713TIP3    H123554   1.512   0.691   2.954  0.1318 -0.4113  0.1587
  713TIP3    H223555   1.592   0.570   2.999  0.8835  0.2086  0.5231
  714TIP3   OH223556   3.628   2.520   4.350 -0.4122  0.3252  0.7155
  714TIP3    H123557   3.573   2.445   4.331 -0.8740  0.2236  2.3022
  714TIP3    H223558   3.608   2.583   4.281 -1.1985 -0.3893  0.2799
  715TIP3   OH223559   4.846   3.699  14.564  0.1790 -0.2074 -0.4255
  715TIP3    H123560   4.763   3.673  14.523  0.1785 -3.9048  1.4545
  715TIP3    H223561   4.905   3.714  14.490 -1.4653 -0.1620 -1.7920
  716TIP3   OH223562   6.419   3.920   4.521  0.0749 -0.7811  0.4517
  716TIP3    H123563   6.398   3.864   4.446 -0.2984 -2.1566  1.5622
  716TIP3    H223564   6.473   3.865   4.578 -0.1059  0.0652  1.4641
  717TIP3   OH223565   0.723   5.049   1.789  0.5395 -0.3320  0.4563
  717TIP3    H123566   0.696   5.101   1.713  1.7894  0.6896  0.6645
  717TIP3    H223567   0.764   4.971   1.752  1.0119  0.0937  0.0768
  718TIP3   OH223568   1.737   3.609   4.632  0.4338  0.2346 -0.6560
  718TIP3    H123569   1.750   3.691   4.681  0.4831  0.7532 -1.5253
  718TIP3    H223570   1.788   3.545   4.681 -0.7668  0.3827  0.8778
  719TIP3   OH223571   0.916   5.862   1.174 -0.6389 -0.9429 -0.0671
  719TIP3    H123572   0.869   5.855   1.091  2.2088  0.9977 -2.0619
  719TIP3    H223573   0.969   5.782   1.178  0.8217 -0.0999 -1.3346
  720TIP3   OH223574   2.517   3.443  11.576  0.1757  0.1643 -0.3483
  720TIP3    H123575   2.536   3.495  11.498  0.0487 -2.0635 -1.9662
  720TIP3    H223576   2.428   3.469  11.601 -0.0262  0.4554 -1.3308
  721TIP3   OH223577   1.402   4.909  12.397 -0.3255  0.1233 -0.2713
  721TIP3    H123578   1.471   4.882  12.458  0.2410  0.1077 -0.9047
  721TIP3    H223579   1.435   4.883  12.311 -0.5590  1.2374 -0.7125
  722TIP3   OH223580   3.143   6.704  12.004  0.1527 -0.3105 -0.0977
  722TIP3    H123581   3.219   6.707  12.062  0.1724 -0.9261 -0.0829
  722TIP3    H223582   3.178   6.728  11.918  0.6696 -1.9221 -0.3798
  723TIP3   OH223583   1.224   0.520   4.728 -0.0632  0.1528 -0.0229
  723TIP3    H123584   1.176   0.551   4.651 -3.9711 -0.2145  1.9910
  723TIP3    H223585   1.225   0.594   4.788  2.0097  0.1201  0.0644
  724TIP3   OH223586   3.503   3.887   4.332 -0.7231  0.2588  0.4375
  724TIP3    H123587   3.497   3.823   4.404 -3.1564 -0.3285 -0.2083
  724TIP3    H223588   3.579   3.859   4.282 -1.9841 -2.5662 -0.1264
  725TIP3   OH223589   2.364   0.225  11.238  0.3816  0.1926  0.0894
  725TIP3    H123590   2.450   0.221  11.196  0.7204  0.8007  0.6914
  725TIP3    H223591   2.302   0.199  11.170  1.1751 -1.9696  0.0975
  726TIP3   OH223592   1.287   4.318  16.461  0.7560 -0.0011  0.0210
  726TIP3    H123593   1.216   4.365  16.418 -1.1816 -1.0358  1.8918
  726TIP3    H223594   1.315   4.375  16.532  2.7342  0.9355 -1.4083
  727TIP3   OH223595   6.473   6.597   6.265 -0.1770 -0.3552  0.5331
  727TIP3    H123596   6.416   6.660   6.311 -1.3317  0.1807 -1.5294
  727TIP3    H223597   6.556   6.644   6.255 -0.8793  0.7273 -0.5757
  728TIP3   OH223598   4.172   1.705  13.806 -0.5706  0.2559  0.2642
  728TIP3    H123599   4.108   1.671  13.869 -0.3116 -1.8490 -0.5296
  728TIP3    H223600   4.162   1.800  13.811 -3.7452  0.0299  0.2277
  729TIP3   OH223601   4.551   6.670   2.195  0.2065  0.5491 -0.0717
  729TIP3    H123602   4.465   6.629   2.205  0.3124 -0.8096 -3.3715
  729TIP3    H223603   4.612   6.605   2.229  0.0323  1.5406  2.3333
  730TIP3   OH223604   4.325   1.515  13.949  0.1575 -0.3328 -0.3339
  730TIP3    H123605   4.261   1.552  13.888 -1.4152  1.4289  2.1544
  730TIP3    H223606   4.279   1.442  13.991  0.5671 -0.4378 -0.0563
  731TIP3   OH223607   1.154   5.244  10.961 -0.9102  0.2446 -0.2772
  731TIP3    H123608   1.082   5.206  10.910 -0.1431 -0.8673 -0.5620
  731TIP3    H223609   1.231   5.235  10.904 -0.3448  0.4497  0.4448
  732TIP3   OH223610   2.147   5.676   5.127  0.1037  0.6953  0.4245
  732TIP3    H123611   2.071   5.618   5.116  1.2914 -0.8163 -0.0783
  732TIP3    H223612   2.197   5.636   5.197 -0.1425  2.3767  1.6264
  733TIP3   OH223613   5.296   2.444   0.283 -0.0068  0.1705 -1.0331
  733TIP3    H123614   5.236   2.383   0.327 -0.4267  0.2583 -1.4700
  733TIP3    H223615   5.329   2.395   0.208 -1.5984  0.9682 -2.3416
  734TIP3   OH223616   6.800   6.353  17.011 -0.1964  0.5207 -0.2639
  734TIP3    H123617   6.838   6.435  17.043 -0.2117 -0.0804  1.3716
  734TIP3    H223618   6.706   6.365  17.020 -0.2872  0.8656 -1.4578
  735TIP3   OH223619   3.996   3.936  15.408 -0.1921 -0.5763 -0.2733
  735TIP3    H123620   3.995   3.993  15.331  0.0481  3.2253  2.2799
  735TIP3    H223621   4.088   3.932  15.435 -0.5312  0.1769  1.1057
  736TIP3   OH223622   1.847   1.512   1.043 -0.1154  0.4104 -0.2792
  736TIP3    H123623   1.762   1.469   1.057  0.8025 -1.3719  0.0795
  736TIP3    H223624   1.847   1.534   0.950 -1.2468  1.0788 -0.1408
  737TIP3   OH223625   6.222   3.025  15.189 -0.2574 -0.2446 -0.1562
  737TIP3    H123626   6.151   3.049  15.250  0.5284  0.9029  0.3549
  737TIP3    H223627   6.205   2.933  15.167 -1.4076 -0.2461  0.6308
  738TIP3   OH223628   4.751   6.524  13.342  0.5239 -0.2746 -0.2605
  738TIP3    H123629   4.832   6.496  13.301  0.8975  1.3234 -0.6750
  738TIP3    H223630   4.686   6.521  13.272  0.5424 -0.1579 -0.2812
  739TIP3   OH223631   3.792   2.753  12.519 -0.2638 -0.4841  0.2090
  739TIP3    H123632   3.822   2.773  12.430  0.7454  0.4312  0.7249
  739TIP3    H223633   3.710   2.802  12.528 -0.0080 -0.0171  0.0156
  740TIP3   OH223634   0.867   4.176   2.618 -0.3271  0.3006 -0.4455
  740TIP3    H123635   0.812   4.251   2.595 -0.1921  0.4574 -0.2592
  740TIP3    H223636   0.829   4.103   2.569 -1.4253  0.1594  0.5645
  741TIP3   OH223637   4.310   5.497  15.977  0.2388 -0.6633  0.2730
  741TIP3    H123638   4.268   5.428  16.029  0.3641  0.2296  1.6189
  741TIP3    H223639   4.403   5.492  16.002  0.1659  0.3042  0.7924
  742TIP3   OH223640   6.450   1.309   0.086  0.4925  0.6698  0.3181
  742TIP3    H123641   6.432   1.399   0.112  2.3554  2.2734 -3.1610
  742TIP3    H223642   6.415   1.303  -0.003  1.5210 -1.6613 -0.0011
  743TIP3   OH223643   6.262   6.545  12.510 -0.4457 -0.1450  0.5706
  743TIP3    H123644   6.211   6.488  12.567 -0.8704  0.2487  0.5909
  743TIP3    H223645   6.349   6.505  12.507 -0.2425  0.1578  1.9790
  744TIP3   OH223646   3.891   2.599   5.458  0.1751 -0.1247  0.1502
  744TIP3    H123647   3.927   2.517   5.424  1.0519  0.6150 -0.7723
  744TIP3    H223648   3.806   2.574   5.495  1.1608 -1.7560  1.5046
  745TIP3   OH223649   5.265   4.223   6.577  0.0319  0.4346 -0.4801
  745TIP3    H123650   5.218   4.294   6.622  0.2812 -0.0213  0.5469
  745TIP3    H223651   5.196   4.169   6.539 -0.2019  0.7435 -0.4966
  746TIP3   OH223652   2.488   6.526   0.784 -0.0239 -1.0996  0.8394
  746TIP3    H123653   2.505   6.437   0.814  1.2267 -0.4832  2.0991
  746TIP3    H223654   2.511   6.581   0.859  1.8998  0.4628 -0.7742
  747TIP3   OH223655   3.832   1.279   4.197 -0.1649 -0.3485 -0.2841
  747TIP3    H123656   3.746   1.321   4.190 -0.6639 -1.3745 -0.5970
  747TIP3    H223657   3.872   1.292   4.111  0.4079  0.9666  0.1658
  748TIP3   OH223658   0.017   3.033  12.913 -0.0898  0.2669 -0.6621
  748TIP3    H123659   0.027   3.128  12.908 -1.8028  0.5651  0.5125
  748TIP3    H223660   0.081   3.005  12.978  0.7855  0.5242 -1.3933
  749TIP3   OH223661   3.106   5.600   0.542 -0.0602  0.1733 -0.3637
  749TIP3    H123662   3.054   5.579   0.465 -1.6318 -2.3802  1.2570
  749TIP3    H223663   3.056   5.667   0.588  0.3755  0.9565 -0.9988
  750TIP3   OH223664   4.147   2.870   1.934 -0.2512 -0.9838  0.5488
  750TIP3    H123665   4.197   2.808   1.987  1.7374 -0.0501 -0.1490
  750TIP3    H223666   4.208   2.941   1.917 -2.0394  0.5291  0.1680
  751TIP3   OH223667   1.682   2.496   0.878  0.1950  0.1540 -0.0494
  751TIP3    H123668   1.679   2.409   0.917 -2.1882  0.8712  1.5709
  751TIP3    H223669   1.743   2.545   0.933  1.9287 -0.5524 -1.2605
  752TIP3   OH223670   4.198   5.973   1.180 -0.1854  0.3174  0.5682
  752TIP3    H123671   4.156   6.037   1.122  0.8069 -0.3916 -0.9789
  752TIP3    H223672   4.125   5.930   1.225 -0.9446  1.2790  0.2918
  753TIP3   OH223673   6.439   2.472   4.691 -0.1578  0.1038  0.0494
  753TIP3    H123674   6.485   2.431   4.618 -2.0819  0.6618 -1.5856
  753TIP3    H223675   6.502   2.472   4.763  1.9320 -0.2397 -1.6788
  754TIP3   OH223676   2.410   5.207  11.058 -0.3039 -0.7343 -0.0098
  754TIP3    H123677   2.322   5.244  11.042  0.8232  1.5436 -1.5820
  754TIP3    H223678   2.442   5.255  11.134  0.0538 -0.6236 -0.2302
  755TIP3   OH223679   5.086   2.237   5.117  0.6742 -0.1961 -0.1348
  755TIP3    H123680   5.045   2.150   5.127 -0.8695  0.3599 -1.1372
  755TIP3    H223681   5.082   2.276   5.204 -1.4495 -0.0007 -0.2551
  756TIP3   OH223682   6.247   0.393   0.516  0.2343 -0.2729  0.6271
  756TIP3    H123683   6.201   0.474   0.538  0.0028 -0.7090  1.8247
  756TIP3    H223684   6.332   0.422   0.483 -0.8648  0.5476 -1.6750
  757TIP3   OH223685   2.862   2.400  11.207 -0.3921 -0.1698 -0.1115
  757TIP3    H123686   2.833   2.391  11.117 -1.7340  1.2127  0.1400
  757TIP3    H223687   2.798   2.351  11.258  2.0323 -3.6017 -0.0329
  758TIP3   OH223688   1.235   5.490   4.046  0.2819  0.0485  0.4199
  758TIP3    H123689   1.255   5.555   4.114  2.5057  1.4048 -1.4092
  758TIP3    H223690   1.139   5.487   4.045  0.1131  2.4083  1.4271
  759TIP3   OH223691   3.609   4.807  14.117  0.4856  0.4018 -0.1396
  759TIP3    H123692   3.668   4.858  14.061  0.0126  1.4641  0.3082
  759TIP3    H223693   3.615   4.718  14.082 -1.1950  1.3083 -3.1312
  760TIP3   OH223694   0.908   0.614   6.041  0.2883  0.2225 -0.8661
  760TIP3    H123695   0.879   0.610   5.951 -0.1038  1.4700 -0.8165
  760TIP3    H223696   0.993   0.569   6.041 -0.2355 -0.7992 -1.6051
  761TIP3   OH223697   6.700   4.201  11.804  0.7190 -0.0166 -0.3524
  761TIP3    H123698   6.716   4.198  11.898 -2.0126 -0.4484  0.2064
  761TIP3    H223699   6.741   4.282  11.774  1.3908  0.2647  1.2725
  762TIP3   OH223700   5.200   0.350  13.772 -0.3313  0.2759 -0.4230
  762TIP3    H123701   5.159   0.400  13.843  1.2631 -1.2548  1.7246
  762TIP3    H223702   5.262   0.292  13.817  0.2358 -1.3061 -3.0461
  763TIP3   OH223703   5.570   1.946  12.158 -0.3131 -0.5355 -0.6022
  763TIP3    H123704   5.654   1.971  12.118 -0.8972 -0.1005 -1.6059
  763TIP3    H223705   5.527   2.029  12.177 -0.5841 -0.7598 -0.2261
  764TIP3   OH223706   1.742   1.992   2.750  0.2088 -0.3630 -0.1954
  764TIP3    H123707   1.837   2.000   2.746  0.1607 -0.2876 -1.9711
  764TIP3    H223708   1.716   1.973   2.660 -1.3498 -1.7637  0.4980
  765TIP3   OH223709   0.743   3.874  16.074  0.1308  0.2799 -0.2591
  765TIP3    H123710   0.764   3.783  16.051  1.1940  0.7954 -1.4334
  765TIP3    H223711   0.700   3.867  16.160  0.8756 -1.2690  0.0364
  766TIP3   OH223712   2.914   4.963   5.392 -0.0993 -0.1550  0.0799
  766TIP3    H123713   2.957   4.927   5.469  0.1715 -0.9986 -0.4503
  766TIP3    H223714   2.910   4.890   5.330  0.5099  0.7267 -1.0467
  767TIP3   OH223715   6.604   4.573  15.484 -0.2791  0.3410  0.2328
  767TIP3    H123716   6.672   4.513  15.453  0.5039  1.4655 -0.2967
  767TIP3    H223717   6.615   4.574  15.579 -0.4859 -0.5561  0.2731
  768TIP3   OH223718   2.661   0.321  14.001  0.6633 -0.2175 -0.3855
  768TIP3    H123719   2.613   0.285  14.075  1.9388  2.1562  1.7232
  768TIP3    H223720   2.594   0.349  13.939 -0.4751 -0.7291  0.5922
  769TIP3   OH223721   4.820   3.459   0.101 -0.2791  0.1039  0.1085
  769TIP3    H123722   4.726   3.474   0.099 -0.2630  0.3563  0.8955
  769TIP3    H223723   4.859   3.546   0.099 -0.1533  0.2201  3.0076
  770TIP3   OH223724   4.229   6.607   4.365  0.3315  0.3875  0.6831
  770TIP3    H123725   4.320   6.587   4.343  0.8033  1.7160  1.3363
  770TIP3    H223726   4.191   6.522   4.389  1.5315 -0.1085  0.8758
  771TIP3   OH223727   2.208   5.814  15.220 -0.0930 -0.1219 -0.4447
  771TIP3    H123728   2.168   5.901  15.216  1.2620  0.5398 -0.0485
  771TIP3    H223729   2.236   5.797  15.130  1.2741  0.6687 -0.1959
  772TIP3   OH223730   5.660   1.203  14.248  0.0820  0.0466  0.1228
  772TIP3    H123731   5.743   1.221  14.290 -0.7284  3.9106  0.4531
  772TIP3    H223732   5.595   1.213  14.317 -0.8128 -0.3860 -0.6307
  773TIP3   OH223733   5.770   2.109  16.857 -0.4861  0.0209 -0.3912
  773TIP3    H123734   5.776   2.014  16.844  0.3353  0.0528 -0.3282
  773TIP3    H223735   5.843   2.145  16.806 -0.8633  0.6297 -0.5111
  774TIP3   OH223736   3.684   1.114  16.668  0.0916 -0.0354  0.2767
  774TIP3    H123737   3.613   1.050  16.671 -1.3169  1.4130 -0.8495
  774TIP3    H223738   3.710   1.125  16.760 -1.7176  0.0231  0.8140
  775TIP3   OH223739   0.318   3.268   2.386  0.4708 -0.3013  0.2059
  775TIP3    H123740   0.411   3.283   2.370  0.4080  0.9520  0.8831
  775TIP3    H223741   0.276   3.350   2.360 -0.3467 -0.5434  0.7389
  776TIP3   OH223742   5.242   2.538   0.734  0.1885 -0.3337 -0.2417
  776TIP3    H123743   5.190   2.519   0.812  0.6396  1.2700  0.4985
  776TIP3    H223744   5.178   2.552   0.664 -0.2990 -0.0725  0.2559
  777TIP3   OH223745   2.243   5.611   0.392  0.2567  0.0362 -0.2968
  777TIP3    H123746   2.164   5.638   0.345 -0.1318  0.3699  0.5198
  777TIP3    H223747   2.223   5.522   0.423 -0.4906  0.7329  1.3366
  778TIP3   OH223748   3.093   4.568  15.470 -0.1508 -0.0595  0.4286
  778TIP3    H123749   3.007   4.566  15.428 -0.1703  0.6324  0.4199
  778TIP3    H223750   3.153   4.595  15.400 -0.0875  0.4730  0.6812
  779TIP3   OH223751   5.811   5.001   4.073  0.0662 -0.0192 -0.1737
  779TIP3    H123752   5.776   4.939   4.137 -0.9315 -0.5661 -1.2116
  779TIP3    H223753   5.906   4.985   4.073 -0.0775 -0.9001  0.2334
  780TIP3   OH223754   1.100   6.719   0.974  0.1250 -0.3451 -0.5726
  780TIP3    H123755   1.012   6.753   0.991 -0.0752 -1.0899 -0.0911
  780TIP3    H223756   1.087   6.625   0.960  1.1024 -0.9031  1.8317
  781TIP3   OH223757   5.779   5.063   3.226  0.3045 -0.4861 -0.2355
  781TIP3    H123758   5.732   5.050   3.144 -3.0265 -0.5006  1.4809
  781TIP3    H223759   5.768   5.156   3.246  0.5659 -0.6000  0.4642
  782TIP3   OH223760   4.659   1.756   3.704  0.0245  0.3354  0.2552
  782TIP3    H123761   4.621   1.721   3.623  0.2909  0.6747 -0.0174
  782TIP3    H223762   4.615   1.707   3.773 -0.2886  0.1189 -0.0894
  783TIP3   OH223763   4.545   0.219   4.774  0.1970 -0.0855 -0.3329
  783TIP3    H123764   4.461   0.172   4.776  0.2191 -0.1160 -0.1614
  783TIP3    H223765   4.601   0.166   4.717 -0.2104  0.4441 -1.2485
  784TIP3   OH223766   0.974   0.165   4.987  0.0320  0.4182  0.0725
  784TIP3    H123767   0.887   0.200   4.965  0.1641  0.6903 -0.0250
  784TIP3    H223768   0.973   0.076   4.953 -1.2389 -0.6277  2.5418
  785TIP3   OH223769   6.598   2.660  13.866  0.0689  0.2151  0.4665
  785TIP3    H123770   6.687   2.678  13.836 -0.2028  2.4455  0.8069
  785TIP3    H223771   6.550   2.640  13.786  0.3823  1.4155 -0.0525
  786TIP3   OH223772   6.477   3.976  16.990 -0.5050 -0.3597 -0.9209
  786TIP3    H123773   6.530   3.929  16.926 -0.4903 -1.6306 -0.0330
  786TIP3    H223774   6.526   4.056  17.008  1.6674 -1.9105  0.5679
  787TIP3   OH223775   3.603   1.910   0.346  0.6720  0.1578  0.2830
  787TIP3    H123776   3.651   1.840   0.390  0.9910  0.5983  0.6332
  787TIP3    H223777   3.517   1.909   0.388  0.2996 -0.7204 -0.4380
  788TIP3   OH223778   1.794   0.544  13.936 -0.2157  0.2244  0.0785
  788TIP3    H123779   1.802   0.633  13.902 -2.7181  0.5664  0.1435
  788TIP3    H223780   1.802   0.488  13.858 -0.0518  0.6054 -0.1828
  789TIP3   OH223781   1.745   0.631   0.084  0.4788  0.1380  0.7593
  789TIP3    H123782   1.669   0.641   0.141  1.0323  2.2373  1.2215
  789TIP3    H223783   1.817   0.607   0.142  0.6848  0.6409  0.7248
  790TIP3   OH223784   5.830   2.873   4.846 -0.7427 -0.2383  0.1591
  790TIP3    H123785   5.796   2.808   4.784  0.1941  2.0541 -3.0114
  790TIP3    H223786   5.865   2.821   4.919 -1.2456 -3.1664 -1.5364
  791TIP3   OH223787   3.484   0.602   2.089 -0.4562  0.5071 -0.6588
  791TIP3    H123788   3.425   0.589   2.015  0.0953  0.4617 -1.0894
  791TIP3    H223789   3.469   0.526   2.145  0.6988 -0.5946 -1.7900
  792TIP3   OH223790   2.097   0.363   4.938  0.6593 -0.0071  0.6356
  792TIP3    H123791   2.141   0.418   4.874 -0.9204 -1.2997 -1.7339
  792TIP3    H223792   2.098   0.276   4.899 -1.2929 -0.6482  1.8791
  793TIP3   OH223793   2.706   0.599   2.216  0.5336 -0.0784 -0.3280
  793TIP3    H123794   2.742   0.610   2.129 -0.4690 -2.6533 -1.1742
  793TIP3    H223795   2.615   0.572   2.201 -0.5788  2.1930  1.6235
  794TIP3   OH223796   6.013   0.341   2.515 -0.6460  0.3357  0.0903
  794TIP3    H123797   6.076   0.380   2.576 -0.6627 -0.4393  0.6139
  794TIP3    H223798   6.064   0.323   2.436  0.0680 -1.1970  0.8496
  795TIP3   OH223799   1.320   3.652  15.977  0.0077 -0.2637  0.1304
  795TIP3    H123800   1.294   3.564  16.003 -1.4361  0.6009  1.9576
  795TIP3    H223801   1.411   3.660  16.006  0.3949 -1.3538 -0.7173
  796TIP3   OH223802   2.827   5.793   3.244 -0.4591 -0.5104  0.0449
  796TIP3    H123803   2.916   5.801   3.279 -1.3052 -0.7656  2.4517
  796TIP3    H223804   2.780   5.867   3.282 -0.8627  0.8436 -2.8556
  797TIP3   OH223805   3.398   2.872   5.911  0.1685 -0.3909  0.0430
  797TIP3    H123806   3.457   2.904   5.979 -1.3630  0.2233  1.1252
  797TIP3    H223807   3.348   2.802   5.953 -2.2127  1.3246  0.2649
  798TIP3   OH223808   2.421   4.980  14.174 -0.5554 -0.6023 -0.5661
  798TIP3    H123809   2.453   4.996  14.263  2.7384 -1.0212 -1.5294
  798TIP3    H223810   2.361   5.053  14.157 -1.4663 -0.6536  2.0225
  799TIP3   OH223811   6.711   0.093  16.293  0.0617 -0.1881 -0.2310
  799TIP3    H123812   6.783   0.127  16.240 -1.1140  1.5654 -0.8197
  799TIP3    H223813   6.729   0.124  16.382  0.2533 -0.1131 -0.2971
  800TIP3   OH223814   3.541   5.777   2.082  0.0519 -0.2118  0.1442
  800TIP3    H123815   3.574   5.865   2.097  0.1289 -0.4023  1.1015
  800TIP3    H223816   3.456   5.791   2.038 -0.0033  0.3351  0.4213
  801TIP3   OH223817   4.716   6.278   0.043 -0.0757  0.9532  0.2100
  801TIP3    H123818   4.794   6.311  -0.002 -0.0495  1.9692  0.9770
  801TIP3    H223819   4.702   6.339   0.115 -0.8676  0.0791  0.8192
  802TIP3   OH223820   0.753   5.804  15.463 -0.1725 -0.9342  0.0194
  802TIP3    H123821   0.783   5.830  15.550 -1.2623  0.3329  0.0463
  802TIP3    H223822   0.660   5.784  15.475 -0.1131 -1.7100 -0.6807
  803TIP3   OH223823   4.479   3.847  16.739 -0.0310 -0.8390  0.5901
  803TIP3    H123824   4.510   3.811  16.822 -0.5400  0.2966  1.2833
  803TIP3    H223825   4.556   3.889  16.701 -0.0426 -0.4737  0.9702
  804TIP3   OH223826   4.462   1.618   4.630 -0.1938 -0.5499  0.0069
  804TIP3    H123827   4.521   1.679   4.674 -0.5510 -0.5014  0.4216
  804TIP3    H223828   4.509   1.591   4.551  0.6934 -1.0758  0.6992
  805TIP3   OH223829   0.180   5.118   2.188 -0.4791  0.0479  0.9997
  805TIP3    H123830   0.243   5.055   2.153 -0.7027  0.2835  0.1669
  805TIP3    H223831   0.095   5.079   2.172 -0.6515  0.8285 -0.1007
  806TIP3   OH223832   2.759   3.474   4.156  0.6339  0.3489 -0.6810
  806TIP3    H123833   2.766   3.401   4.095  1.3030  0.5072 -0.8027
  806TIP3    H223834   2.679   3.519   4.129  0.2025 -0.3471 -0.5841
  807TIP3   OH223835   2.043   6.273   1.077 -0.2708  0.0900 -0.4285
  807TIP3    H123836   2.074   6.206   1.139 -1.5095 -0.3615 -0.2653
  807TIP3    H223837   2.123   6.309   1.039  0.4638 -0.7066  0.3085
  808TIP3   OH223838   4.946   3.722  13.560 -0.5282  0.2891 -0.3171
  808TIP3    H123839   4.987   3.657  13.504 -2.4181 -1.0225 -0.2914
  808TIP3    H223840   4.869   3.751  13.511 -0.2646  1.8158  0.1013
  809TIP3   OH223841   4.680   4.234   2.093  0.6062 -0.4685  0.1839
  809TIP3    H123842   4.768   4.213   2.063  0.2804 -2.7917  0.6543
  809TIP3    H223843   4.639   4.149   2.109 -0.7968  0.5579  2.6499
  810TIP3   OH223844   4.026   1.641  14.915  0.1455  0.0262  0.1865
  810TIP3    H123845   3.972   1.573  14.875  0.7306 -0.8857  0.9092
  810TIP3    H223846   4.116   1.612  14.901  0.3718 -0.7235  2.7576
  811TIP3   OH223847   5.325   3.944  12.818  0.2900 -0.4956  0.2060
  811TIP3    H123848   5.320   3.849  12.825 -0.1791 -0.5156 -0.3566
  811TIP3    H223849   5.317   3.975  12.908  1.8961 -1.0348  0.5757
  812TIP3   OH223850   5.738   0.021   1.453 -0.2276  0.3205 -0.3319
  812TIP3    H123851   5.815  -0.025   1.486 -0.4147  0.3152  0.1000
  812TIP3    H223852   5.674  -0.048   1.438  0.2652  0.1689 -1.9003
  813TIP3   OH223853   1.510   5.458   3.019 -0.2813  0.1953  0.2859
  813TIP3    H123854   1.551   5.374   3.038  0.4027  0.4522 -0.0389
  813TIP3    H223855   1.502   5.501   3.105 -1.1347 -0.4124  0.5262
  814TIP3   OH223856   0.395   6.495   2.968  0.4573  0.4184 -0.2583
  814TIP3    H123857   0.365   6.583   2.949  0.3766  0.5168  0.3011
  814TIP3    H223858   0.326   6.438   2.934  0.0749  0.6084  0.1880
  815TIP3   OH223859   1.780   3.315  13.551 -0.0637  0.1543 -0.1023
  815TIP3    H123860   1.853   3.369  13.521 -0.9511  0.3993 -2.0011
  815TIP3    H223861   1.732   3.371  13.613 -0.0591  0.9454 -0.8029
  816TIP3   OH223862   4.363   3.867  13.842  0.1455  0.2235  0.3350
  816TIP3    H123863   4.336   3.842  13.931  2.1357 -2.2293  0.3802
  816TIP3    H223864   4.458   3.876  13.848  0.2701  0.4181 -1.4651
  817TIP3   OH223865   1.300   1.656   4.959 -0.4363  0.0349  0.2166
  817TIP3    H123866   1.250   1.733   4.931  0.8585  0.8003 -0.0737
  817TIP3    H223867   1.329   1.678   5.048 -0.3257 -0.2485  0.2499
  818TIP3   OH223868   4.107   1.982   2.358  0.2910 -0.1075 -0.1652
  818TIP3    H123869   4.158   1.914   2.312  0.6334 -0.8242  1.2162
  818TIP3    H223870   4.101   2.054   2.295  0.0784 -1.3329 -1.6075
  819TIP3   OH223871   2.178   3.693   4.116  0.3353 -0.3570  0.4121
  819TIP3    H123872   2.098   3.735   4.086 -0.9808 -1.5646  2.0264
  819TIP3    H223873   2.159   3.667   4.207  2.6428 -0.4618  0.9191
  820TIP3   OH223874   1.341   5.445  15.058 -0.0805  0.0614  1.0765
  820TIP3    H123875   1.429   5.446  15.022 -0.2673 -1.2042  0.5404
  820TIP3    H223876   1.332   5.530  15.101  0.4120  1.3906 -1.2288
  821TIP3   OH223877   1.143   2.614  12.995  0.4607  0.4685  0.0791
  821TIP3    H123878   1.080   2.680  12.966  0.7074 -0.4431 -2.8689
  821TIP3    H223879   1.109   2.532  12.961  1.6827 -0.5004  1.1210
  822TIP3   OH223880   2.949   6.730   0.916 -0.3091 -0.2498  0.4263
  822TIP3    H123881   2.978   6.650   0.959  0.2827  0.4956  1.4739
  822TIP3    H223882   3.004   6.798   0.954  0.1406  0.4777 -1.4351
  823TIP3   OH223883   5.779   1.908   5.815  0.0642 -0.1330  0.2761
  823TIP3    H123884   5.739   1.859   5.887  2.6954 -1.0445  1.2213
  823TIP3    H223885   5.865   1.932   5.848  1.3739 -0.6009 -2.5761
  824TIP3   OH223886   2.888   1.626   1.557  0.4197  0.3738 -0.5465
  824TIP3    H123887   2.869   1.652   1.647  1.3639  0.2982 -0.3118
  824TIP3    H223888   2.964   1.679   1.532  1.1205 -0.6823 -0.7617
  825TIP3   OH223889   0.627   3.463  15.374 -0.4880 -0.1832  0.1038
  825TIP3    H123890   0.709   3.498  15.341  1.1620 -0.6776  3.2735
  825TIP3    H223891   0.617   3.379  15.329  0.2961  0.2683 -0.9356
  826TIP3   OH223892   3.341   6.333  12.619  0.0793 -0.0350 -0.3917
  826TIP3    H123893   3.361   6.298  12.705 -0.8643 -2.0965 -0.9608
  826TIP3    H223894   3.409   6.299  12.562 -0.2500 -0.0680 -0.7702
  827TIP3   OH223895   1.435   3.122  10.700  0.2844 -0.4043 -0.5351
  827TIP3    H123896   1.383   3.201  10.686 -0.1886 -0.5006  0.5947
  827TIP3    H223897   1.397   3.057  10.640  0.1357 -0.0207 -0.8578
  828TIP3   OH223898   0.764   0.263  16.298  0.6208  0.3500  0.3449
  828TIP3    H123899   0.711   0.309  16.362 -2.6749 -1.7521 -0.6243
  828TIP3    H223900   0.716   0.271  16.216  1.5853 -1.9858 -0.5602
  829TIP3   OH223901   6.181   4.651  15.443 -0.2564 -0.6905  0.2639
  829TIP3    H123902   6.236   4.574  15.456 -0.4279 -0.6285  1.4316
  829TIP3    H223903   6.108   4.639  15.503 -1.3113 -0.5516 -0.9445
  830TIP3   OH223904   3.325   5.964   1.073 -0.0582 -0.9492 -0.1811
  830TIP3    H123905   3.262   5.893   1.066 -1.0768 -0.0062 -0.9015
  830TIP3    H223906   3.358   5.977   0.984  1.1960 -1.4524  0.1926
  831TIP3   OH223907   0.270   4.832  11.349 -0.5957 -0.3368  0.1378
  831TIP3    H123908   0.247   4.878  11.429  0.5368  2.4448 -0.9982
  831TIP3    H223909   0.186   4.802  11.313 -1.1682 -1.0821  1.9806
  832TIP3   OH223910   2.838   0.018   3.222  0.6756 -0.3814  0.1699
  832TIP3    H123911   2.849  -0.062   3.274  1.1200  0.8198  2.0459
  832TIP3    H223912   2.927   0.050   3.210  0.4014  1.5509  2.4276
  833TIP3   OH223913   0.719   4.373   0.502  0.0522  0.1827  0.4582
  833TIP3    H123914   0.664   4.448   0.526  0.6708  1.3676 -1.5313
  833TIP3    H223915   0.663   4.297   0.519 -2.0814  1.3035 -0.9350
  834TIP3   OH223916   2.636   3.792   3.376 -0.2489  0.0399  0.4195
  834TIP3    H123917   2.664   3.744   3.454  3.2068 -0.4896 -0.9576
  834TIP3    H223918   2.626   3.725   3.309 -1.6392  0.6511 -0.0092
  835TIP3   OH223919   5.634   1.348   1.500  0.0252 -0.1429  0.1282
  835TIP3    H123920   5.654   1.392   1.417 -3.0159  0.3424 -0.4646
  835TIP3    H223921   5.602   1.417   1.557 -1.7979 -1.0368  0.2632
  836TIP3   OH223922   0.486   4.121  12.781  0.0770  0.0821 -0.1084
  836TIP3    H123923   0.408   4.148  12.829 -0.4616 -0.5658 -0.5872
  836TIP3    H223924   0.520   4.046  12.831  1.6097  1.6218  1.2630
  837TIP3   OH223925   6.127   4.026  10.802 -0.6006 -0.0971  0.5923
  837TIP3    H123926   6.128   4.120  10.818  2.4665 -0.3708  2.7532
  837TIP3    H223927   6.201   4.010  10.744 -0.2275 -1.3042  1.3675
  838TIP3   OH223928   2.821   5.178   2.210 -0.1411 -0.1881  0.0679
  838TIP3    H123929   2.900   5.126   2.196  0.3433  0.5546 -0.0255
  838TIP3    H223930   2.753   5.114   2.229  0.9324 -0.7456  2.3944
  839TIP3   OH223931   1.013   0.420   1.049  0.2577 -0.4919  0.1517
  839TIP3    H123932   1.101   0.391   1.074 -0.3690 -0.8933  2.0199
  839TIP3    H223933   1.004   0.506   1.091 -0.5294 -0.8061  0.6311
  840TIP3   OH223934   3.181   6.084  15.713  0.5780  0.6687 -0.3215
  840TIP3    H123935   3.109   6.124  15.762 -0.5565 -0.6822 -0.7786
  840TIP3    H223936   3.181   6.129  15.629  0.6424  1.0711 -0.1053
  841TIP3   OH223937   6.508   0.687  14.708  0.4664  0.2627 -0.0001
  841TIP3    H123938   6.490   0.597  14.734 -0.5245  0.4013 -0.1885
  841TIP3    H223939   6.540   0.729  14.788 -0.9710  0.2515  0.6076
  842TIP3   OH223940   6.560   0.576   6.098  0.1417 -0.0172  0.7734
  842TIP3    H123941   6.620   0.649   6.084 -0.7364  0.6698  0.5628
  842TIP3    H223942   6.606   0.501   6.060 -0.1304  0.9293 -1.5969
  843TIP3   OH223943   1.443   1.715  16.263  0.8353 -0.5561  0.5657
  843TIP3    H123944   1.493   1.771  16.204  0.2899 -2.0470 -1.4660
  843TIP3    H223945   1.508   1.680  16.324  1.5064  0.7343  0.6176
  844TIP3   OH223946   6.731   3.004   1.692 -0.0977 -0.0144 -0.3678
  844TIP3    H123947   6.673   2.928   1.685 -1.9864  1.3691 -0.3401
  844TIP3    H223948   6.815   2.973   1.658 -0.6677 -2.2430  0.0832
  845TIP3   OH223949   1.666   2.672  13.918  0.2263 -0.2884 -0.1245
  845TIP3    H123950   1.599   2.724  13.962 -0.4652 -1.7029  0.5622
  845TIP3    H223951   1.654   2.691  13.825  1.0612  1.9897  0.1660
  846TIP3   OH223952   5.371   3.779   4.141  0.8197 -0.5405 -0.1238
  846TIP3    H123953   5.443   3.835   4.110  1.2406 -0.6192  0.6832
  846TIP3    H223954   5.300   3.839   4.161  1.3040 -0.2689  0.8315
  847TIP3   OH223955   6.292   0.526  11.091 -0.6108  0.0328  0.0633
  847TIP3    H123956   6.259   0.535  11.180 -0.2074  3.4187  0.0036
  847TIP3    H223957   6.384   0.551  11.097 -0.2718 -0.8738 -1.1124
  848TIP3   OH223958   5.792   6.254   4.947 -0.6452  0.3937  0.5596
  848TIP3    H123959   5.714   6.207   4.979 -1.6241  1.4283 -0.2339
  848TIP3    H223960   5.770   6.347   4.956  0.7755  0.7247  0.9347
  849TIP3   OH223961   5.462   4.936  13.732  0.0776 -0.0373 -0.0324
  849TIP3    H123962   5.470   4.979  13.647  0.1806  0.2536  0.1255
  849TIP3    H223963   5.434   4.847  13.711  0.7853 -0.1786 -0.4149
  850TIP3   OH223964   6.180   1.830  15.092  0.1087 -0.4441 -0.4838
  850TIP3    H123965   6.214   1.754  15.044  0.7847 -0.6495  0.2777
  850TIP3    H223966   6.251   1.853  15.152 -0.5577  0.0414  0.1339
  851TIP3   OH223967   3.945   5.183  11.660  0.4049 -0.1323 -0.5631
  851TIP3    H123968   3.863   5.229  11.638 -0.2435  0.5320  2.7251
  851TIP3    H223969   3.945   5.106  11.604 -2.5145 -0.1478 -0.6915
  852TIP3   OH223970   2.924   0.027  15.977 -0.4375  0.3242 -0.2363
  852TIP3    H123971   2.995   0.082  16.010  2.2562 -3.1049  0.3423
  852TIP3    H223972   2.938   0.023  15.883  0.0040 -0.0760 -0.1621
  853TIP3   OH223973   5.765   3.390  11.678  0.3068  0.2917  0.4724
  853TIP3    H123974   5.703   3.389  11.751 -0.2541  2.4117  0.0760
  853TIP3    H223975   5.796   3.299  11.672 -1.9114 -0.5914  1.3840
  854TIP3   OH223976   2.828   6.263  16.489 -0.2097  0.0376 -0.1725
  854TIP3    H123977   2.831   6.353  16.456 -0.3771  0.3272  0.5942
  854TIP3    H223978   2.830   6.209  16.410 -1.4563  0.7255 -0.7069
  855TIP3   OH223979   3.725   6.393  15.916  0.7182  0.4065 -0.3478
  855TIP3    H123980   3.673   6.472  15.903  2.4217  1.2735 -2.5388
  855TIP3    H223981   3.665   6.321  15.898 -0.2547  1.2869 -0.6970
  856TIP3   OH223982   2.645   3.482  15.444 -0.3113  0.2048 -0.2484
  856TIP3    H123983   2.653   3.476  15.349 -1.7803  1.8102 -0.5445
  856TIP3    H223984   2.732   3.463  15.478  0.5474  0.8381 -2.0048
  857TIP3   OH223985   1.159   0.416   6.365 -0.3195 -0.7654  0.0969
  857TIP3    H123986   1.181   0.398   6.274 -1.0463  0.4324 -0.3340
  857TIP3    H223987   1.206   0.497   6.386 -0.2338 -0.9771  0.7659
  858TIP3   OH223988   1.435   5.503   3.791 -0.3518  0.2762  0.2640
  858TIP3    H123989   1.341   5.488   3.780 -0.4180  0.0552  1.0681
  858TIP3    H223990   1.476   5.449   3.723 -0.7784 -0.1922  0.3731
  859TIP3   OH223991   2.086   5.904   6.214 -0.3774 -0.2888  0.9296
  859TIP3    H123992   2.085   5.809   6.229  0.0202 -0.5132 -0.3421
  859TIP3    H223993   2.152   5.917   6.145 -1.7558  0.6950 -0.2706
  860TIP3   OH223994   1.458   5.124   5.992  0.0004  0.4241 -0.3159
  860TIP3    H123995   1.428   5.111   5.902 -0.6362 -2.5840  0.2484
  860TIP3    H223996   1.549   5.153   5.983  0.5494 -1.5940 -1.9661
  861TIP3   OH223997   4.696   0.979   4.348 -0.0839 -0.2004 -0.0477
  861TIP3    H123998   4.756   0.999   4.421  1.4983 -0.6990 -1.1619
  861TIP3    H223999   4.694   1.059   4.296 -0.5353 -0.1342  0.0657
  862TIP3   OH224000   5.120   1.512   5.801 -0.1358  0.2381  0.1893
  862TIP3    H124001   5.089   1.596   5.835  0.0128  0.4748 -0.2546
  862TIP3    H224002   5.145   1.531   5.711 -0.6955 -0.4233 -0.1087
  863TIP3   OH224003   0.229   0.519   5.400 -0.6532  0.1248 -0.2712
  863TIP3    H124004   0.285   0.441   5.406  0.8597  0.8659 -2.9034
  863TIP3    H224005   0.193   0.516   5.311 -3.9118  0.3581  0.9193
  864TIP3   OH224006   2.957   3.062  15.696  0.4309  0.0872 -0.4811
  864TIP3    H124007   2.913   2.977  15.703  1.9523 -0.6245  0.9502
  864TIP3    H224008   3.050   3.041  15.688  1.1758  1.5750  2.6025
  865TIP3   OH224009   3.975   5.473   4.795  0.0802 -0.6409 -0.1387
  865TIP3    H124010   4.042   5.412   4.765  0.4054 -0.9658  1.1893
  865TIP3    H224011   4.008   5.560   4.769  0.9795 -0.8033  0.4310
  866TIP3   OH224012   2.788   6.054  12.483  0.7648 -0.3803  0.1806
  866TIP3    H124013   2.862   6.109  12.460  0.3804  0.4540  0.8762
  866TIP3    H224014   2.816   5.965  12.461  1.5258  0.0494 -0.6200
  867TIP3   OH224015   2.126   3.159   4.156 -0.6245  0.1788 -0.3110
  867TIP3    H124016   2.089   3.120   4.235  0.1895  0.7498  0.3641
  867TIP3    H224017   2.221   3.155   4.169 -0.4650 -0.0158 -1.4101
  868TIP3   OH224018   6.397   4.612  12.108 -0.5346  0.3798  0.2370
  868TIP3    H124019   6.406   4.584  12.017 -0.6716  0.7735  0.1009
  868TIP3    H224020   6.312   4.656  12.111 -0.9307 -0.3920  0.7502
  869TIP3   OH224021   1.033   5.654   0.560  0.5440  0.3813 -0.1883
  869TIP3    H124022   0.989   5.603   0.491  1.0329 -0.0461 -0.1873
  869TIP3    H224023   0.980   5.733   0.568 -0.6803 -0.4624  0.3541
  870TIP3   OH224024   6.323   6.009  15.170  0.1694 -0.8776  0.2192
  870TIP3    H124025   6.310   6.037  15.079 -1.6404  1.3473  1.0631
  870TIP3    H224026   6.418   6.012  15.183  0.4705 -1.2873 -1.5619
  871TIP3   OH224027   0.199   3.558  16.685 -0.0382  0.0943 -0.1207
  871TIP3    H124028   0.171   3.470  16.709 -0.4484  0.0135 -0.8864
  871TIP3    H224029   0.163   3.572  16.598 -0.0091  1.0389  0.0123
  872TIP3   OH224030   5.955   0.377   3.903 -0.6140 -0.6642 -0.1403
  872TIP3    H124031   5.899   0.356   3.829 -0.9922 -0.5291  0.1008
  872TIP3    H224032   6.044   0.367   3.870 -0.7632  0.1688 -0.8498
  873TIP3   OH224033   6.115   5.965  12.612  0.6656 -0.3490 -0.0883
  873TIP3    H124034   6.086   6.013  12.690 -0.6027  0.3403 -0.9519
  873TIP3    H224035   6.146   5.881  12.646 -2.1814 -1.0877  0.9921
  874TIP3   OH224036   2.774   4.280  12.723 -0.5371  0.7045 -0.1519
  874TIP3    H124037   2.732   4.316  12.801 -0.4307  1.6648 -0.5207
  874TIP3    H224038   2.703   4.266  12.661 -0.4559  1.3286 -0.3958
  875TIP3   OH224039   3.956   6.529  11.398  0.1339 -0.3057  0.1636
  875TIP3    H124040   3.902   6.460  11.437 -1.2527 -0.0071 -1.1141
  875TIP3    H224041   3.907   6.556  11.320  2.4824 -0.5258 -1.5076
  876TIP3   OH224042   0.281   4.558  15.200 -0.2920 -0.2296 -0.4458
  876TIP3    H124043   0.188   4.561  15.222 -0.2541 -2.1126  0.0814
  876TIP3    H224044   0.301   4.647  15.170 -2.0217  0.4760  0.3603
  877TIP3   OH224045   4.148   6.092   3.935 -0.4080  0.1927  0.5831
  877TIP3    H124046   4.194   6.008   3.931 -0.3673  0.1844  1.1031
  877TIP3    H224047   4.217   6.157   3.928 -0.4612  0.1860 -0.0403
  878TIP3   OH224048   1.345   6.361  12.303  0.2666  0.3345  0.1404
  878TIP3    H124049   1.267   6.370  12.248  0.2138  0.1434  0.1820
  878TIP3    H224050   1.323   6.291  12.364  0.2721  0.6386  0.4975
  879TIP3   OH224051   3.305   6.453  16.266 -0.2880 -0.5019 -0.2258
  879TIP3    H124052   3.295   6.368  16.223 -1.7964  0.0680 -1.0650
  879TIP3    H224053   3.221   6.497  16.253  0.0875  0.6944  1.1527
  880TIP3   OH224054   4.138   6.600  14.813 -0.1739 -0.1180  0.0797
  880TIP3    H124055   4.169   6.672  14.868 -2.1566  1.1732 -0.4010
  880TIP3    H224056   4.077   6.551  14.868 -0.4761 -0.1306 -0.2610
  881TIP3   OH224057   5.440   1.161   1.455  0.2632 -0.1320  0.3667
  881TIP3    H124058   5.520   1.212   1.444  0.7239 -0.9854 -0.3684
  881TIP3    H224059   5.420   1.126   1.368 -2.3014  2.0210 -0.0385
  882TIP3   OH224060   3.272   5.059  12.688 -0.4472 -0.5194 -0.3823
  882TIP3    H124061   3.351   5.051  12.740 -0.0752 -0.1879 -0.8893
  882TIP3    H224062   3.303   5.079  12.600 -1.1093  0.2779 -0.4479
  883TIP3   OH224063   3.532   1.923   5.257 -0.2589 -0.5021  0.3675
  883TIP3    H124064   3.566   1.907   5.169 -0.4013 -2.6478  0.6442
  883TIP3    H224065   3.605   1.966   5.303 -0.0632  0.3156 -0.6761
  884TIP3   OH224066   5.570   2.313  15.730 -0.3798 -0.4030  0.2179
  884TIP3    H124067   5.478   2.335  15.715 -0.2753 -0.4135 -0.4679
  884TIP3    H224068   5.573   2.279  15.820 -0.8659  0.5799  0.6194
  885TIP3   OH224069   2.962   4.342  12.498  0.2753  0.1664 -1.1062
  885TIP3    H124070   2.867   4.330  12.501  0.3355 -0.1556  0.0810
  885TIP3    H224071   2.989   4.344  12.590  1.5820 -1.0990 -1.4190
  886TIP3   OH224072   6.393   4.944   5.379 -0.7345 -0.1367 -0.2635
  886TIP3    H124073   6.448   4.905   5.311 -0.7394 -0.1137 -0.2813
  886TIP3    H224074   6.304   4.934   5.347 -0.7186  0.1541 -0.4077
  887TIP3   OH224075   0.067   1.479   3.943  0.2269 -0.0095  0.0594
  887TIP3    H124076   0.127   1.515   3.878 -0.2455  0.5649 -0.0703
  887TIP3    H224077   0.027   1.556   3.983 -1.7613 -0.3731 -1.1054
  888TIP3   OH224078   4.436   3.583   3.242 -0.3619  0.0595 -0.2038
  888TIP3    H124079   4.500   3.618   3.180  1.6403  0.9577  2.1964
  888TIP3    H224080   4.474   3.500   3.272 -1.0459 -0.1237  0.1787
  889TIP3   OH224081   1.600   4.021   1.243  0.4221  0.2184 -0.1076
  889TIP3    H124082   1.540   3.946   1.246  0.2801  0.3302  2.3779
  889TIP3    H224083   1.543   4.097   1.248  0.6759  0.3936  0.1309
  890TIP3   OH224084   5.763   4.621  13.452 -0.2910  0.1353  0.1491
  890TIP3    H124085   5.781   4.672  13.531 -2.2970 -1.8331  2.0424
  890TIP3    H224086   5.763   4.530  13.482  1.6168 -0.9710 -2.7371
  891TIP3   OH224087   5.571   2.613   5.809  0.1645 -0.1427  0.5202
  891TIP3    H124088   5.502   2.673   5.839  0.8223  0.8026  0.2195
  891TIP3    H224089   5.652   2.653   5.841  0.7379 -0.0586 -0.9556
  892TIP3   OH224090   5.801   5.096  13.573  0.3265  0.2467  0.3437
  892TIP3    H124091   5.762   5.091  13.486 -0.7336 -0.1216  0.8151
  892TIP3    H224092   5.749   5.163  13.618  0.1911 -0.3012  1.0134
  893TIP3   OH224093   3.269   2.769  14.337 -0.0229  0.2098 -0.2607
  893TIP3    H124094   3.335   2.757  14.405 -1.3059  0.3473  1.0449
  893TIP3    H224095   3.320   2.786  14.257  1.5159 -0.4591  0.5449
  894TIP3   OH224096   2.177   3.461   5.552 -0.0828 -0.3578  0.4035
  894TIP3    H124097   2.232   3.475   5.629 -1.5874  0.2217  1.4168
  894TIP3    H224098   2.088   3.456   5.587 -0.5758 -3.0288 -0.9488
  895TIP3   OH224099   1.653   6.275  10.710 -0.2857 -0.6006  0.2629
  895TIP3    H124100   1.669   6.336  10.638  0.6950 -2.2610 -1.0006
  895TIP3    H224101   1.734   6.224  10.717 -0.6840 -1.0517  1.9793
  896TIP3   OH224102   4.942   6.164  10.385  0.0055  0.1957 -0.1982
  896TIP3    H124103   5.015   6.103  10.379  0.0259  0.3517 -2.6089
  896TIP3    H224104   4.874   6.116  10.431  1.3744 -0.1702  1.5435
  897TIP3   OH224105   0.483   4.767  12.289 -0.5243  0.3900  0.2271
  897TIP3    H124106   0.564   4.728  12.258 -1.8790 -2.9897  0.4884
  897TIP3    H224107   0.473   4.733  12.378 -2.3686  0.3645  0.0559
  898TIP3   OH224108   5.233   0.187   5.761 -0.4076  0.5936  0.2076
  898TIP3    H124109   5.235   0.099   5.725  1.2036  0.5336  0.3735
  898TIP3    H224110   5.213   0.174   5.854 -0.4984  0.4322  0.1661
  899TIP3   OH224111   1.631   3.711   1.032  0.3185  0.0583  0.3764
  899TIP3    H124112   1.577   3.691   0.956  0.5011  0.3895  0.1567
  899TIP3    H224113   1.669   3.797   1.013  3.2646 -1.3601 -0.8452
  900TIP3   OH224114   1.942   0.092   2.749 -0.2078 -0.4376  0.4130
  900TIP3    H124115   2.023   0.102   2.798 -0.4198 -1.5960  1.0238
  900TIP3    H224116   1.910   0.005   2.772 -1.1268 -0.3805 -0.5708
  901TIP3   OH224117   5.221   1.481  16.272 -0.2706  0.4734 -0.1679
  901TIP3    H124118   5.184   1.469  16.359 -1.6320 -2.6463 -1.0464
  901TIP3    H224119   5.146   1.485  16.213  0.6468 -0.1062 -1.4434
  902TIP3   OH224120   5.308   5.168  15.137  0.1778  0.3762 -0.0593
  902TIP3    H124121   5.228   5.200  15.096  0.3387  0.3554 -0.3918
  902TIP3    H224122   5.349   5.246  15.174  2.1099  1.1527 -3.4567
  903TIP3   OH224123   2.328   1.378   6.129  0.0949 -0.2700 -0.0009
  903TIP3    H124124   2.356   1.388   6.220  0.4471 -0.1912 -0.1146
  903TIP3    H224125   2.265   1.307   6.131 -0.0095 -0.1699  0.3289
  904TIP3   OH224126   0.268   1.879   0.476  0.1838  0.5390  0.0548
  904TIP3    H124127   0.250   1.973   0.468 -0.1909  0.4797  0.1650
  904TIP3    H224128   0.193   1.844   0.524  0.5227  0.2480  0.3804
  905TIP3   OH224129   2.013   5.328  16.544 -0.8057 -0.4388  0.5756
  905TIP3    H124130   1.959   5.258  16.582 -0.5561 -0.8750  0.1386
  905TIP3    H224131   2.100   5.288  16.534  0.1732  0.8169  3.0721
  906TIP3   OH224132   0.747   3.803   4.672  0.7115 -0.5748 -0.3877
  906TIP3    H124133   0.685   3.872   4.696  2.4090  1.0971 -0.6047
  906TIP3    H224134   0.747   3.803   4.576  0.8699 -0.7527 -0.3883
  907TIP3   OH224135   5.555   5.680   4.246 -0.3156 -0.0246 -0.7151
  907TIP3    H124136   5.473   5.721   4.273 -0.1926 -0.5594  0.5263
  907TIP3    H224137   5.533   5.636   4.164 -0.9524  0.8347 -1.0234
  908TIP3   OH224138   3.466   3.435   3.265 -0.5164 -0.5527 -1.1310
  908TIP3    H124139   3.546   3.486   3.255 -0.9481 -0.2661 -4.3603
  908TIP3    H224140   3.492   3.357   3.315  1.1502  0.6986  0.0346
  909TIP3   OH224141   5.908   0.472   0.650 -0.7408 -0.2468  0.1237
  909TIP3    H124142   5.959   0.416   0.708 -1.7050 -0.7058  0.5549
  909TIP3    H224143   5.850   0.521   0.708 -0.8983  0.1582 -0.3630
  910TIP3   OH224144   3.857   1.925  13.331  0.0895 -0.2926  0.4654
  910TIP3    H124145   3.773   1.890  13.300  1.1487 -2.6613 -0.0057
  910TIP3    H224146   3.901   1.955  13.252 -0.1153  0.5120  0.6523
  911TIP3   OH224147   3.389   0.979   0.839  0.2889  0.1617 -0.1399
  911TIP3    H124148   3.382   1.073   0.854  1.9776  0.4038 -0.6543
  911TIP3    H224149   3.370   0.967   0.746 -1.5094 -0.2437  0.2381
  912TIP3   OH224150   2.382   6.028   3.735  0.0900  0.3436 -0.1326
  912TIP3    H124151   2.431   6.073   3.666  0.1664 -1.2874 -1.1945
  912TIP3    H224152   2.323   6.095   3.770  1.2677  1.6642 -0.5731
  913TIP3   OH224153   3.413   3.545   0.869 -0.5280 -0.1329 -0.5212
  913TIP3    H124154   3.441   3.625   0.913 -0.7629  0.1665 -0.9203
  913TIP3    H224155   3.388   3.486   0.941 -1.9572  0.7350 -0.2829
  914TIP3   OH224156   6.082   5.188   5.336 -0.1654  0.2349  0.6094
  914TIP3    H124157   6.040   5.226   5.259  2.2505  1.5320 -0.1707
  914TIP3    H224158   6.133   5.260   5.373  1.9638 -1.4125  1.0338
  915TIP3   OH224159   4.926   1.130   0.883 -0.1489 -0.1377  0.3577
  915TIP3    H124160   4.911   1.225   0.892  2.4489  0.4409 -0.5530
  915TIP3    H224161   4.858   1.101   0.823 -0.9039  1.1914  0.5273
  916TIP3   OH224162   4.456   5.374   0.779  0.1689  0.8033  0.3263
  916TIP3    H124163   4.402   5.394   0.855 -0.9390  0.9693 -0.4704
  916TIP3    H224164   4.537   5.339   0.815  0.0476  1.7540  1.6037
  917TIP3   OH224165   2.446   3.425   3.602 -0.2569 -0.5020  0.0559
  917TIP3    H124166   2.425   3.388   3.516 -3.1135  1.7090 -0.3706
  917TIP3    H224167   2.518   3.485   3.585 -2.2834  1.6889 -1.4317
  918TIP3   OH224168   1.069   6.151  12.841  0.2597  0.1548 -0.2494
  918TIP3    H124169   1.118   6.210  12.783 -1.8175  0.3607 -1.9066
  918TIP3    H224170   0.981   6.186  12.842 -0.1802 -0.8942  1.6706
  919TIP3   OH224171   2.419   5.456   0.051 -0.0220  0.0391  0.5935
  919TIP3    H124172   2.424   5.405  -0.029 -0.6235  1.2678 -0.2475
  919TIP3    H224173   2.331   5.440   0.085 -0.3208  0.7280  0.1656
  920TIP3   OH224174   0.211   4.452   2.491 -0.1859 -0.3752  0.8583
  920TIP3    H124175   0.118   4.435   2.477 -0.3263 -0.0458  1.3610
  920TIP3    H224176   0.232   4.520   2.427 -0.7315  0.8469  1.9359
  921TIP3   OH224177   3.659   5.949   0.741  0.1520 -0.1800 -0.3211
  921TIP3    H124178   3.594   5.913   0.681  0.8669 -0.0573 -1.1883
  921TIP3    H224179   3.683   6.033   0.702  1.4883 -0.6319 -0.5056
  922TIP3   OH224180   6.347   1.542   2.353  0.0381 -0.7340 -0.3354
  922TIP3    H124181   6.365   1.594   2.275  1.3638  0.0038  0.4354
  922TIP3    H224182   6.331   1.454   2.320  1.0365 -0.5352 -1.4161
  923TIP3   OH224183   4.945   2.748   3.552  0.1496  0.5431  0.1379
  923TIP3    H124184   4.957   2.701   3.469  0.9317  1.5033 -0.3095
  923TIP3    H224185   4.966   2.683   3.619 -0.4959 -0.2509 -0.3943
  924TIP3   OH224186   5.615   3.244   2.309  0.1528 -0.3705 -0.7154
  924TIP3    H124187   5.634   3.197   2.390  0.5813 -2.1104 -1.7944
  924TIP3    H224188   5.519   3.244   2.303 -0.0051  1.5874  0.7839
  925TIP3   OH224189   6.800   1.429   3.120  0.7455 -0.3289  0.0971
  925TIP3    H124190   6.894   1.442   3.104  0.6796  1.4712  0.8846
  925TIP3    H224191   6.761   1.427   3.033  1.1885  2.1822 -0.2417
  926TIP3   OH224192   6.547   1.497   2.051 -0.2810 -0.8225  0.3435
  926TIP3    H124193   6.578   1.511   1.961 -0.5684  0.5082  0.4328
  926TIP3    H224194   6.627   1.492   2.103 -0.1407 -0.6915  0.1422
  927TIP3   OH224195   6.416   3.867   0.725 -0.0053  0.1330  0.0452
  927TIP3    H124196   6.354   3.939   0.736 -0.9002 -0.7711  1.1674
  927TIP3    H224197   6.399   3.809   0.799 -0.2971 -1.9322 -1.5451
  928TIP3   OH224198   4.195   4.885  16.578  0.0245  0.4849  0.3528
  928TIP3    H124199   4.281   4.908  16.545 -0.2065  0.0192 -0.6197
  928TIP3    H224200   4.155   4.833  16.508 -1.0482  0.6939  0.7754
  929TIP3   OH224201   0.685   2.851  12.114  0.4212  0.3413  0.1082
  929TIP3    H124202   0.596   2.885  12.106  0.9265  1.5666 -0.5996
  929TIP3    H224203   0.700   2.806  12.031 -0.3249 -1.9180  1.1234
  930TIP3   OH224204   4.581   6.166   3.286  0.4625 -0.2004  0.4076
  930TIP3    H124205   4.549   6.240   3.339 -0.1595  0.4894 -0.8830
  930TIP3    H224206   4.509   6.103   3.287  0.3161 -0.0409  0.1220
  931TIP3   OH224207   5.664   3.822   5.483  0.3196 -0.2680  0.2311
  931TIP3    H124208   5.720   3.752   5.447  1.2371 -0.3829  1.7625
  931TIP3    H224209   5.587   3.823   5.426  1.2818 -1.0167 -1.1579
  932TIP3   OH224210   5.933   2.069   1.492 -0.2669  0.0352 -0.4194
  932TIP3    H124211   6.020   2.094   1.461 -0.5945 -0.7207 -2.0896
  932TIP3    H224212   5.945   1.986   1.537 -0.1109 -0.0342 -0.5894
  933TIP3   OH224213   2.783   5.138  14.164 -0.2555  0.2361 -0.1636
  933TIP3    H124214   2.723   5.192  14.216 -0.3713  0.3025 -0.3654
  933TIP3    H224215   2.842   5.201  14.123 -0.0296  0.1699  0.0534
  934TIP3   OH224216   4.522   0.277   2.824  0.7281 -0.7679  0.7211
  934TIP3    H124217   4.521   0.183   2.806  1.3630 -1.3921  3.5172
  934TIP3    H224218   4.431   0.297   2.850  0.4943 -0.4883 -0.2697
  935TIP3   OH224219   2.090   6.690  12.745  0.2517  0.1089  0.2838
  935TIP3    H124220   2.048   6.751  12.805  0.1467 -0.8836  1.2507
  935TIP3    H224221   2.032   6.686  12.669  1.7123  3.4630 -1.2040
  936TIP3   OH224222   3.241   2.959  15.143  0.1704 -0.2757  0.3786
  936TIP3    H124223   3.175   2.996  15.085  0.7668 -0.3508 -0.3545
  936TIP3    H224224   3.245   3.019  15.217 -0.8644 -0.3798  0.5392
  937TIP3   OH224225   0.912   3.712  14.271  0.2406  0.3136  0.2385
  937TIP3    H124226   0.820   3.689  14.257  0.5625 -0.5668 -0.4982
  937TIP3    H224227   0.911   3.771  14.346 -1.0406  1.1172 -0.3711
  938TIP3   OH224228   0.833   4.634  15.810 -0.2892 -0.2271  0.2514
  938TIP3    H124229   0.824   4.565  15.745 -0.0068 -1.6779  1.7092
  938TIP3    H224230   0.755   4.688  15.799 -0.5565 -0.8102 -0.8458
  939TIP3   OH224231   0.424   6.626   1.859  0.4852  0.1746 -0.3217
  939TIP3    H124232   0.502   6.604   1.910 -0.0237 -0.4345  0.2143
  939TIP3    H224233   0.374   6.685   1.915 -1.2390 -2.3446  0.9719
  940TIP3   OH224234   6.222   4.602  15.041  0.2052 -0.9483 -0.0228
  940TIP3    H124235   6.271   4.676  15.077  0.1051 -0.4182 -0.9264
  940TIP3    H224236   6.140   4.602  15.089 -0.0958 -0.0025 -0.4998
  941TIP3   OH224237   6.241   5.399  13.870  0.2803 -0.0104 -0.5810
  941TIP3    H124238   6.203   5.380  13.784 -1.7657  1.0527  0.0037
  941TIP3    H224239   6.175   5.453  13.913  2.0690  1.0411  0.9780
  942TIP3   OH224240   3.247   4.829  15.806  0.5040  0.7828 -0.6957
  942TIP3    H124241   3.336   4.835  15.773  1.2341  0.6747  1.1365
  942TIP3    H224242   3.207   4.758  15.756  1.2984  1.0778 -1.7898
  943TIP3   OH224243   1.580   5.091  14.116 -0.3227  0.1437 -0.0024
  943TIP3    H124244   1.595   5.149  14.191 -0.0491 -0.0761  0.1156
  943TIP3    H224245   1.494   5.052  14.132 -0.2573  0.0849  0.2067
  944TIP3   OH224246   1.250   1.262  16.182 -0.0664 -0.3615  0.3941
  944TIP3    H124247   1.314   1.207  16.137  2.9047  2.2591  1.0342
  944TIP3    H224248   1.262   1.242  16.275  2.2444  2.1941  0.8042
  945TIP3   OH224249   0.714   6.219  11.239 -0.1198  0.1404  0.2661
  945TIP3    H124250   0.670   6.163  11.302  0.2164 -0.5124 -0.0694
  945TIP3    H224251   0.646   6.241  11.175 -0.1481 -0.2492  0.1584
  946TIP3   OH224252   2.816   0.137  14.382  0.4169 -0.6170  0.9622
  946TIP3    H124253   2.857   0.080  14.317 -2.4653 -0.6847 -0.9434
  946TIP3    H224254   2.739   0.088  14.411 -1.0455  1.4674  0.7412
  947TIP3   OH224255   3.390   3.388   6.395  0.3660 -0.1673  0.1224
  947TIP3    H124256   3.485   3.398   6.398  0.4533 -0.2533 -1.2754
  947TIP3    H224257   3.356   3.478   6.396  0.4855 -0.1257  0.3069
  948TIP3   OH224258   0.502   4.482   3.734  0.0041 -0.4202  0.1732
  948TIP3    H124259   0.540   4.395   3.719  3.3833  0.9411 -0.0352
  948TIP3    H224260   0.495   4.490   3.829 -1.5146 -1.2917  0.1758
  949TIP3   OH224261   4.923   6.523  15.515 -0.3509  1.1131 -0.4821
  949TIP3    H124262   4.969   6.555  15.593 -1.5134 -0.0796  0.7602
  949TIP3    H224263   4.878   6.444  15.545 -2.1200  1.4971 -1.9411
  950TIP3   OH224264   3.789   3.752   3.385  0.2846  0.2791 -0.2056
  950TIP3    H124265   3.765   3.664   3.415  2.1951 -0.7409 -1.5277
  950TIP3    H224266   3.884   3.751   3.380  0.4994  3.0435  1.4580
  951TIP3   OH224267   5.188   0.777  11.538 -0.0436  0.4779  0.8919
  951TIP3    H124268   5.280   0.804  11.548  0.3952 -0.2591 -0.6859
  951TIP3    H224269   5.193   0.684  11.516 -1.0654  0.6929 -0.4087
  952TIP3   OH224270   1.129   3.017   2.648  0.0617  0.1296  0.1971
  952TIP3    H124271   1.170   2.960   2.583 -1.7320 -0.1738 -0.7376
  952TIP3    H224272   1.105   2.958   2.720 -2.3166 -0.5417 -1.0129
  953TIP3   OH224273   2.478   3.119  13.543  0.6995 -0.0119 -0.1230
  953TIP3    H124274   2.465   3.151  13.453 -2.8442  0.0004  0.2798
  953TIP3    H224275   2.445   3.029  13.541  1.4701 -0.3308  0.9824
  954TIP3   OH224276   1.565   1.601  14.820  0.1472 -0.2215  0.8676
  954TIP3    H124277   1.561   1.617  14.914  1.2483  0.8014  0.7711
  954TIP3    H224278   1.601   1.682  14.784  0.1153 -0.7458 -0.3873
  955TIP3   OH224279   0.898   0.893  12.142  0.3898 -0.9810 -0.3116
  955TIP3    H124280   0.895   0.863  12.233 -3.1657 -1.7949 -0.5512
  955TIP3    H224281   0.941   0.978  12.146 -0.1381 -0.7518  2.2282
  956TIP3   OH224282   4.053   6.684   0.947  0.1680 -0.6198 -0.4573
  956TIP3    H124283   3.960   6.685   0.966 -0.0255  0.6630 -1.3167
  956TIP3    H224284   4.090   6.622   1.010 -1.1341 -0.5096  0.4603
  957TIP3   OH224285   2.144   4.084  12.673  0.0486 -0.1371  0.3884
  957TIP3    H124286   2.125   4.158  12.730 -1.0755 -1.2159  1.4545
  957TIP3    H224287   2.065   4.031  12.673  0.3251 -0.6403 -1.4940
  958TIP3   OH224288   5.883   1.000   3.856 -0.0571 -0.0509 -0.4236
  958TIP3    H124289   5.872   0.972   3.765  2.0647 -1.0242 -0.4373
  958TIP3    H224290   5.805   0.967   3.901 -1.7506  1.4702 -2.0382
  959TIP3   OH224291   3.773   0.048  11.139  0.1971  0.0465 -0.1339
  959TIP3    H124292   3.788   0.141  11.159 -2.4354  0.5658 -0.2221
  959TIP3    H224293   3.734   0.012  11.218  1.0181 -0.9560 -0.1711
  960TIP3   OH224294   4.137   3.167  13.686 -0.3273 -0.0074 -0.1972
  960TIP3    H124295   4.129   3.194  13.777  1.1261 -0.6115  0.1466
  960TIP3    H224296   4.202   3.096  13.688  0.4796  0.6303 -1.8151
  961TIP3   OH224297   2.976   3.847   5.280 -0.0457  0.2554  0.1172
  961TIP3    H124298   3.001   3.921   5.224 -0.3455  0.1768 -0.1213
  961TIP3    H224299   2.945   3.780   5.219  0.5686 -0.2122  0.2998
  962TIP3   OH224300   5.916   5.117   3.548  0.2651  0.3223  0.0267
  962TIP3    H124301   5.931   5.045   3.487  0.5247 -0.1466  0.6232
  962TIP3    H224302   5.985   5.180   3.530  0.0491  0.4140 -0.4852
  963TIP3   OH224303   6.669   0.196  13.466 -0.8063  0.0469 -0.3855
  963TIP3    H124304   6.689   0.183  13.373  3.0374 -2.5253  0.5511
  963TIP3    H224305   6.594   0.141  13.483  0.3396 -1.9536 -1.4569
  964TIP3   OH224306   6.330   4.192  16.739 -0.1707  0.5552 -0.0457
  964TIP3    H124307   6.393   4.123  16.719  0.2477  1.1282 -0.7469
  964TIP3    H224308   6.381   4.273  16.737 -0.7799  0.9538  0.1171
  965TIP3   OH224309   2.591   2.877   1.871  0.0672 -0.1224  0.4376
  965TIP3    H124310   2.642   2.906   1.946 -1.8453 -2.2668  2.7465
  965TIP3    H224311   2.616   2.785   1.859  0.4353  0.1899 -1.7333
  966TIP3   OH224312   5.455   4.465  14.244 -0.0653 -0.9731  0.1361
  966TIP3    H124313   5.515   4.475  14.318  0.9598 -0.9543 -0.6627
  966TIP3    H224314   5.443   4.371  14.235 -1.4469 -0.9358  1.2679
  967TIP3   OH224315   2.170   6.216   4.717  0.3824 -0.3146 -0.0044
  967TIP3    H124316   2.157   6.132   4.761  1.1330 -0.4504 -0.0345
  967TIP3    H224317   2.200   6.275   4.786 -0.2356 -0.0404  0.0360
  968TIP3   OH224318   0.144   1.945   4.010 -0.0758 -0.0859  0.0791
  968TIP3    H124319   0.199   1.869   3.992 -1.6667 -1.7723  1.8166
  968TIP3    H224320   0.204   2.019   4.009  1.7178 -1.4596 -0.7327
  969TIP3   OH224321   3.551   1.098   2.222  0.2027  0.5899 -0.4774
  969TIP3    H124322   3.621   1.063   2.278 -0.3842 -0.3651 -0.3150
  969TIP3    H224323   3.558   1.193   2.230 -0.6030  0.4860  2.1720
  970TIP3   OH224324   1.923   2.097  10.600 -0.1432  0.2739 -0.0246
  970TIP3    H124325   1.844   2.142  10.574  1.2137  1.7076 -1.9062
  970TIP3    H224326   1.945   2.041  10.525  0.2285 -0.7182  0.7904
  971TIP3   OH224327   6.586   4.047  11.159  0.3580 -0.2892  0.1577
  971TIP3    H124328   6.566   3.972  11.104  1.9755 -1.3392  0.9398
  971TIP3    H224329   6.535   4.032  11.239 -0.6154  0.3360 -0.3214
  972TIP3   OH224330   0.606   1.498   5.015 -0.2237 -0.4032  0.1764
  972TIP3    H124331   0.619   1.526   4.924  0.8285  2.8898  1.1970
  972TIP3    H224332   0.514   1.515   5.032  0.0711  1.2442  0.3246
  973TIP3   OH224333   1.350   6.115  13.559  0.2949  0.3524 -0.0423
  973TIP3    H124334   1.433   6.132  13.604  0.9403  0.0057 -1.0650
  973TIP3    H224335   1.292   6.080  13.627  0.1396  2.9280  1.2813
  974TIP3   OH224336   6.065   6.779   0.360  0.4537 -0.3706  0.0637
  974TIP3    H124337   6.021   6.699   0.390  1.0677 -0.8300 -0.2340
  974TIP3    H224338   6.058   6.776   0.265  3.1207 -1.6788 -0.1899
  975TIP3   OH224339   6.722   3.721   3.229 -0.3784  0.7551  0.2260
  975TIP3    H124340   6.669   3.653   3.271 -0.9873  0.1489 -1.4564
  975TIP3    H224341   6.661   3.768   3.173  0.6261  0.7862 -0.8737
  976TIP3   OH224342   2.008   2.970   6.375  0.9675 -0.0267 -0.4743
  976TIP3    H124343   1.943   2.900   6.365  0.9455 -0.1593  0.4537
  976TIP3    H224344   2.078   2.930   6.426  0.8308  0.6847  0.3027
  977TIP3   OH224345   0.710   1.573   6.179  0.3817 -0.5120  0.6690
  977TIP3    H124346   0.758   1.508   6.231  0.5311 -0.8676  0.0956
  977TIP3    H224347   0.627   1.584   6.226  0.6575 -0.5619  1.1772
  978TIP3   OH224348   0.189   2.622   5.227 -0.4912  0.3482 -0.1287
  978TIP3    H124349   0.217   2.603   5.316  1.8687 -0.5633 -0.9695
  978TIP3    H224350   0.254   2.683   5.193 -0.4759 -0.4449 -1.6507
  979TIP3   OH224351   3.743   1.032  14.741 -1.2620 -0.4210  0.4298
  979TIP3    H124352   3.659   1.070  14.716 -0.8389  1.1423  1.2628
  979TIP3    H224353   3.744   1.036  14.836 -0.4056 -0.8006  0.4418
  980TIP3   OH224354   4.898   0.429  11.944 -0.1791 -0.0533 -0.1602
  980TIP3    H124355   4.860   0.509  11.980 -0.5741 -1.2301  2.2817
  980TIP3    H224356   4.823   0.378  11.915 -0.2552 -0.8756  1.3650
  981TIP3   OH224357   2.263   1.432   1.100  0.0383 -0.2407 -0.4005
  981TIP3    H124358   2.351   1.425   1.063  0.2077 -0.2578  0.0003
  981TIP3    H224359   2.277   1.435   1.195 -0.3203  0.7826 -0.3639
  982TIP3   OH224360   6.278   1.664  14.896 -0.9384 -0.2712 -0.1063
  982TIP3    H124361   6.352   1.638  14.951 -1.0355  1.5739  0.9707
  982TIP3    H224362   6.319   1.703  14.818 -0.7958 -0.5793 -0.1890
  983TIP3   OH224363   5.354   2.836   3.925  0.2240 -0.0116 -0.7450
  983TIP3    H124364   5.304   2.796   3.996  0.6863 -1.1084 -1.0114
  983TIP3    H224365   5.435   2.784   3.921  0.3635  0.2710 -1.8261
  984TIP3   OH224366   4.463   4.741  14.864  0.4679 -0.2133  0.0311
  984TIP3    H124367   4.554   4.770  14.859 -0.0007  2.0862  2.6595
  984TIP3    H224368   4.414   4.820  14.884 -1.6864 -1.9187  1.9634
  985TIP3   OH224369   1.390   6.726  12.970  0.2103  0.1697 -0.2150
  985TIP3    H124370   1.332   6.662  12.929  0.4620 -0.7257  0.7884
  985TIP3    H224371   1.478   6.694  12.949  0.3557  0.9596 -0.8623
  986TIP3   OH224372   3.988   3.109  12.421 -0.1730 -0.0539 -0.7317
  986TIP3    H124373   3.981   3.019  12.388 -1.6608  0.1994 -1.1880
  986TIP3    H224374   4.004   3.162  12.343  1.2176  0.0433 -0.4017
  987TIP3   OH224375   3.269   3.752   0.010 -0.3825 -0.1041 -0.0251
  987TIP3    H124376   3.234   3.775   0.096 -1.6163 -3.3264  0.4991
  987TIP3    H224377   3.324   3.676   0.026  2.6438  1.5414 -1.6652
  988TIP3   OH224378   5.642   1.399  13.772 -0.2279 -0.0313 -0.7819
  988TIP3    H124379   5.576   1.466  13.756 -0.1947 -0.1873 -1.6154
  988TIP3    H224380   5.654   1.400  13.867 -0.5185  0.8622 -0.7391
  989TIP3   OH224381   6.544   6.285   3.013 -0.3149 -0.8173  0.2602
  989TIP3    H124382   6.586   6.330   2.940 -1.7225 -1.5716 -1.0837
  989TIP3    H224383   6.484   6.349   3.050 -0.3291 -0.7436  0.1087
  990TIP3   OH224384   4.192   6.351  16.012 -0.4783  0.0836 -0.0874
  990TIP3    H124385   4.153   6.393  16.088 -0.1169 -0.1550  0.2310
  990TIP3    H224386   4.143   6.386  15.937 -0.8071  0.3450  0.2492
  991TIP3   OH224387   1.049   5.405  15.617 -0.4567  0.3465 -0.1536
  991TIP3    H124388   0.964   5.400  15.662  0.0157 -1.2579  0.6342
  991TIP3    H224389   1.112   5.376  15.683  0.1709 -3.0905 -2.0512
  992TIP3   OH224390   0.246   4.817  16.510  0.3557 -0.4170  0.0403
  992TIP3    H124391   0.307   4.879  16.551  2.0972  0.3971 -3.4044
  992TIP3    H224392   0.197   4.871  16.446  0.2521 -2.1323 -1.4014
  993TIP3   OH224393   2.248   2.583   5.159 -0.4255 -0.0565 -0.3872
  993TIP3    H124394   2.226   2.492   5.180 -0.4470  0.5984  3.0291
  993TIP3    H224395   2.337   2.594   5.193 -1.1387  1.6491  1.0840
  994TIP3   OH224396   5.222   4.988  14.828 -0.4434  0.5730  0.3039
  994TIP3    H124397   5.187   4.900  14.813 -0.1242  0.5837 -0.6018
  994TIP3    H224398   5.222   5.029  14.742  2.5010  0.2822  0.0534
  995TIP3   OH224399   1.963   2.455  10.792  0.5842 -0.5038 -0.4661
  995TIP3    H124400   1.992   2.545  10.806  1.0813 -0.7550  0.1718
  995TIP3    H224401   1.906   2.436  10.867 -0.4054 -0.3657 -1.1625
  996TIP3   OH224402   4.077   1.772  12.001  0.1024 -0.6141 -0.4164
  996TIP3    H124403   4.086   1.785  12.095 -0.2711 -1.1936 -0.2932
  996TIP3    H224404   3.987   1.742  11.989  0.5333 -1.8302 -0.8008
  997TIP3   OH224405   6.531   5.863  15.534 -0.5976  0.2186  0.0729
  997TIP3    H124406   6.552   5.820  15.617  0.5497 -0.8811 -0.7490
  997TIP3    H224407   6.478   5.798  15.487  1.1591 -0.3692 -1.1873
  998TIP3   OH224408   3.341   3.558   0.589 -0.2666 -0.5980 -0.4799
  998TIP3    H124409   3.364   3.648   0.565 -1.0732 -0.8073 -2.1641
  998TIP3    H224410   3.355   3.555   0.684 -1.6544  1.7400 -0.1008
  999TIP3   OH224411   5.467   2.863   1.936  0.0033 -0.2361  0.3984
  999TIP3    H124412   5.541   2.842   1.994 -0.6813 -0.7992  1.0868
  999TIP3    H224413   5.433   2.778   1.909  0.2410  0.0225 -0.7632
 1000TIP3   OH224414   5.804   5.455   0.911 -0.2247 -0.4642 -0.6497
 1000TIP3    H124415   5.797   5.387   0.978 -0.4668 -1.9065 -2.0792
 1000TIP3    H224416   5.853   5.526   0.954  1.5698 -2.2211  0.3828
 1001TIP3   OH224417   2.835   1.709  11.885 -0.5174 -0.2363 -0.2659
 1001TIP3    H124418   2.791   1.644  11.829  0.8019  0.2893 -2.0067
 1001TIP3    H224419   2.925   1.711  11.853 -0.4432  2.2783 -0.0864
 1002TIP3   OH224420   0.752   4.800  16.493 -0.6436 -0.9765 -0.7450
 1002TIP3    H124421   0.697   4.805  16.415  0.5333 -0.5134 -1.5819
 1002TIP3    H224422   0.815   4.731  16.473 -0.7382 -1.3100  0.0820
 1003TIP3   OH224423   4.374   2.438  15.384  0.0545  0.5375  0.4038
 1003TIP3    H124424   4.408   2.526  15.367  0.3114  0.3320 -0.1720
 1003TIP3    H224425   4.399   2.388  15.306 -1.1007  0.2499  0.2029
 1004TIP3   OH224426   5.114   3.400  13.545  0.1652 -0.0845  0.0801
 1004TIP3    H124427   5.091   3.475  13.490 -1.1836  0.2166  1.0088
 1004TIP3    H224428   5.166   3.438  13.616  2.7428 -0.6032 -1.3999
 1005TIP3   OH224429   3.674   2.212   0.291 -0.3015 -0.0069 -0.0900
 1005TIP3    H124430   3.724   2.237   0.368 -0.8489  1.3038 -0.1350
 1005TIP3    H224431   3.679   2.116   0.288  2.6360  0.0852 -0.4087
 1006TIP3   OH224432   2.653   4.236  15.790 -0.1822  0.0152  0.3845
 1006TIP3    H124433   2.713   4.166  15.816  1.3150  1.0313 -0.1844
 1006TIP3    H224434   2.626   4.277  15.872 -0.2210 -0.5521  0.6556
 1007TIP3   OH224435   5.394   6.387   0.467  0.2237  0.2575 -0.1204
 1007TIP3    H124436   5.441   6.308   0.493 -0.1296  0.2501  0.5164
 1007TIP3    H224437   5.393   6.442   0.546 -0.7617  0.2859 -0.1327
 1008TIP3   OH224438   5.893   1.585   1.940  0.4504 -0.2390  0.1236
 1008TIP3    H124439   5.920   1.499   1.908  0.0241  0.2881 -1.7684
 1008TIP3    H224440   5.798   1.579   1.950  0.1752  0.4754 -1.6883
 1009TIP3   OH224441   0.976   2.387   0.796  0.3974 -0.0197  0.0751
 1009TIP3    H124442   1.006   2.421   0.881 -0.6579 -0.1557  0.5043
 1009TIP3    H224443   0.935   2.463   0.754 -1.0777 -0.4970  0.6230
 1010TIP3   OH224444   5.486   1.305  10.659 -0.5947 -0.0187 -0.2385
 1010TIP3    H124445   5.549   1.322  10.729 -0.3908  3.9708 -1.1802
 1010TIP3    H224446   5.416   1.255  10.703  1.9378 -2.4657  1.3858
 1011TIP3   OH224447   2.402   3.595   5.180 -0.0485 -0.1889  0.3040
 1011TIP3    H124448   2.403   3.599   5.085 -0.3433  0.8360  0.3295
 1011TIP3    H224449   2.309   3.602   5.203  0.1044  0.6178  0.6929
 1012TIP3   OH224450   1.724   2.355   3.207 -0.4542 -0.4058  0.1253
 1012TIP3    H124451   1.797   2.413   3.184 -0.0591 -0.8630  0.2272
 1012TIP3    H224452   1.653   2.383   3.149 -0.7896  1.2467  1.2473
 1013TIP3   OH224453   3.315   6.062   2.924 -0.0497  0.3774 -0.2250
 1013TIP3    H124454   3.229   6.035   2.892  0.8153 -2.4392 -0.3651
 1013TIP3    H224455   3.373   6.055   2.848  0.8294 -0.4710  0.5033
 1014TIP3   OH224456   0.029   1.040   4.607  0.7686 -0.6109 -0.2464
 1014TIP3    H124457   0.079   1.052   4.526  0.2750  0.9296 -0.3734
 1014TIP3    H224458  -0.028   0.965   4.589 -0.1513  0.3792 -1.8118
 1015TIP3   OH224459   3.346   0.646  11.822  0.5256 -0.3835 -0.1131
 1015TIP3    H124460   3.258   0.622  11.792 -0.4732  1.0238  1.4873
 1015TIP3    H224461   3.340   0.739  11.843  3.1772  0.4617 -2.4896
 1016TIP3   OH224462   5.106   5.618  17.082 -0.6048  0.7154  0.2942
 1016TIP3    H124463   5.083   5.605  17.174  2.7416  2.4320  1.5362
 1016TIP3    H224464   5.182   5.563  17.067 -1.7144 -0.3599 -1.8466
 1017TIP3   OH224465   0.719   1.403   2.494  0.6067  0.0678 -0.3667
 1017TIP3    H124466   0.647   1.340   2.496  0.3542  0.3521 -0.3065
 1017TIP3    H224467   0.794   1.354   2.460 -0.0228  0.1865 -2.0240
 1018TIP3   OH224468   5.170   6.021   0.571 -0.2901 -0.5388 -0.0689
 1018TIP3    H124469   5.171   6.093   0.634  1.8924  0.3734 -1.0346
 1018TIP3    H224470   5.090   5.972   0.591 -1.5889  1.8486  0.9576
 1019TIP3   OH224471   4.167   4.033  14.022  0.0837 -0.7087  0.4691
 1019TIP3    H124472   4.134   4.045  13.933  0.6540  0.5339  0.4074
 1019TIP3    H224473   4.161   3.939  14.037 -1.4134 -0.7738 -0.3354
 1020TIP3   OH224474   2.738   2.064  16.265  0.1265  0.9531  0.0979
 1020TIP3    H124475   2.673   2.122  16.226  0.8026  3.3987  2.3708
 1020TIP3    H224476   2.700   2.037  16.348  1.1853  0.7832  0.5450
 1021TIP3   OH224477   5.779   2.252   1.927  0.0270  0.2350  0.2746
 1021TIP3    H124478   5.749   2.207   1.849 -1.3982  1.7361 -0.0849
 1021TIP3    H224479   5.715   2.322   1.942  0.7033  0.5071  2.3118
 1022TIP3   OH224480   6.132   1.674  16.908  0.8626  0.4370  0.7931
 1022TIP3    H124481   6.161   1.630  16.828  0.3079 -0.5909  1.1363
 1022TIP3    H224482   6.153   1.766  16.894 -0.8017  0.5653 -1.2633
 1023TIP3   OH224483   0.321   3.580  15.919  0.4433 -0.4480  0.7252
 1023TIP3    H124484   0.313   3.486  15.903  1.7235 -0.7186  1.5102
 1023TIP3    H224485   0.370   3.586  16.001 -0.2807  0.9076  1.0895
 1024TIP3   OH224486   5.668   3.422  11.430  0.1511  0.4839  0.2469
 1024TIP3    H124487   5.705   3.428  11.518  1.2755  0.3374 -0.2064
 1024TIP3    H224488   5.620   3.504  11.418 -1.1632 -0.0592  1.4917
 1025TIP3   OH224489   6.702   4.357  14.527 -0.0582 -0.0710 -0.5647
 1025TIP3    H124490   6.714   4.285  14.465  0.0183 -0.5132 -0.0460
 1025TIP3    H224491   6.778   4.414  14.513  0.1756 -0.3868 -0.5839
 1026TIP3   OH224492   6.807   5.792  12.890  0.5138 -0.4341  0.3003
 1026TIP3    H124493   6.761   5.857  12.837 -2.0028 -1.3257  1.2327
 1026TIP3    H224494   6.802   5.711  12.839  3.4507 -0.0335 -0.7637
 1027TIP3   OH224495   2.720   2.245   2.825  0.2072  0.3706  0.4449
 1027TIP3    H124496   2.747   2.311   2.889  1.1460  1.2907 -0.8392
 1027TIP3    H224497   2.765   2.270   2.745  2.4452 -3.1278  0.4025
 1028TIP3   OH224498   1.816   0.680   2.068  1.0036 -0.2194 -0.1622
 1028TIP3    H124499   1.730   0.721   2.066 -0.3370 -2.7667  0.7878
 1028TIP3    H224500   1.825   0.639   1.982  1.3787  0.2442 -0.3453
 1029TIP3   OH224501   2.392   2.047  13.749 -0.4640  0.0467 -0.3126
 1029TIP3    H124502   2.391   1.952  13.759  0.7388  0.0502  0.0474
 1029TIP3    H224503   2.303   2.074  13.769 -1.6106 -1.2219 -3.0882
 1030TIP3   OH224504   3.732   3.853   4.183 -0.3284 -0.1929 -0.2298
 1030TIP3    H124505   3.710   3.914   4.112 -2.0401  0.4790  0.8197
 1030TIP3    H224506   3.817   3.883   4.214 -1.5692  2.4843  0.9886
 1031TIP3   OH224507   0.387   2.884  13.909  0.0475 -0.0282 -0.1098
 1031TIP3    H124508   0.291   2.890  13.901  0.0885 -0.2571 -0.7864
 1031TIP3    H224509   0.403   2.895  14.003 -0.7466 -1.3598  0.2040
 1032TIP3   OH224510   2.814   5.527  16.399  0.2774  0.5702 -0.0684
 1032TIP3    H124511   2.763   5.505  16.476  1.1663  1.1466  0.7125
 1032TIP3    H224512   2.905   5.517  16.427  0.6350  1.6620 -0.7663
 1033TIP3   OH224513   6.403   4.233  13.698 -0.0719  0.3221 -0.5423
 1033TIP3    H124514   6.438   4.267  13.616 -0.1759  1.6795 -0.0562
 1033TIP3    H224515   6.414   4.306  13.760  1.2886 -1.1265  1.0154
 1034TIP3   OH224516   0.265   6.089  13.900  0.3657 -0.4559 -0.3888
 1034TIP3    H124517   0.273   6.105  13.994  0.6126 -0.7127 -0.3633
 1034TIP3    H224518   0.182   6.130  13.875  0.9011  0.7269 -0.3007
 1035TIP3   OH224519   2.430   4.218   0.422 -0.1512  0.6827 -0.2981
 1035TIP3    H124520   2.368   4.153   0.457  1.0587 -1.5541 -1.9824
 1035TIP3    H224521   2.381   4.263   0.353 -0.6424  0.6315  0.0160
 1036TIP3   OH224522   2.072   5.197  15.076  0.4635  0.1604  0.1588
 1036TIP3    H124523   2.148   5.155  15.116  0.2208 -0.8535 -0.4230
 1036TIP3    H224524   2.010   5.126  15.060 -0.7389  0.9991  0.8670
 1037TIP3   OH224525   1.260   4.969  11.048 -0.3362  0.0682 -0.1814
 1037TIP3    H124526   1.310   5.049  11.029  0.0042 -0.3469 -1.0748
 1037TIP3    H224527   1.319   4.898  11.026 -0.5096 -0.4499  0.9531
 1038TIP3   OH224528   2.568   2.629   3.730  0.0226  0.1827  0.6646
 1038TIP3    H124529   2.552   2.548   3.681 -0.4892  1.2709 -1.0320
 1038TIP3    H224530   2.499   2.630   3.797 -0.2290 -0.5624  0.4318
 1039TIP3   OH224531   1.031   0.821   2.107  0.0502 -0.2880  0.1380
 1039TIP3    H124532   1.045   0.823   2.012  1.7872 -1.8539  0.2982
 1039TIP3    H224533   1.071   0.903   2.139 -0.8889  0.4319 -0.4890
 1040TIP3   OH224534   2.289   1.624  12.256 -0.2996  0.4787  0.1152
 1040TIP3    H124535   2.237   1.544  12.256 -0.9625  0.8789 -0.9399
 1040TIP3    H224536   2.304   1.642  12.163  0.5470  1.1265  0.3665
 1041TIP3   OH224537   5.900   3.546  10.838  0.0618  0.5716  0.1556
 1041TIP3    H124538   5.904   3.561  10.743  1.6464  1.1380  0.2822
 1041TIP3    H224539   5.893   3.451  10.846 -0.4320  0.5386 -0.5235
 1042TIP3   OH224540   1.223   3.213   0.185 -0.8515 -0.2316 -0.1091
 1042TIP3    H124541   1.233   3.120   0.164  1.2814 -0.5555  1.9248
 1042TIP3    H224542   1.312   3.247   0.187 -1.5355  1.6701  0.0223
 1043TIP3   OH224543   0.466   1.846   2.472  0.1297 -0.1876  0.0118
 1043TIP3    H124544   0.396   1.781   2.482  0.2568 -0.2817  0.3117
 1043TIP3    H224545   0.427   1.928   2.502  0.3896 -0.3943  0.9394
 1044TIP3   OH224546   2.457   5.436  11.568  0.4550  0.1745  0.5146
 1044TIP3    H124547   2.547   5.408  11.583  0.1940 -0.8017  0.3175
 1044TIP3    H224548   2.465   5.525  11.534  1.4544 -0.5826 -1.3711
 1045TIP3   OH224549   3.632   6.480   0.646 -0.6175 -0.5188 -0.3524
 1045TIP3    H124550   3.615   6.540   0.718 -0.8827 -0.4866 -0.4381
 1045TIP3    H224551   3.625   6.534   0.567 -2.0739 -0.8794 -0.5104
 1046TIP3   OH224552   3.461   4.558   0.757  0.0445 -0.3127 -0.1693
 1046TIP3    H124553   3.414   4.501   0.818  0.5282  0.2529  0.7524
 1046TIP3    H224554   3.409   4.639   0.755  0.3897 -0.0882  0.0009
 1047TIP3   OH224555   3.073   5.128   1.408 -0.3726 -0.0337  0.2520
 1047TIP3    H124556   3.146   5.186   1.427  0.3012 -1.1311  1.1148
 1047TIP3    H224557   3.009   5.145   1.477 -0.0600 -0.4896  0.6605
 1048TIP3   OH224558   0.552   6.013  15.614 -0.3193 -0.7628 -0.0411
 1048TIP3    H124559   0.503   5.982  15.691 -0.8469  0.7569  0.2738
 1048TIP3    H224560   0.642   6.024  15.647 -0.1591 -1.7317 -0.1141
 1049TIP3   OH224561   0.778   6.685   3.161  0.6046 -0.0489 -0.1296
 1049TIP3    H124562   0.746   6.595   3.167  0.1962  0.1346  0.6070
 1049TIP3    H224563   0.751   6.725   3.244  1.5064  0.5169 -0.0970
 1050TIP3   OH224564   1.196   0.045  12.654 -0.2137  0.2957 -0.1911
 1050TIP3    H124565   1.225   0.135  12.668 -1.4048  0.4530  1.6710
 1050TIP3    H224566   1.153   0.047  12.569  1.2283  1.0712 -0.9328
 1051TIP3   OH224567   6.372   0.689  13.642 -0.4309 -0.1257 -0.4063
 1051TIP3    H124568   6.311   0.714  13.712  0.8455 -0.3771  0.8376
 1051TIP3    H224569   6.391   0.597  13.659  0.1240 -0.1081 -0.9215
 1052TIP3   OH224570   6.688   4.524  11.322 -0.3107  0.5837  0.0879
 1052TIP3    H124571   6.601   4.486  11.336 -0.4736 -0.8682 -3.7207
 1052TIP3    H224572   6.733   4.461  11.266  2.6183  2.1124  0.5460
 1053TIP3   OH224573   0.321   0.383  13.036  0.1340  0.1583  0.1825
 1053TIP3    H124574   0.283   0.326  13.104 -0.0858 -0.7095 -0.6404
 1053TIP3    H224575   0.285   0.470  13.055 -0.3922 -0.1878  0.8258
 1054TIP3   OH224576   2.482   3.876   1.462  0.2235 -0.9907 -0.4131
 1054TIP3    H124577   2.420   3.886   1.390 -0.7295 -0.5191  0.4540
 1054TIP3    H224578   2.553   3.937   1.440 -0.6595  0.0856 -0.3281
 1055TIP3   OH224579   1.108   2.436  11.487  0.0018 -0.4861  0.6018
 1055TIP3    H124580   1.014   2.424  11.499 -0.2795  0.9241 -0.0847
 1055TIP3    H224581   1.123   2.417  11.394  0.3958 -0.6498  0.6945
 1056TIP3   OH224582   0.198   1.628  12.886 -0.5362 -0.0916  0.3621
 1056TIP3    H124583   0.166   1.578  12.811  0.2515 -1.3295  0.8207
 1056TIP3    H224584   0.120   1.673  12.920 -1.3131 -1.1747  0.0598
 1057TIP3   OH224585   3.879   5.816   5.662  0.8810  0.4926  0.2669
 1057TIP3    H124586   3.962   5.864   5.665  0.0685  2.1077 -1.0725
 1057TIP3    H224587   3.820   5.867   5.717  0.6896 -0.5340  1.0484
 1058TIP3   OH224588   3.084   5.997  11.674 -0.7672 -0.1436 -0.5567
 1058TIP3    H124589   3.172   5.959  11.662 -1.0714 -0.6666 -1.2269
 1058TIP3    H224590   3.066   5.987  11.768 -0.1358 -0.0783 -0.4237
 1059TIP3   OH224591   3.055   3.296   0.950  0.0038  0.0402  0.2498
 1059TIP3    H124592   2.975   3.256   0.984 -0.2657  0.8599  0.5931
 1059TIP3    H224593   3.030   3.385   0.928  0.6352  0.0725 -0.3787
 1060TIP3   OH224594   2.436   1.382  10.475  0.3593 -0.6250  0.1201
 1060TIP3    H124595   2.529   1.375  10.454  0.5917  1.1505  0.4252
 1060TIP3    H224596   2.401   1.295  10.457  1.5706 -0.6640 -2.4430
 1061TIP3   OH224597   6.651   2.203  16.153 -0.7106  0.3248 -0.2033
 1061TIP3    H124598   6.626   2.205  16.245  2.0239 -2.0812  0.7529
 1061TIP3    H224599   6.605   2.127  16.117 -1.8875  1.3404 -0.9410
 1062TIP3   OH224600   5.679   6.269  12.614  0.2096  0.1732 -0.4361
 1062TIP3    H124601   5.686   6.363  12.603  1.5624  0.2092  0.4319
 1062TIP3    H224602   5.768   6.237  12.599  0.4217 -0.6253  2.0762
 1063TIP3   OH224603   3.612   0.799   0.260  0.2083 -0.3148  0.3662
 1063TIP3    H124604   3.538   0.737   0.264  0.4565 -0.6137  0.3634
 1063TIP3    H224605   3.690   0.743   0.262  0.4764 -0.3148 -3.0242
 1064TIP3   OH224606   0.910   3.582   5.903  0.4671 -0.1292 -0.1478
 1064TIP3    H124607   0.964   3.533   5.965  2.7620  1.3335 -0.8874
 1064TIP3    H224608   0.903   3.525   5.826  0.2754 -0.6452  0.2464
 1065TIP3   OH224609   6.305   6.051  16.878 -0.0728 -0.0574  0.1909
 1065TIP3    H124610   6.338   6.050  16.968  1.8514 -2.4211 -0.4340
 1065TIP3    H224611   6.310   6.143  16.852  1.5848  0.3667  1.7598
 1066TIP3   OH224612   6.103   5.311   1.992  0.1308 -0.3768 -0.5641
 1066TIP3    H124613   6.030   5.252   1.976 -0.9805  1.1301 -1.2441
 1066TIP3    H224614   6.107   5.318   2.088 -1.6271  0.7182 -0.5403
 1067TIP3   OH224615   6.437   3.536  13.116  0.0647  0.4043 -0.6404
 1067TIP3    H124616   6.390   3.465  13.070 -0.9933  1.7833 -1.7974
 1067TIP3    H224617   6.528   3.525  13.089  0.0015 -0.7743 -0.4474
 1068TIP3   OH224618   2.604   0.955   2.969 -0.2027  0.2197  0.6541
 1068TIP3    H124619   2.673   1.021   2.956 -1.1139  1.0941  0.0764
 1068TIP3    H224620   2.638   0.876   2.926 -0.5186  1.2991 -1.7760
 1069TIP3   OH224621   0.371   0.818  11.247 -0.6850  0.0097  0.4571
 1069TIP3    H124622   0.302   0.880  11.226  0.5751  2.3930  2.7126
 1069TIP3    H224623   0.440   0.835  11.183 -1.1506 -0.5721 -0.2123
 1070TIP3   OH224624   6.591   4.057   1.081  0.3747  0.2934  0.1438
 1070TIP3    H124625   6.657   4.002   1.124  0.9221  1.5303  0.9496
 1070TIP3    H224626   6.508   4.031   1.123  0.1583 -1.7913 -1.3894
 1071TIP3   OH224627   4.454   3.643  13.641  0.2634  0.2120 -0.0022
 1071TIP3    H124628   4.472   3.731  13.673 -1.3844  1.1742 -1.5180
 1071TIP3    H224629   4.403   3.601  13.711  1.2110  0.3778  0.7980
 1072TIP3   OH224630   6.294   1.193   2.910  0.6864  0.6885  0.3803
 1072TIP3    H124631   6.323   1.241   2.987 -1.3500  1.4324  0.7415
 1072TIP3    H224632   6.239   1.255   2.862  0.2849 -0.4015 -0.6221
 1073TIP3   OH224633   4.005   0.320  11.999  0.2426 -0.2107 -0.2782
 1073TIP3    H124634   3.971   0.391  12.054 -1.3416 -0.5821 -0.7425
 1073TIP3    H224635   4.071   0.278  12.054  0.9920  1.4077  0.1240
 1074TIP3   OH224636   6.210   5.585  15.868  0.5678 -0.0872  0.1813
 1074TIP3    H124637   6.118   5.572  15.894  1.2316 -0.9360  2.3685
 1074TIP3    H224638   6.222   5.525  15.795 -0.6822  0.2430 -0.3314
 1075TIP3   OH224639   0.333   0.963   3.434 -0.2642  0.0665 -0.3754
 1075TIP3    H124640   0.320   1.005   3.519 -2.1064 -1.2479  0.0543
 1075TIP3    H224641   0.381   1.028   3.382  0.8729  0.9087  1.6225
 1076TIP3   OH224642   4.310   0.769   0.198 -0.2413  0.1717  0.0339
 1076TIP3    H124643   4.372   0.796   0.131 -1.8016  1.0758 -1.1026
 1076TIP3    H224644   4.290   0.849   0.246  1.4589 -0.5831  2.1957
 1077TIP3   OH224645   5.479   4.185   0.064  0.1299  0.4539  0.1749
 1077TIP3    H124646   5.444   4.096   0.065 -0.0725  0.5344  0.3397
 1077TIP3    H224647   5.409   4.238   0.026  0.4653  0.4538 -0.4473
 1078TIP3   OH224648   6.252   5.658   0.235  0.3285 -0.4407  0.1025
 1078TIP3    H124649   6.294   5.595   0.293  1.7319  1.1968  0.9653
 1078TIP3    H224650   6.324   5.701   0.190 -0.6841 -0.9011 -2.1121
 1079TIP3   OH224651   2.571   2.940   5.802 -0.1423  0.2427  0.4520
 1079TIP3    H124652   2.571   2.927   5.897 -0.1117  0.7470  0.5224
 1079TIP3    H224653   2.480   2.960   5.780 -0.5374 -1.7336  0.1042
 1080TIP3   OH224654   6.433   1.172  14.503  0.1659  0.3280  0.4667
 1080TIP3    H124655   6.391   1.091  14.534  0.9417 -0.6280 -0.8767
 1080TIP3    H224656   6.527   1.155  14.512  0.3662  0.5703 -1.0154
 1081TIP3   OH224657   2.273   2.777   1.661  0.5416 -0.1478 -0.2685
 1081TIP3    H124658   2.275   2.862   1.706  2.3421  0.2225 -0.9609
 1081TIP3    H224659   2.226   2.795   1.580 -1.5965 -0.5203  0.8339
 1082TIP3   OH224660   5.864   4.933   5.947  0.2566  0.3198  0.1054
 1082TIP3    H124661   5.800   4.996   5.979 -0.9297 -0.8824  0.2113
 1082TIP3    H224662   5.906   4.977   5.874 -0.7625  1.1356 -0.0181
 1083TIP3   OH224663   6.491   5.960   0.382 -0.1470 -0.1083 -0.2584
 1083TIP3    H124664   6.447   5.916   0.454  1.2375 -0.8863  0.1544
 1083TIP3    H224665   6.491   5.896   0.311  0.1818 -0.0662 -0.3001
 1084TIP3   OH224666   1.460   0.768  16.011  0.3092 -0.0191 -0.0473
 1084TIP3    H124667   1.498   0.782  15.924 -2.2142 -3.4922 -1.9883
 1084TIP3    H224668   1.518   0.705  16.053 -1.3267 -2.8487 -1.7268
 1085TIP3   OH224669   5.157   4.995   4.029 -0.3196  0.0764 -0.2411
 1085TIP3    H124670   5.069   5.016   4.062 -0.2692  0.5729 -0.4187
 1085TIP3    H224671   5.155   5.020   3.937  0.2769  0.9227 -0.0335
 1086TIP3   OH224672   2.970   4.282   1.757  0.1201 -0.1576 -0.3931
 1086TIP3    H124673   3.047   4.242   1.716  0.2813  1.3707 -1.6819
 1086TIP3    H224674   3.002   4.314   1.841  0.6738 -0.3568 -0.5206
 1087TIP3   OH224675   4.079   6.455  12.294 -0.8727 -0.2544  0.1578
 1087TIP3    H124676   4.024   6.419  12.364 -0.2287 -1.3326  0.1263
 1087TIP3    H224677   4.116   6.535  12.331  0.8844 -1.7175  1.7573
 1088TIP3   OH224678   2.582   4.819  15.456  0.2885 -0.7253 -0.0435
 1088TIP3    H124679   2.668   4.841  15.418 -0.1284 -1.4970 -1.5133
 1088TIP3    H224680   2.594   4.831  15.550  1.7006  0.2147 -0.3015
 1089TIP3   OH224681   3.709   6.041   5.058  0.4620 -0.5637 -0.8539
 1089TIP3    H124682   3.763   6.096   5.001  2.3318 -0.9600  0.4304
 1089TIP3    H224683   3.662   6.103   5.114 -1.5182 -0.1646 -2.8039
 1090TIP3   OH224684   1.204   6.761   3.869 -0.3396 -0.4228  0.1982
 1090TIP3    H124685   1.264   6.833   3.852  0.6817 -1.3393 -0.2060
 1090TIP3    H224686   1.173   6.776   3.958 -0.3350  0.6302  0.0351
 1091TIP3   OH224687   6.234   5.280   4.806 -0.4325 -0.4597 -0.2339
 1091TIP3    H124688   6.270   5.194   4.830  0.5704 -0.4739 -1.6584
 1091TIP3    H224689   6.157   5.259   4.754 -1.3368 -0.4406  1.0318
 1092TIP3   OH224690   4.934   2.691   1.703  0.2984 -0.0266  0.2105
 1092TIP3    H124691   4.905   2.777   1.672 -0.2340 -1.4035 -3.6348
 1092TIP3    H224692   4.856   2.654   1.745 -0.5182  0.1339 -1.0992
 1093TIP3   OH224693   3.011   0.661  14.312 -0.2869  0.3105  0.0882
 1093TIP3    H124694   2.956   0.584  14.295  0.0441  0.4286 -1.6345
 1093TIP3    H224695   3.100   0.629  14.301 -0.1049  0.7028  0.4213
 1094TIP3   OH224696   4.497   2.907   4.618 -0.9349  0.3704 -0.4439
 1094TIP3    H124697   4.518   2.882   4.708  2.6138  0.0799 -1.2081
 1094TIP3    H224698   4.405   2.933   4.621 -1.4873 -1.4844  2.8234
 1095TIP3   OH224699   5.084   4.970   2.317  0.1270 -0.6418  0.1440
 1095TIP3    H124700   5.055   4.988   2.407 -0.4834 -1.9198  0.2254
 1095TIP3    H224701   5.135   5.048   2.292 -0.1917 -0.0121  1.3763
 1096TIP3   OH224702   6.271   1.766   2.004  0.3338 -0.0697 -0.1672
 1096TIP3    H124703   6.287   1.703   1.933  2.3722 -0.5616  0.6513
 1096TIP3    H224704   6.355   1.773   2.049 -0.3540  1.8165  0.9487
 1097TIP3   OH224705   2.519   3.429  13.864  0.2656  0.3186 -0.1621
 1097TIP3    H124706   2.484   3.389  13.944  0.0609  0.2142 -0.3000
 1097TIP3    H224707   2.505   3.362  13.797  1.9561 -0.2681  0.0278
 1098TIP3   OH224708   3.474   2.668  14.159 -0.2090  0.0474 -0.4719
 1098TIP3    H124709   3.469   2.577  14.187  2.2370 -1.1277 -3.3268
 1098TIP3    H224710   3.564   2.679  14.127 -0.3120  3.5868  0.0380
 1099TIP3   OH224711   0.230   5.172  13.805 -0.6744  0.4918  0.6540
 1099TIP3    H124712   0.255   5.231  13.734 -4.1011  1.0535 -0.2632
 1099TIP3    H224713   0.188   5.098  13.761 -1.4362  0.0792  2.0076
 1100TIP3   OH224714   4.546   0.310  15.366 -0.0553  0.0012 -0.0135
 1100TIP3    H124715   4.488   0.360  15.308 -0.1476 -0.0699  0.0172
 1100TIP3    H224716   4.532   0.348  15.453  0.4899  0.4697 -0.1280
 1101TIP3   OH224717   2.129   2.859  16.118 -0.8687 -0.5713  0.6284
 1101TIP3    H124718   2.130   2.903  16.203  0.6755 -0.1163  0.4154
 1101TIP3    H224719   2.038   2.862  16.090 -0.9265  2.0408  0.8668
 1102TIP3   OH224720   6.047   6.383   4.419  0.1007 -1.0881  0.3226
 1102TIP3    H124721   6.047   6.428   4.503  1.1035  0.3237 -0.4018
 1102TIP3    H224722   5.967   6.330   4.421 -1.1945  0.7754  1.1910
 1103TIP3   OH224723   2.042   1.878   6.338  0.4993  0.1661 -0.2613
 1103TIP3    H124724   2.039   1.798   6.286 -2.6309 -0.0461  0.0594
 1103TIP3    H224725   1.955   1.885   6.377  0.6455  3.7138 -0.2258
 1104TIP3   OH224726   6.631   1.129  14.101  0.0240 -0.2815 -0.4819
 1104TIP3    H124727   6.643   1.042  14.140  0.7429 -0.7554 -1.6727
 1104TIP3    H224728   6.689   1.186  14.151 -0.0134 -0.6147 -0.0563
 1105TIP3   OH224729   3.451   0.477  13.900  0.7617 -0.0919  0.0709
 1105TIP3    H124730   3.529   0.488  13.955  0.8389 -1.4338  0.2548
 1105TIP3    H224731   3.424   0.386  13.914 -0.3226  0.0943 -0.6792
 1106TIP3   OH224732   1.779   5.389  11.243 -0.5356  0.1892 -0.5624
 1106TIP3    H124733   1.874   5.403  11.247 -0.7298  1.3441  1.8197
 1106TIP3    H224734   1.770   5.297  11.219  1.2160 -0.1159 -0.2500
 1107TIP3   OH224735   4.466   0.466   3.099  0.1224  0.2496  0.3173
 1107TIP3    H124736   4.415   0.421   3.031 -0.9599  0.3781  1.0230
 1107TIP3    H224737   4.555   0.471   3.063  0.1497 -1.9128 -0.0460
 1108TIP3   OH224738   5.027   0.083   2.728 -0.0604 -0.0555  0.0908
 1108TIP3    H124739   5.051  -0.006   2.752 -0.0141  0.1929  1.0141
 1108TIP3    H224740   5.084   0.139   2.781 -2.5110  0.5519  2.3156
 1109TIP3   OH224741   1.965   1.354   2.974  0.3902  0.1541  0.4962
 1109TIP3    H124742   1.935   1.280   2.922  1.6029  0.7724 -1.1972
 1109TIP3    H224743   2.054   1.331   3.000 -0.0195  0.0748  1.9379
 1110TIP3   OH224744   1.363   5.182  12.122  0.1961 -0.3892  0.6058
 1110TIP3    H124745   1.352   5.117  12.053  0.6139  0.0828  0.0821
 1110TIP3    H224746   1.429   5.243  12.088  0.7441 -0.3978  1.6039
 1111TIP3   OH224747   0.071   1.846   1.984 -0.2376  0.0363  0.3794
 1111TIP3    H124748   0.115   1.763   1.964 -2.0510 -0.9705  0.3825
 1111TIP3    H224749   0.130   1.913   1.949  0.7751 -1.2909 -0.5716
 1112TIP3   OH224750   0.264   5.144  11.783 -0.1307 -0.0897  0.2070
 1112TIP3    H124751   0.179   5.187  11.798 -1.2415 -1.9631 -0.4361
 1112TIP3    H224752   0.299   5.130  11.871 -1.2104 -0.6376  0.5751
 1113TIP3   OH224753   6.551   3.559   4.164  0.0775 -0.2225  1.1730
 1113TIP3    H124754   6.489   3.563   4.091  0.9435  0.0650  0.4302
 1113TIP3    H224755   6.519   3.488   4.219 -1.0285  0.0620  0.9208
 1114TIP3   OH224756   4.220   5.579   0.675 -0.1784 -0.0381 -0.6087
 1114TIP3    H124757   4.173   5.498   0.694  0.6038 -0.5049 -0.6115
 1114TIP3    H224758   4.172   5.647   0.723  0.0788 -0.7508  0.7172
 1115TIP3   OH224759   0.944   1.896   5.978 -0.4884 -0.0243 -0.3878
 1115TIP3    H124760   1.022   1.855   5.940 -1.0280 -1.6184  0.1149
 1115TIP3    H224761   0.969   1.914   6.069 -0.7556 -0.7565 -0.1589
 1116TIP3   OH224762   2.028   4.041  14.691  0.0702 -0.0097  0.0765
 1116TIP3    H124763   2.100   4.038  14.754 -0.3468  1.6861  0.6942
 1116TIP3    H224764   1.956   3.996  14.734  0.1194  0.1940  0.3766
 1117TIP3   OH224765   5.140   0.641  16.980 -0.1728  0.0852 -0.4024
 1117TIP3    H124766   5.081   0.716  16.991  0.4533  0.5336 -0.0632
 1117TIP3    H224767   5.201   0.668  16.911 -1.1449 -0.8856 -1.7061
 1118TIP3   OH224768   2.573   2.602  16.835 -0.8830 -0.2763 -0.4098
 1118TIP3    H124769   2.598   2.528  16.780  1.2533  1.2416 -1.6049
 1118TIP3    H224770   2.526   2.661  16.776  0.9818  1.1296 -0.5731
 1119TIP3   OH224771   0.216   1.349   0.647 -0.1103 -0.2756 -0.0996
 1119TIP3    H124772   0.250   1.277   0.700  0.0112  0.6996  1.2186
 1119TIP3    H224773   0.283   1.418   0.655 -0.8014  0.4354 -0.2988
 1120TIP3   OH224774   5.717   4.211  11.730 -0.3390 -0.1344 -0.6883
 1120TIP3    H124775   5.791   4.151  11.744  0.7244  1.4561  0.9346
 1120TIP3    H224776   5.644   4.169  11.775  0.8027  0.4817  1.9405
 1121TIP3   OH224777   2.849   2.815  15.666 -0.5708  0.1559  0.1220
 1121TIP3    H124778   2.773   2.799  15.611  0.8974 -0.7788 -1.7435
 1121TIP3    H224779   2.893   2.730  15.673  0.5656  0.7646  0.7533
 1122TIP3   OH224780   4.173   2.667  15.093 -0.2434  0.4536  0.4318
 1122TIP3    H124781   4.239   2.613  15.136 -0.0023 -0.2728 -0.7869
 1122TIP3    H224782   4.090   2.624  15.113 -0.1601  0.2783  0.4050
 1123TIP3   OH224783   3.884   3.639  16.584 -0.0865 -0.2334 -0.1019
 1123TIP3    H124784   3.942   3.566  16.604 -1.4646 -2.0659 -2.2215
 1123TIP3    H224785   3.802   3.618  16.629 -0.4362  0.1125 -0.5624
 1124TIP3   OH224786   1.102   6.510  16.868 -0.2781  0.2181  0.4107
 1124TIP3    H124787   1.162   6.435  16.870 -1.4528 -0.7459  0.9325
 1124TIP3    H224788   1.032   6.482  16.809  0.1832  1.6559 -0.8574
 1125TIP3   OH224789   1.615   1.710   2.934 -0.4708  0.0876  0.0104
 1125TIP3    H124790   1.697   1.687   2.980 -0.5691  1.5893  1.0001
 1125TIP3    H224791   1.634   1.692   2.842  1.3206  1.2831  0.0909
 1126TIP3   OH224792   5.617   2.121   4.211  0.0937  0.1192 -0.4105
 1126TIP3    H124793   5.575   2.137   4.295 -0.1994  0.5224 -0.6331
 1126TIP3    H224794   5.600   2.028   4.193  0.3119 -0.0164  0.0532
 1127TIP3   OH224795   5.379   6.654   2.170 -0.1410 -0.2986  0.7027
 1127TIP3    H124796   5.306   6.697   2.124  0.0448  0.6182  1.2291
 1127TIP3    H224797   5.448   6.648   2.104 -0.1097  0.3955  0.6595
 1128TIP3   OH224798   3.207   2.575   6.295  0.1369  0.1616 -0.0290
 1128TIP3    H124799   3.288   2.585   6.346 -0.7403  0.6524  1.3222
 1128TIP3    H224800   3.139   2.612   6.351 -0.7660  1.5717 -1.9477
 1129TIP3   OH224801   2.264   5.630   4.433 -0.2564  0.2101  0.1863
 1129TIP3    H124802   2.357   5.617   4.415 -0.2654  0.9046 -0.3711
 1129TIP3    H224803   2.226   5.651   4.348 -1.2035 -1.5891  0.1152
 1130TIP3   OH224804   3.364   5.428  14.431 -0.0083  0.2924  0.3125
 1130TIP3    H124805   3.317   5.346  14.446  1.4041 -0.6277 -0.0262
 1130TIP3    H224806   3.432   5.404  14.367 -0.6347  2.1245 -1.1171
 1131TIP3   OH224807   3.753   2.517  12.355  0.0725  0.3794 -0.6735
 1131TIP3    H124808   3.744   2.575  12.430  1.2285 -0.7044  0.3700
 1131TIP3    H224809   3.724   2.569  12.280 -0.1259  1.8471  0.3795
 1132TIP3   OH224810   5.242   2.659  13.213 -0.3113 -0.2288  0.0091
 1132TIP3    H124811   5.336   2.668  13.225 -0.5244  0.9791  1.0011
 1132TIP3    H224812   5.217   2.736  13.161 -0.9510  0.3408  1.1066
 1133TIP3   OH224813   4.474   1.022   0.528 -0.3384 -0.4858  0.0126
 1133TIP3    H124814   4.504   0.958   0.464 -1.2083 -0.2618 -0.6354
 1133TIP3    H224815   4.423   0.971   0.591 -2.0156 -0.3126 -1.1359
 1134TIP3   OH224816   3.776   5.395  14.513 -0.6169 -0.1009  0.0432
 1134TIP3    H124817   3.825   5.477  14.521 -3.9541  1.8932  2.2060
 1134TIP3    H224818   3.739   5.380  14.600 -0.1570 -4.0018 -0.2623
 1135TIP3   OH224819   0.934   5.364  12.953 -0.0388 -0.2120  0.1730
 1135TIP3    H124820   0.987   5.388  12.876 -0.3302 -0.0686  0.0124
 1135TIP3    H224821   0.997   5.328  13.015  0.4652  1.1677  0.5058
 1136TIP3   OH224822   2.797   6.708   4.388  0.2351 -0.5676  0.1688
 1136TIP3    H124823   2.767   6.769   4.320  0.9020 -0.5628 -0.1397
 1136TIP3    H224824   2.758   6.624   4.364  1.2278 -0.7940 -0.8107
 1137TIP3   OH224825   5.562   2.976  11.132 -0.1533 -0.1316 -0.3375
 1137TIP3    H124826   5.608   3.031  11.195  2.4322  0.0307 -2.2056
 1137TIP3    H224827   5.573   2.887  11.165 -2.5503  0.1784  1.5854
 1138TIP3   OH224828   4.251   0.615  14.644 -0.2429  0.0367  0.1422
 1138TIP3    H124829   4.266   0.710  14.648 -1.9518  0.3098  1.5341
 1138TIP3    H224830   4.155   0.606  14.645 -0.1459 -1.7023 -1.0696
 1139TIP3   OH224831   4.530   0.771   4.450 -0.1786  0.1647  0.3323
 1139TIP3    H124832   4.585   0.830   4.502 -0.8949  0.6010  0.6070
 1139TIP3    H224833   4.544   0.800   4.360 -0.2943  0.5699  0.4403
 1140TIP3   OH224834   5.958   4.148   4.594  0.3455 -0.4228 -0.4605
 1140TIP3    H124835   6.053   4.138   4.600  0.5706  1.4888 -0.4508
 1140TIP3    H224836   5.944   4.204   4.518 -0.7119  0.1238  0.1149
 1141TIP3   OH224837   4.420   5.854  15.734  0.0956 -0.2427  0.2452
 1141TIP3    H124838   4.512   5.833  15.749  0.0463 -0.9184 -0.3747
 1141TIP3    H224839   4.376   5.770  15.731 -0.2108 -0.0591 -1.5602
 1142TIP3   OH224840   2.821   1.526   1.313  0.6650  0.2146  0.1641
 1142TIP3    H124841   2.834   1.566   1.399 -0.4144 -0.5920  0.7305
 1142TIP3    H224842   2.763   1.586   1.267 -0.3762 -0.3217  0.7501
 1143TIP3   OH224843   6.419   3.827  15.471 -0.3017 -0.1776  0.2863
 1143TIP3    H124844   6.442   3.813  15.563 -0.2013  0.3628  0.3453
 1143TIP3    H224845   6.365   3.906  15.471  0.3532  0.2784 -0.2079
 1144TIP3   OH224846   2.002   0.357  15.147  0.8251 -0.3479 -0.9549
 1144TIP3    H124847   2.064   0.427  15.166  1.3629 -0.6441 -1.6090
 1144TIP3    H224848   1.965   0.379  15.062  1.2553 -1.0371 -1.3293
 1145TIP3   OH224849   0.604   4.791  15.846  0.1546  0.1416 -0.1796
 1145TIP3    H124850   0.611   4.881  15.814  2.5433 -0.1286 -0.5940
 1145TIP3    H224851   0.527   4.756  15.801 -1.6292  2.3144  0.9968
 1146TIP3   OH224852   0.632   3.758  14.278  0.0692 -0.1491  0.5454
 1146TIP3    H124853   0.558   3.704  14.249  0.1611 -0.5371  1.0187
 1146TIP3    H224854   0.631   3.751  14.374  1.4245 -1.1358  0.5254
 1147TIP3   OH224855   5.776   0.684  14.823  0.1578  0.0650 -0.1777
 1147TIP3    H124856   5.785   0.676  14.728 -2.3031 -0.3237 -0.4402
 1147TIP3    H224857   5.724   0.607  14.848  0.9221  0.0694  1.5215
 1148TIP3   OH224858   1.402   2.586   3.843  0.1981 -0.1080  0.0401
 1148TIP3    H124859   1.482   2.588   3.895  0.6569  1.8290 -0.6351
 1148TIP3    H224860   1.416   2.514   3.781  1.4551  0.1902 -0.0662
 1149TIP3   OH224861   5.753   1.314  16.994 -0.1011  0.2507  0.0378
 1149TIP3    H124862   5.827   1.342  16.941  0.6806  0.1914  1.0770
 1149TIP3    H224863   5.690   1.279  16.931 -0.3144  2.5455 -1.1042
 1150TIP3   OH224864   0.434   4.148   5.880 -0.0814 -0.2186  0.3193
 1150TIP3    H124865   0.464   4.157   5.971  1.8440  0.4417 -0.3337
 1150TIP3    H224866   0.475   4.066   5.850  0.0844  0.0696 -0.2383
 1151TIP3   OH224867   4.075   5.470   2.994  0.0949 -0.0506  0.4478
 1151TIP3    H124868   4.019   5.513   3.058 -2.3172 -3.5321  0.9760
 1151TIP3    H224869   4.018   5.405   2.952  3.1002 -2.1041 -0.8209
 1152TIP3   OH224870   5.674   3.340   5.581 -0.0566 -0.5680  0.4520
 1152TIP3    H124871   5.677   3.266   5.521 -1.6668 -0.3705  0.0723
 1152TIP3    H224872   5.671   3.300   5.668 -2.2040 -1.0461  0.2124
 1153TIP3   OH224873   5.417   0.293  13.940 -0.0100  0.1919 -0.1277
 1153TIP3    H124874   5.485   0.360  13.928 -1.2423  2.1054  2.5045
 1153TIP3    H224875   5.458   0.229  13.998  0.8862 -1.0050 -1.9777
 1154TIP3   OH224876   5.777   5.932  12.654  0.1013 -0.0527 -0.0409
 1154TIP3    H124877   5.695   5.919  12.607 -0.1717 -0.5616  0.5504
 1154TIP3    H224878   5.757   5.905  12.744  0.6525  0.7194  0.3327
 1155TIP3   OH224879   1.651   4.867  14.895 -0.0747  0.3509  0.6195
 1155TIP3    H124880   1.727   4.923  14.906  0.0960  0.6151 -1.5198
 1155TIP3    H224881   1.590   4.919  14.841 -0.8694 -0.6558  0.5104
 1156TIP3   OH224882   0.129   3.069  13.673  0.0950  0.1868  0.1548
 1156TIP3    H124883   0.148   3.129  13.746  1.2398 -1.2288  1.0796
 1156TIP3    H224884   0.070   3.003  13.711 -0.3183  0.1261 -0.5659
 1157TIP3   OH224885   6.611   3.507  11.001 -0.4893 -0.5641 -0.1843
 1157TIP3    H124886   6.592   3.595  10.968  1.6137 -0.4119 -1.1866
 1157TIP3    H224887   6.659   3.521  11.082  1.1287 -0.6763 -1.0689
 1158TIP3   OH224888   4.145   6.485   5.038  0.2500  0.3113  0.2100
 1158TIP3    H124889   4.150   6.570   4.996  0.4799  1.3276  2.1584
 1158TIP3    H224890   4.224   6.480   5.092 -1.4166  0.4825  2.8763
 1159TIP3   OH224891   3.119   5.425  15.206 -0.4204  0.0849  0.1058
 1159TIP3    H124892   3.200   5.435  15.257 -0.4697 -0.4387  0.2907
 1159TIP3    H224893   3.071   5.356  15.251 -1.0761  0.5513  0.1233
 1160TIP3   OH224894   1.782   1.426   4.572  0.7355 -0.0554 -0.5977
 1160TIP3    H124895   1.737   1.499   4.529  0.7149 -0.1528 -0.7452
 1160TIP3    H224896   1.872   1.456   4.581  0.3158  0.7843  1.1752
 1161TIP3   OH224897   6.212   0.883   4.710 -0.0516 -0.8216 -0.3536
 1161TIP3    H124898   6.172   0.919   4.630 -0.5253 -1.2778 -0.3198
 1161TIP3    H224899   6.276   0.820   4.678  2.2415  1.4272 -0.5075
 1162TIP3   OH224900   0.431   3.486   0.796  0.7583  0.0773 -0.0041
 1162TIP3    H124901   0.355   3.507   0.741  1.2693 -1.6907 -1.5324
 1162TIP3    H224902   0.506   3.502   0.739  1.6202  1.9618  1.5374
 1163TIP3   OH224903   2.629   3.283  14.397 -0.1767  0.0849 -0.1246
 1163TIP3    H124904   2.673   3.234  14.466 -0.6227  0.5985  0.5464
 1163TIP3    H224905   2.553   3.322  14.441  0.6739  2.1457 -0.3906
 1164TIP3   OH224906   1.634   2.971  15.955 -0.3518 -0.3829 -0.3728
 1164TIP3    H124907   1.595   2.976  15.868 -2.0968 -0.3414  0.3670
 1164TIP3    H224908   1.566   2.931  16.010  0.3001  0.5460  1.1867
 1165TIP3   OH224909   5.311   4.722  13.193  0.3082 -0.0831 -0.2247
 1165TIP3    H124910   5.257   4.703  13.270  1.2495  2.1424  1.0785
 1165TIP3    H224911   5.254   4.775  13.137 -0.1268 -1.0781 -0.7555
 1166TIP3   OH224912   2.593   6.036  15.153  0.2189 -0.1724  0.3137
 1166TIP3    H124913   2.568   6.010  15.242 -0.3975 -3.0830 -0.5885
 1166TIP3    H224914   2.534   6.108  15.132 -1.4981 -1.2074  1.3427
 1167TIP3   OH224915   6.582   5.546   1.483 -0.6131  0.5647  0.1114
 1167TIP3    H124916   6.568   5.461   1.524  0.5806  1.1638  1.8438
 1167TIP3    H224917   6.676   5.553   1.471 -0.8252  0.8941 -1.7938
 1168TIP3   OH224918   0.447   1.884  11.359  0.2474  0.5687 -0.2842
 1168TIP3    H124919   0.410   1.862  11.274 -0.9797  2.3904 -0.2821
 1168TIP3    H224920   0.378   1.864  11.422 -0.0471  2.0990 -0.0694
 1169TIP3   OH224921   4.888   4.986  10.688  0.4219 -0.5262 -0.0859
 1169TIP3    H124922   4.893   4.922  10.617 -1.9395 -1.6843  0.7120
 1169TIP3    H224923   4.887   5.071  10.643 -0.6985 -1.2144 -1.4500
 1170TIP3   OH224924   5.180   6.596  12.043  0.3482  0.0653 -0.9636
 1170TIP3    H124925   5.193   6.690  12.057 -1.1376  0.1663 -0.0781
 1170TIP3    H224926   5.210   6.581  11.953  1.9205  1.0955 -0.6452
 1171TIP3   OH224927   0.848   4.474  14.070 -0.8669 -0.0584  0.3883
 1171TIP3    H124928   0.874   4.396  14.119 -2.0573 -0.8045 -0.1082
 1171TIP3    H224929   0.930   4.513  14.041 -0.2461 -1.5652 -0.0099
 1172TIP3   OH224930   3.676   5.474   0.088  0.1725  0.0679 -0.0565
 1172TIP3    H124931   3.694   5.388   0.126  0.3456  1.3482  3.0721
 1172TIP3    H224932   3.749   5.490   0.029  1.2158 -1.1295  0.8478
 1173TIP3   OH224933   0.617   1.468   2.256 -0.1438  0.5373 -0.4586
 1173TIP3    H124934   0.555   1.395   2.244  1.9500 -1.3441 -0.6150
 1173TIP3    H224935   0.631   1.472   2.351 -1.5328  1.9518 -0.2709
 1174TIP3   OH224936   5.161   2.446   6.562  0.6338 -0.4165  0.0647
 1174TIP3    H124937   5.135   2.355   6.577  2.2761 -0.8858  0.3307
 1174TIP3    H224938   5.240   2.439   6.508  1.4938  0.7933  1.1156
 1175TIP3   OH224939   1.338   5.941   2.791  0.3020 -0.2517  0.1239
 1175TIP3    H124940   1.252   5.951   2.751  0.9968  1.4330 -1.0827
 1175TIP3    H224941   1.320   5.911   2.880 -1.4520 -1.0029 -0.4516
 1176TIP3   OH224942   4.684   3.887  14.189 -0.3046 -0.4162  0.1510
 1176TIP3    H124943   4.694   3.917  14.098 -2.3647 -0.4886 -0.1361
 1176TIP3    H224944   4.734   3.950  14.241  4.4416 -2.5440 -1.2137
 1177TIP3   OH224945   3.889   6.730  15.057 -0.6506 -0.3069  0.2217
 1177TIP3    H124946   3.850   6.764  14.977  0.7068 -0.5440 -0.5788
 1177TIP3    H224947   3.832   6.762  15.127 -0.1529  2.6078 -0.5497
 1178TIP3   OH224948   6.569   4.632   3.832  0.1062  0.3722  0.5115
 1178TIP3    H124949   6.616   4.551   3.849 -0.3293  0.0750  0.3049
 1178TIP3    H224950   6.572   4.679   3.916 -1.8384 -0.9766  1.4240
 1179TIP3   OH224951   0.749   2.205  16.157 -0.1281 -0.2360 -0.5418
 1179TIP3    H124952   0.755   2.284  16.212 -0.2269 -0.5055 -0.1348
 1179TIP3    H224953   0.829   2.156  16.177 -0.1705 -0.3403 -0.6282
 1180TIP3   OH224954   3.889   6.222  12.192  0.0512 -0.0814 -0.6382
 1180TIP3    H124955   3.868   6.212  12.285  0.6926 -0.4023 -0.5299
 1180TIP3    H224956   3.982   6.203  12.185 -0.1748 -0.9360 -1.4904
 1181TIP3   OH224957   0.114   0.376   4.200 -0.4652  0.0295  0.5336
 1181TIP3    H124958   0.122   0.467   4.172 -1.6738  0.1436  0.5052
 1181TIP3    H224959   0.047   0.339   4.142 -0.2881 -0.7597  0.8207
 1182TIP3   OH224960   3.451   1.139   4.559 -0.6644 -0.1820  0.1058
 1182TIP3    H124961   3.542   1.156   4.536 -1.1610  0.3579 -1.5801
 1182TIP3    H224962   3.449   1.045   4.581  0.0719 -0.4825 -1.0428
 1183TIP3   OH224963   3.424   5.066  16.559 -0.6971  0.0032  0.5833
 1183TIP3    H124964   3.366   5.088  16.486 -2.6157 -2.1525  1.3195
 1183TIP3    H224965   3.419   5.141  16.617 -1.3619  0.5938 -0.2108
 1184TIP3   OH224966   2.887   1.566   0.970  0.0710 -0.1355  0.0099
 1184TIP3    H124967   2.938   1.569   1.050 -1.2324  1.0742  0.8430
 1184TIP3    H224968   2.949   1.538   0.903  0.8158 -2.8723  1.6954
 1185TIP3   OH224969   1.577   4.673  12.309  0.0266  0.0018  0.0804
 1185TIP3    H124970   1.581   4.727  12.230 -0.6088  1.5107  1.0227
 1185TIP3    H224971   1.593   4.584  12.279 -0.9143  0.4420 -1.8498
 1186TIP3   OH224972   5.980   1.081   0.473 -0.9247 -0.2686 -0.6563
 1186TIP3    H124973   5.985   1.176   0.471  1.5836 -0.3521 -2.0214
 1186TIP3    H224974   5.923   1.062   0.548  1.3546  2.2353  1.9646
 1187TIP3   OH224975   4.582   5.713  14.640 -0.3806  0.4483  0.4605
 1187TIP3    H124976   4.509   5.747  14.587 -0.1957  0.4783  0.2257
 1187TIP3    H224977   4.577   5.618  14.629 -1.3712  0.3267  1.7316
 1188TIP3   OH224978   5.525   4.495   2.205 -0.2708 -0.5612 -0.1019
 1188TIP3    H124979   5.533   4.411   2.160 -0.5168  0.7513 -2.7448
 1188TIP3    H224980   5.614   4.532   2.203 -0.4889 -0.0524 -0.4059
 1189TIP3   OH224981   6.597   5.234  14.111  0.1085 -0.0965  0.2493
 1189TIP3    H124982   6.676   5.225  14.057 -0.5811 -0.0897 -0.7965
 1189TIP3    H224983   6.604   5.164  14.175 -0.2296 -1.7100 -1.4012
 1190TIP3   OH224984   2.436   4.148   1.658 -0.2361  0.4003 -0.4679
 1190TIP3    H124985   2.390   4.067   1.634 -0.3964  0.5345 -0.6149
 1190TIP3    H224986   2.528   4.130   1.636 -0.1878  0.0710 -0.0108
 1191TIP3   OH224987   4.950   5.793  13.652  0.2958  0.3693 -0.7891
 1191TIP3    H124988   4.888   5.749  13.710 -0.2726  0.0444 -1.6199
 1191TIP3    H224989   5.033   5.749  13.670 -0.0685 -0.3882 -0.9046
 1192TIP3   OH224990   0.127   3.200   3.852 -0.4525  0.1005  0.0674
 1192TIP3    H124991   0.143   3.112   3.886  3.2860  1.0086  1.1004
 1192TIP3    H224992   0.188   3.209   3.779  0.7136  2.3851  1.2026
 1193TIP3   OH224993   4.476   4.819  13.630 -0.1775  0.0299  0.2353
 1193TIP3    H124994   4.500   4.849  13.542 -1.1058  1.3821  0.4086
 1193TIP3    H224995   4.412   4.749  13.615 -1.6701  1.4263 -0.2059
 1194TIP3   OH224996   4.309   5.143  13.456 -0.8753  0.7515 -0.0016
 1194TIP3    H124997   4.250   5.077  13.420 -0.2760  0.1892  0.0260
 1194TIP3    H224998   4.397   5.108  13.440 -0.5512  1.4795  0.1336
 1195TIP3   OH224999   0.130   5.153  15.585  0.1540 -0.0843 -0.0600
 1195TIP3    H125000   0.112   5.198  15.667 -2.0037 -0.5891 -0.1990
 1195TIP3    H225001   0.152   5.222  15.524  0.9770  0.3709  0.7242
 1196TIP3   OH225002   4.134   6.792   6.115  0.8786 -0.2031  0.2549
 1196TIP3    H125003   4.122   6.704   6.079  1.5998 -0.2583  0.1270
 1196TIP3    H225004   4.049   6.815   6.152 -0.0784  0.0761 -1.9633
 1197TIP3   OH225005   5.092   0.387  16.878 -0.3526  0.6067  0.1565
 1197TIP3    H125006   5.036   0.411  16.805  2.3801  1.6667 -1.7862
 1197TIP3    H225007   5.092   0.464  16.934  0.6977  1.4609 -0.9459
 1198TIP3   OH225008   2.059   6.131   0.401 -0.3790  0.3082  0.3943
 1198TIP3    H125009   2.058   6.223   0.374  0.8576  0.7659  1.7868
 1198TIP3    H225010   2.127   6.091   0.347 -0.5997  0.3079  0.1121
 1199TIP3   OH225011   5.199   1.211   5.880 -0.4500 -0.4031 -0.2978
 1199TIP3    H125012   5.108   1.206   5.849 -0.8248 -2.4462  0.9452
 1199TIP3    H225013   5.225   1.120   5.893  0.9811  0.2201  1.6368
 1200TIP3   OH225014   2.958   1.173  13.564  0.3039  0.3308  0.1008
 1200TIP3    H125015   2.873   1.210  13.543  0.5459 -0.0945 -1.8189
 1200TIP3    H225016   2.956   1.084  13.528  0.7264 -0.5755  2.1581
 1201TIP3   OH225017   0.120   5.830   3.226  0.8930  0.3186 -0.0472
 1201TIP3    H125018   0.040   5.840   3.277  0.8105 -1.2322  0.2045
 1201TIP3    H225019   0.169   5.762   3.273  1.4699 -0.1263 -1.2536
 1202TIP3   OH225020   0.482   4.108  13.075  0.6690  0.0005 -0.0482
 1202TIP3    H125021   0.474   4.203  13.081  1.1389 -0.0630  2.3781
 1202TIP3    H225022   0.408   4.074  13.125 -1.2390 -1.0529 -3.2878
 1203TIP3   OH225023   6.785   5.583   4.038 -0.2200  0.4878  0.0767
 1203TIP3    H125024   6.734   5.530   4.100  0.7272 -0.4158  0.1249
 1203TIP3    H225025   6.737   5.665   4.032 -0.5873  0.4419  1.6838
 1204TIP3   OH225026   6.810   6.560   4.860  0.0800 -0.1250 -0.3289
 1204TIP3    H125027   6.747   6.589   4.927  0.0011  0.7067 -0.7407
 1204TIP3    H225028   6.845   6.478   4.893  1.1124  0.9652  1.4480
 1205TIP3   OH225029   2.049   2.638   1.770  0.0259 -0.4645 -0.5462
 1205TIP3    H125030   2.107   2.681   1.706 -0.7929 -1.0370 -1.7248
 1205TIP3    H225031   2.068   2.682   1.853 -0.1608  1.5938 -1.5325
 1206TIP3   OH225032   3.940   0.104   2.197 -0.1930  0.0210 -0.2300
 1206TIP3    H125033   3.949   0.058   2.280 -0.5891  0.7522  0.2375
 1206TIP3    H225034   4.012   0.073   2.143  2.9260  2.8245  1.9443
 1207TIP3   OH225035   1.783   6.000  12.685 -0.2154 -0.0644 -0.5895
 1207TIP3    H125036   1.851   5.940  12.654  2.0025  1.7663  0.4375
 1207TIP3    H225037   1.764   6.056  12.610  1.1124  0.8508 -0.2707
 1208TIP3   OH225038   2.271   3.400   0.501  0.0772  0.3611  0.3960
 1208TIP3    H125039   2.352   3.442   0.529  0.8729 -0.6800 -0.2484
 1208TIP3    H225040   2.261   3.326   0.561 -0.4214  0.5183  0.5053
 1209TIP3   OH225041   0.282   1.741   3.594 -0.5976 -0.0208 -0.4134
 1209TIP3    H125042   0.314   1.705   3.512 -3.2441 -1.7229 -0.8340
 1209TIP3    H225043   0.290   1.669   3.656  0.2651  0.8711  0.5471
 1210TIP3   OH225044   2.134   2.135  11.842 -0.4772 -0.9717  0.3186
 1210TIP3    H125045   2.158   2.153  11.933 -1.4875 -0.0668  0.4179
 1210TIP3    H225046   2.041   2.157  11.837  0.2598  2.2687 -1.7550
 1211TIP3   OH225047   6.145   5.114  11.496 -0.0018 -0.1546  0.2381
 1211TIP3    H125048   6.158   5.123  11.591 -0.2891 -0.5477  0.3180
 1211TIP3    H225049   6.187   5.192  11.459  1.6731 -0.8587  0.5512
 1212TIP3   OH225050   1.186   1.655  16.095 -0.1823  0.3638 -0.1581
 1212TIP3    H125051   1.112   1.611  16.138  0.9767  0.0806  1.6707
 1212TIP3    H225052   1.262   1.630  16.147  0.6076  4.5271  1.1152
 1213TIP3   OH225053   0.174   2.858   4.943  0.3239 -0.2130 -0.3227
 1213TIP3    H125054   0.238   2.926   4.919  0.0864  0.0948 -0.0998
 1213TIP3    H225055   0.126   2.896   5.017 -1.3908  0.3280 -1.6537
 1214TIP3   OH225056   3.906   2.768  16.401 -0.0719  0.0975  0.0898
 1214TIP3    H125057   3.892   2.861  16.418 -1.9558 -0.1414  0.0364
 1214TIP3    H225058   3.988   2.747  16.446  1.8150  2.3220 -2.0066
 1215TIP3   OH225059   6.751   6.414   2.353 -0.2372  0.2196 -0.2080
 1215TIP3    H125060   6.763   6.319   2.351 -2.0415 -0.0908  0.9540
 1215TIP3    H225061   6.839   6.449   2.370  0.3157 -1.2991  0.2650
 1216TIP3   OH225062   5.072   1.590  15.348  0.6448  0.1894  0.0658
 1216TIP3    H125063   5.132   1.563  15.418  0.4110  0.2189  0.2786
 1216TIP3    H225064   5.051   1.509  15.302  0.9170  0.1911 -0.0636
 1217TIP3   OH225065   5.941   0.653  14.174  0.1346 -0.1109  0.5512
 1217TIP3    H125066   5.907   0.690  14.092  1.1751 -0.2353  0.0527
 1217TIP3    H225067   5.870   0.665  14.237 -0.2995  0.8998 -0.1144
 1218TIP3   OH225068   4.966   0.980  10.906  0.8339 -0.3400 -0.6569
 1218TIP3    H125069   4.937   1.039  10.975 -1.0548  0.7244 -2.2696
 1218TIP3    H225070   4.885   0.948  10.866  1.8566 -0.1610 -3.0094
 1219TIP3   OH225071   4.053   3.161   2.869  0.4569 -0.4340  0.2760
 1219TIP3    H125072   4.143   3.126   2.872 -0.4286 -2.8414  0.7241
 1219TIP3    H225073   4.014   3.134   2.952 -0.1039  2.5338  1.1135
 1220TIP3   OH225074   6.280   1.499  15.242 -0.5838 -0.3917  0.0517
 1220TIP3    H125075   6.313   1.582  15.208 -0.4450 -0.4740 -0.0182
 1220TIP3    H225076   6.338   1.479  15.316 -2.1655  0.8382  1.7069
 1221TIP3   OH225077   4.988   3.615   0.597  0.0454 -0.0274  0.1492
 1221TIP3    H125078   4.956   3.654   0.678 -0.4127 -0.6135  0.2526
 1221TIP3    H225079   4.917   3.628   0.534  0.6992  1.1356 -0.4044
 1222TIP3   OH225080   4.085   3.455  11.194  0.1796  0.1275  0.0919
 1222TIP3    H125081   4.075   3.461  11.099  0.9504  0.7694  0.0397
 1222TIP3    H225082   4.141   3.529  11.217 -0.0464  0.0114  1.0568
 1223TIP3   OH225083   4.191   6.587  13.773  0.1938  0.3697 -0.0467
 1223TIP3    H125084   4.158   6.674  13.799  0.2759  0.8125 -1.3336
 1223TIP3    H225085   4.199   6.593  13.678 -1.6209 -1.6789 -0.3989
 1224TIP3   OH225086   2.595   4.622   3.095  0.4441  0.1556 -0.3402
 1224TIP3    H125087   2.582   4.716   3.078 -2.3142 -0.1477 -0.4225
 1224TIP3    H225088   2.543   4.605   3.173  0.1660 -1.4811 -0.8528
 1225TIP3   OH225089   0.056   1.980  14.724  0.0093 -0.6527 -0.3899
 1225TIP3    H125090   0.070   2.049  14.788 -0.3225  0.0143 -1.0251
 1225TIP3    H225091   0.081   1.899  14.770  2.1267  0.0429 -0.1971
 1226TIP3   OH225092   5.468   6.268   0.873  0.6771 -0.6012  0.1996
 1226TIP3    H125093   5.432   6.301   0.955  1.8072 -0.1275  0.5386
 1226TIP3    H225094   5.439   6.177   0.868 -1.5827  0.0811 -0.1921
 1227TIP3   OH225095   3.165   0.723   2.191 -0.3924 -0.3621 -0.0226
 1227TIP3    H125096   3.238   0.784   2.177 -0.2551 -0.6846 -0.7765
 1227TIP3    H225097   3.100   0.774   2.238 -0.8183  0.7997 -1.7674
 1228TIP3   OH225098   2.959   3.837   0.816 -0.1868  0.3910 -0.2470
 1228TIP3    H125099   2.948   3.913   0.759 -0.1819  0.4498 -0.1692
 1228TIP3    H225100   2.887   3.843   0.879  0.6093  1.0939  0.6250
 1229TIP3   OH225101   6.721   4.678  10.132 -0.1510  0.3205 -0.6559
 1229TIP3    H125102   6.810   4.680  10.096 -0.3372  0.4834 -1.1178
 1229TIP3    H225103   6.679   4.757  10.098 -0.1285  0.8404  0.4813
 1230TIP3   OH225104   4.170   2.710  16.099  0.0817 -0.1423  0.2875
 1230TIP3    H125105   4.249   2.761  16.112  1.0391 -1.7747  1.2797
 1230TIP3    H225106   4.200   2.626  16.064 -1.2530 -0.5988  0.1603
 1231TIP3   OH225107   1.207   4.882   1.599  0.1261  0.4848  0.1244
 1231TIP3    H125108   1.147   4.865   1.671  0.5004  1.8378  0.8002
 1231TIP3    H225109   1.152   4.918   1.529  0.0622  1.2045  0.5397
 1232TIP3   OH225110   3.685   4.538  12.265  0.2498 -0.2956 -0.0486
 1232TIP3    H125111   3.710   4.459  12.313 -1.3645 -1.0261 -0.3304
 1232TIP3    H225112   3.670   4.507  12.176  0.7115  0.5644 -0.4296
 1233TIP3   OH225113   5.858   3.945   4.786 -0.1748  0.4084  0.4616
 1233TIP3    H125114   5.909   4.002   4.728 -0.1433  0.3778  0.4590
 1233TIP3    H225115   5.825   4.003   4.854  0.9990  0.2017  1.2342
 1234TIP3   OH225116   1.370   6.726  16.321 -0.1754 -0.3377 -0.2551
 1234TIP3    H125117   1.429   6.792  16.359  0.0833 -0.3462 -0.6344
 1234TIP3    H225118   1.283   6.756  16.345 -0.0784  0.3165 -0.6797
 1235TIP3   OH225119   2.612   5.335   1.703 -0.6970 -0.3987  0.1179
 1235TIP3    H125120   2.627   5.241   1.691  0.5628 -0.0879 -0.9833
 1235TIP3    H225121   2.664   5.358   1.781 -1.9355 -0.8043  1.0937
 1236TIP3   OH225122   2.251   1.622  16.252 -0.2800  0.0196  0.3928
 1236TIP3    H125123   2.327   1.622  16.193 -1.5616  0.0543 -1.3575
 1236TIP3    H225124   2.276   1.680  16.323  0.7483  1.3423 -0.9638
 1237TIP3   OH225125   2.596   1.829   1.685 -0.2246 -0.2253 -0.1909
 1237TIP3    H125126   2.665   1.890   1.714 -0.6627 -0.6417  1.9385
 1237TIP3    H225127   2.515   1.880   1.693 -0.4994 -0.7837  0.7560
 1238TIP3   OH225128   2.331   3.050   6.535  0.1164  0.1924  0.9232
 1238TIP3    H125129   2.285   2.966   6.532  1.4328 -0.5520  0.9497
 1238TIP3    H225130   2.277   3.105   6.592 -2.2305  0.3267 -1.2655
 1239TIP3   OH225131   3.735   3.930   1.659  0.0399 -0.0222  0.5297
 1239TIP3    H125132   3.641   3.938   1.642 -0.0091 -1.9222 -0.3732
 1239TIP3    H225133   3.740   3.883   1.742  0.1963 -0.0415  0.5086
 1240TIP3   OH225134   0.905   3.046   4.234  0.1318 -0.8325 -0.2070
 1240TIP3    H125135   0.975   3.040   4.299  0.2367  0.8113 -0.1066
 1240TIP3    H225136   0.940   3.004   4.156  1.8301  1.1133 -0.5912
 1241TIP3   OH225137   5.493   4.922   1.222  0.0025  0.3184  0.5364
 1241TIP3    H125138   5.403   4.926   1.252 -0.8059  1.9411 -1.7639
 1241TIP3    H225139   5.500   4.838   1.176 -0.6887  0.6243 -0.1521
 1242TIP3   OH225140   0.526   5.801  15.118 -0.5883  0.1216  0.1202
 1242TIP3    H125141   0.612   5.763  15.132  0.3162  1.2942 -1.7690
 1242TIP3    H225142   0.521   5.873  15.179  0.0583  0.4446 -0.1970
 1243TIP3   OH225143   3.440   1.404  13.955 -0.0170  0.3249  0.4350
 1243TIP3    H125144   3.391   1.481  13.926 -0.7502 -0.9506 -2.0224
 1243TIP3    H225145   3.527   1.415  13.917  0.0969  0.2921  0.6873
 1244TIP3   OH225146   6.628   2.192   3.004 -0.6092  0.0477 -0.1859
 1244TIP3    H125147   6.715   2.223   3.030 -1.1801  1.1335  0.5332
 1244TIP3    H225148   6.585   2.270   2.967 -1.8268 -0.0371  0.9591
 1245TIP3   OH225149   3.534   4.453   0.017  0.7825 -0.4479  0.1340
 1245TIP3    H125150   3.609   4.500   0.053  1.2344 -0.0092 -1.3123
 1245TIP3    H225151   3.478   4.522  -0.019 -1.1838 -0.5994  2.5822
 1246TIP3   OH225152   1.622   4.275  15.033 -0.2503  0.4122 -0.8114
 1246TIP3    H125153   1.597   4.183  15.022 -0.3815  0.1016  1.6208
 1246TIP3    H225154   1.711   4.272  15.069 -1.3036  1.0331  2.1610
 1247TIP3   OH225155   2.308   3.821  15.393  0.3045  0.8013 -1.0280
 1247TIP3    H125156   2.287   3.884  15.324  0.2487  0.9215 -0.9032
 1247TIP3    H225157   2.394   3.786  15.369  0.0152  0.3954 -1.4825
 1248TIP3   OH225158   3.861   6.523   0.369 -0.3096  0.7540  0.2822
 1248TIP3    H125159   3.913   6.602   0.380  0.2437  1.0906 -3.5789
 1248TIP3    H225160   3.770   6.553   0.371 -0.3296  0.7690  2.8075
 1249TIP3   OH225161   4.144   0.567   0.150 -0.3564 -0.7083  0.1854
 1249TIP3    H125162   4.187   0.651   0.163  1.1962 -1.5732  0.8425
 1249TIP3    H225163   4.051   0.585   0.164  0.0466  0.7079  1.2434
 1250TIP3   OH225164   5.749   2.603  12.909 -0.1688 -0.4752 -0.2600
 1250TIP3    H125165   5.698   2.671  12.953  1.8799 -0.6095  2.5910
 1250TIP3    H225166   5.822   2.650  12.868  0.2532 -0.7638  0.1504
 1251TIP3   OH225167   5.021   4.710  15.680  0.0732  0.0225  0.0455
 1251TIP3    H125168   5.065   4.725  15.596 -0.8282  0.2984 -0.3855
 1251TIP3    H225169   5.005   4.797  15.716  0.1003 -0.0817  0.3152
 1252TIP3   OH225170   4.767   5.548  10.942  0.5517 -0.5894 -0.0347
 1252TIP3    H125171   4.719   5.528  10.862  1.3865 -1.0373 -0.4315
 1252TIP3    H225172   4.842   5.489  10.941  1.6431  0.7222  0.0850
 1253TIP3   OH225173   4.561   3.049   2.598 -0.3070 -0.4819  0.0899
 1253TIP3    H125174   4.595   3.055   2.687  0.9800 -1.1544 -0.3239
 1253TIP3    H225175   4.624   2.993   2.552  0.7994  2.2740 -2.0434
 1254TIP3   OH225176   5.103   3.162  10.930 -0.0822  0.3642 -0.3217
 1254TIP3    H125177   5.102   3.067  10.921  0.3670  0.4334 -1.2434
 1254TIP3    H225178   5.047   3.193  10.859  0.6942  0.8222 -0.7487
 1255TIP3   OH225179   6.271   3.044   4.610  0.3758 -0.0768  0.7372
 1255TIP3    H125180   6.365   3.029   4.599  0.4168  0.4083  0.4310
 1255TIP3    H225181   6.260   3.066   4.703  0.4756 -0.7614  0.9193
 1256TIP3   OH225182   1.762   0.191  12.835  0.3147  0.4155 -0.4780
 1256TIP3    H125183   1.684   0.220  12.882  0.2319  1.2139 -1.0972
 1256TIP3    H225184   1.729   0.161  12.751  0.5724 -0.1308 -0.3907
 1257TIP3   OH225185   2.872   1.312  12.449  0.5248  0.2747 -0.0630
 1257TIP3    H125186   2.890   1.310  12.543 -1.8466 -1.4118  0.4393
 1257TIP3    H225187   2.779   1.331  12.442  0.8801  1.5966 -2.1731
 1258TIP3   OH225188   3.546   0.743   0.854  0.4161 -0.1173 -0.1456
 1258TIP3    H125189   3.557   0.764   0.761 -0.5921 -1.6124 -0.6316
 1258TIP3    H225190   3.499   0.818   0.890  0.1124  0.1221 -1.0150
 1259TIP3   OH225191   6.017   0.196   4.891  0.3019 -0.2516 -0.1979
 1259TIP3    H125192   6.055   0.108   4.893  1.5302  0.2088 -1.6113
 1259TIP3    H225193   5.983   0.206   4.802 -0.8281  0.3260  0.2673
 1260TIP3   OH225194   0.536   3.369   2.625  0.3609 -0.2157  0.3630
 1260TIP3    H125195   0.610   3.331   2.673  1.1121  1.3673  0.5371
 1260TIP3    H225196   0.560   3.358   2.532 -0.0729 -1.3356  0.3662
 1261TIP3   OH225197   1.159   0.563  15.670  0.1573  0.0029  0.0277
 1261TIP3    H125198   1.236   0.585  15.724  1.7994 -1.3237 -1.6272
 1261TIP3    H225199   1.108   0.503  15.724  0.3232  0.8232  1.1240
 1262TIP3   OH225200   3.731   0.734   0.577 -0.0289 -0.2877  0.2313
 1262TIP3    H125201   3.662   0.671   0.556  0.1507 -0.8039  1.1102
 1262TIP3    H225202   3.804   0.709   0.521  0.0043 -0.8031  0.4958
 1263TIP3   OH225203   3.636   3.541   0.229 -0.7068  0.2496 -0.5800
 1263TIP3    H125204   3.728   3.523   0.207 -0.7905  0.6219 -1.2807
 1263TIP3    H225205   3.621   3.493   0.310 -0.2321 -0.8382 -1.1055
 1264TIP3   OH225206   0.959   6.086   4.785 -0.1953 -0.3365 -0.4580
 1264TIP3    H125207   0.907   6.104   4.707 -0.3866  0.7538 -0.0990
 1264TIP3    H225208   0.895   6.079   4.855  0.0182 -0.7424 -0.3016
 1265TIP3   OH225209   1.882   2.329  15.154  0.2186  0.2429  0.2897
 1265TIP3    H125210   1.869   2.269  15.080 -0.4145  1.0373 -0.2584
 1265TIP3    H225211   1.808   2.390  15.149  1.9301  2.3950 -0.4467
 1266TIP3   OH225212   6.428   3.923  11.344 -0.3693  0.6647 -0.0196
 1266TIP3    H125213   6.432   3.980  11.421  0.5395  1.0636 -0.3498
 1266TIP3    H225214   6.426   3.834  11.379  1.2121  0.8003  0.4565
 1267TIP3   OH225215   1.041   3.989  16.480 -0.6346  0.2070 -0.1736
 1267TIP3    H125216   1.133   4.007  16.461 -0.7690  0.9703 -0.1329
 1267TIP3    H225217   1.030   4.015  16.572 -0.9966  0.5746 -0.3151
 1268TIP3   OH225218   0.102   6.734   2.094  0.2210 -0.1006  0.4448
 1268TIP3    H125219   0.100   6.826   2.068 -0.9384 -0.0613  0.6364
 1268TIP3    H225220   0.018   6.720   2.137  0.8025 -0.9878  1.3204
 1269TIP3   OH225221   6.594   2.623  13.410 -0.7236  0.5465  0.4496
 1269TIP3    H125222   6.682   2.661  13.416 -0.9097  0.7558  2.4790
 1269TIP3    H225223   6.606   2.541  13.363  0.3347  1.1933 -0.4551
 1270TIP3   OH225224   6.263   0.795  16.471  0.0878 -0.1474  0.4102
 1270TIP3    H125225   6.242   0.702  16.485  1.3671 -0.6283 -0.7057
 1270TIP3    H225226   6.264   0.806  16.376  0.2128  0.9594  0.5253
 1271TIP3   OH225227   1.372   5.871  15.867  0.3030 -0.0503  0.2015
 1271TIP3    H125228   1.440   5.883  15.934 -0.5454  0.4681  0.9816
 1271TIP3    H225229   1.349   5.959  15.840 -1.0711 -0.1453  0.9875
 1272TIP3   OH225230   3.517   2.629   3.815 -1.2082 -0.0234  0.5448
 1272TIP3    H125231   3.573   2.561   3.778 -1.6441  0.8503 -1.8632
 1272TIP3    H225232   3.455   2.581   3.871  0.1403 -1.2773  1.0318
 1273TIP3   OH225233   4.347   4.082   0.617 -0.3753 -0.6032 -0.1044
 1273TIP3    H125234   4.274   4.104   0.558  0.1924 -2.7799 -1.7468
 1273TIP3    H225235   4.316   4.006   0.666  0.6471 -1.3563 -0.5939
 1274TIP3   OH225236   1.436   3.291   1.957  0.6235 -0.3382 -0.1257
 1274TIP3    H125237   1.476   3.275   1.871  1.8171 -0.2961  0.3998
 1274TIP3    H225238   1.482   3.231   2.016 -0.8049 -1.0156  0.3377
 1275TIP3   OH225239   0.358   5.659   5.963  0.3354 -0.7273 -0.1566
 1275TIP3    H125240   0.264   5.654   5.983  0.4459  1.0877  1.1509
 1275TIP3    H225241   0.379   5.575   5.924 -1.7421 -1.3653 -0.0365
 1276TIP3   OH225242   5.754   3.060  14.671 -0.0576  0.2161  0.6133
 1276TIP3    H125243   5.679   3.017  14.712  1.1745 -2.9263 -0.0736
 1276TIP3    H225244   5.826   2.999  14.686  2.5347  3.2699  1.5799
 1277TIP3   OH225245   3.260   6.411   1.966 -0.6090 -0.1642 -0.5694
 1277TIP3    H125246   3.262   6.402   1.870 -4.3525  2.0429 -1.0652
 1277TIP3    H225247   3.340   6.460   1.987 -1.0343  1.8097 -3.0452
 1278TIP3   OH225248   5.399   2.152   2.931 -0.3496  0.2792  0.1139
 1278TIP3    H125249   5.385   2.170   3.024 -0.0814  0.8839  0.0397
 1278TIP3    H225250   5.444   2.067   2.930  3.6792  2.1752  0.8329
 1279TIP3   OH225251   2.798   2.193  16.568 -0.3942 -0.0263 -0.4748
 1279TIP3    H125252   2.853   2.120  16.597 -0.4686  0.4682  1.0213
 1279TIP3    H225253   2.848   2.235  16.498 -0.1433 -1.2253 -1.0284
 1280TIP3   OH225254   3.427   0.726  15.697  0.0812  0.0810  0.1031
 1280TIP3    H125255   3.405   0.686  15.781 -1.0580  0.3646 -0.0515
 1280TIP3    H225256   3.384   0.811  15.699 -1.5387 -0.6273 -1.4925
 1281TIP3   OH225257   1.906   4.542  14.964 -0.0408 -0.0522 -0.1705
 1281TIP3    H125258   1.937   4.615  14.911 -0.9377  1.2754  1.0445
 1281TIP3    H225259   1.939   4.560  15.052 -0.5957 -0.9086  0.2316
 1282TIP3   OH225260   1.134   0.024  11.529  0.7423  0.3654 -0.3753
 1282TIP3    H125261   1.051   0.032  11.482  1.1519  2.0624 -0.8586
 1282TIP3    H225262   1.119  -0.048  11.591 -0.9520  0.3904 -0.6991
 1283TIP3   OH225263   3.496   2.051  15.329  0.0798 -0.2339 -0.4238
 1283TIP3    H125264   3.410   2.037  15.288 -0.1934  1.6057 -0.5266
 1283TIP3    H225265   3.540   2.113  15.272  0.6954  0.3989  0.7183
 1284TIP3   OH225266   6.793   0.948  11.630 -0.0234 -0.0581 -0.3657
 1284TIP3    H125267   6.838   0.865  11.617 -2.9089 -1.8806  0.2279
 1284TIP3    H225268   6.746   0.963  11.548  0.5574  1.1011 -0.5121
 1285TIP3   OH225269   2.157   1.202  13.795  0.0852  0.2239 -0.3437
 1285TIP3    H125270   2.198   1.119  13.820  3.8962  1.2022 -2.5298
 1285TIP3    H225271   2.071   1.200  13.838 -0.3989 -5.1173 -0.8735
 1286TIP3   OH225272   2.906   0.819  14.111 -0.4648 -0.2151  0.1556
 1286TIP3    H125273   2.946   0.777  14.188  0.9729 -1.3047 -1.1142
 1286TIP3    H225274   2.977   0.822  14.047 -2.1511 -1.3223 -1.8834
 1287TIP3   OH225275   3.129   3.826  12.093 -0.6649 -0.4566 -0.6193
 1287TIP3    H125276   3.096   3.752  12.042  0.4485 -0.0866 -1.9378
 1287TIP3    H225277   3.224   3.824  12.078 -0.5926  1.0970 -0.4707
 1288TIP3   OH225278   3.301   6.114  16.717  0.1896 -0.0285  0.1646
 1288TIP3    H125279   3.215   6.137  16.682  0.3047  0.9817  0.5130
 1288TIP3    H225280   3.281   6.076  16.803  0.1318  1.2625  0.7513
 1289TIP3   OH225281   3.288   6.302  14.674  0.6063  0.7857 -0.2534
 1289TIP3    H125282   3.248   6.259  14.599  2.8393 -0.6012 -0.7499
 1289TIP3    H225283   3.289   6.236  14.743  0.6163  1.3079  0.2640
 1290TIP3   OH225284   2.261   0.044  11.736  0.8699  0.0366 -0.0650
 1290TIP3    H125285   2.248   0.062  11.643 -1.1427  1.5524  0.4352
 1290TIP3    H225286   2.353   0.065  11.752  1.2497 -0.2114 -1.6771
 1291TIP3   OH225287   0.739   2.802   0.217  0.0566 -0.0892  0.6704
 1291TIP3    H125288   0.828   2.770   0.205  0.4832  1.3913 -0.3875
 1291TIP3    H225289   0.742   2.893   0.187 -1.7349  0.0856  0.9207
 1292TIP3   OH225290   4.616   3.220   1.845  0.8616 -0.4850  0.3776
 1292TIP3    H125291   4.677   3.157   1.883  3.2812  2.2725  1.4316
 1292TIP3    H225292   4.559   3.245   1.917  0.8015 -0.4514  0.3183
 1293TIP3   OH225293   4.620   1.931  14.217 -0.1349 -0.3120 -0.1425
 1293TIP3    H125294   4.638   1.853  14.269  0.7810  0.6060  0.9698
 1293TIP3    H225295   4.529   1.954  14.237 -0.1748 -0.6718  0.0819
 1294TIP3   OH225296   1.368   4.119   2.525 -0.0329 -0.1325  0.3746
 1294TIP3    H125297   1.332   4.114   2.613  0.8291  0.8899  0.8139
 1294TIP3    H225298   1.297   4.156   2.472 -0.1606  0.3731  0.8918
 1295TIP3   OH225299   2.171   1.693   1.163 -0.2562 -0.4266 -0.1665
 1295TIP3    H125300   2.244   1.725   1.216 -1.6822 -1.1760  2.4204
 1295TIP3    H225301   2.206   1.617   1.117  0.9626  0.0668 -0.1018
 1296TIP3   OH225302   5.646   4.895  15.143 -0.5512  0.2143 -0.0520
 1296TIP3    H125303   5.594   4.904  15.063 -1.2182 -0.3742  0.3107
 1296TIP3    H225304   5.735   4.881  15.111 -0.8649 -0.3692 -0.7023
 1297TIP3   OH225305   5.065   0.707  12.082  0.5134 -0.6040  0.8296
 1297TIP3    H125306   5.080   0.769  12.154  1.2961 -0.0167  0.1723
 1297TIP3    H225307   4.970   0.711  12.066  0.5144  0.1723  1.0048
 1298TIP3   OH225308   2.391   4.742  16.081  0.1058  0.1464 -0.2691
 1298TIP3    H125309   2.403   4.677  16.151 -1.0797  0.7939  0.5781
 1298TIP3    H225310   2.377   4.825  16.128  1.8617  1.1209 -1.3176
 1299TIP3   OH225311   2.597   0.252   3.579 -0.4814  0.4989  0.0163
 1299TIP3    H125312   2.516   0.212   3.612 -0.4602  0.4668  0.0292
 1299TIP3    H225313   2.665   0.188   3.598 -0.8712 -0.9229 -2.7930
 1300TIP3   OH225314   6.209   1.644   4.094  0.3944  0.0257 -0.2404
 1300TIP3    H125315   6.204   1.598   4.177  1.5890 -2.0313 -1.2223
 1300TIP3    H225316   6.252   1.727   4.114  1.4042 -0.7809  1.0550
 1301TIP3   OH225317   0.399   2.072  15.516  0.4653  0.1271 -0.2046
 1301TIP3    H125318   0.378   1.987  15.555 -0.4543  0.3810 -0.1167
 1301TIP3    H225319   0.481   2.098  15.557 -0.6372  0.5431  1.8357
 1302TIP3   OH225320   2.420   1.530  16.059 -0.4581  0.3373 -0.5347
 1302TIP3    H125321   2.390   1.446  16.095 -0.5908 -0.1138 -1.6477
 1302TIP3    H225322   2.499   1.550  16.109 -1.4302  0.4817  0.9984
 1303TIP3   OH225323   4.961   2.580  11.719  0.1731 -0.3271 -0.6506
 1303TIP3    H125324   4.999   2.657  11.761  1.3474 -0.6749 -1.0658
 1303TIP3    H225325   4.870   2.579  11.750  1.2416 -1.2393  2.9339
 1304TIP3   OH225326   3.708   2.919   3.607 -0.2407 -0.0162  0.2829
 1304TIP3    H125327   3.650   2.981   3.563 -1.9327 -2.6791 -1.6140
 1304TIP3    H225328   3.777   2.901   3.543 -1.1862 -1.8798 -0.2871
 1305TIP3   OH225329   1.971   0.376  13.140  1.2302 -0.3611  0.1320
 1305TIP3    H125330   2.056   0.333  13.135  1.9073  1.0744 -2.1253
 1305TIP3    H225331   1.986   0.454  13.194  1.1885 -0.4565  0.2810
 1306TIP3   OH225332   5.739   2.200  12.281  0.3474 -0.0575 -0.2442
 1306TIP3    H125333   5.795   2.137  12.236 -1.2563 -0.1439 -2.3121
 1306TIP3    H225334   5.740   2.277  12.225  0.1448  0.7473  0.8299
 1307TIP3   OH225335   6.412   2.829  13.053  0.4830 -0.4517 -0.2691
 1307TIP3    H125336   6.395   2.741  13.020  0.2582  0.4502 -2.8482
 1307TIP3    H225337   6.330   2.876  13.039  0.5542  0.1731  1.1902
 1308TIP3   OH225338   3.974   5.570  13.172  0.0839  0.0597  0.1017
 1308TIP3    H125339   3.933   5.629  13.235  0.6783  0.4780  0.1076
 1308TIP3    H225340   3.983   5.487  13.218 -2.1677 -0.5155 -0.4021
 1309TIP3   OH225341   0.400   1.314   2.519  0.4905  0.6742  0.6236
 1309TIP3    H125342   0.425   1.289   2.608 -0.3963 -1.7053  0.2799
 1309TIP3    H225343   0.393   1.231   2.471  0.1338  1.8267 -1.4563
 1310TIP3   OH225344   4.398   3.639   4.648  0.2557 -0.2082 -0.1443
 1310TIP3    H125345   4.424   3.626   4.557  1.8452  0.0159  0.2574
 1310TIP3    H225346   4.378   3.733   4.654  1.9114  0.1612  0.1289
 1311TIP3   OH225347   2.084   4.141  15.506  0.6799 -0.0607 -0.2062
 1311TIP3    H125348   2.049   4.229  15.523 -1.4010 -1.1681  1.7849
 1311TIP3    H225349   2.128   4.117  15.587 -0.4777 -1.5735  0.0136
 1312TIP3   OH225350   4.914   3.349   2.486  0.2168  0.0755  0.0226
 1312TIP3    H125351   4.956   3.335   2.401  1.2854  0.3345  0.4961
 1312TIP3    H225352   4.901   3.261   2.522 -1.4503 -0.1186 -0.9572
 1313TIP3   OH225353   6.375   2.761  15.234  0.0313  0.0408 -0.1583
 1313TIP3    H125354   6.399   2.841  15.280 -1.0569 -0.6959  1.8083
 1313TIP3    H225355   6.415   2.690  15.285  0.1085 -0.7309 -1.2601
 1314TIP3   OH225356   1.858   0.996   4.454  0.3142  0.7419  0.3147
 1314TIP3    H125357   1.886   0.988   4.544  4.6103  1.3677 -0.7773
 1314TIP3    H225358   1.770   1.034   4.459 -1.2273 -2.6104  4.1798
 1315TIP3   OH225359   4.260   5.727  16.347  0.6183  0.0766  0.4222
 1315TIP3    H125360   4.350   5.693  16.344  0.5925 -0.0805  1.1306
 1315TIP3    H225361   4.207   5.652  16.374  0.1641 -0.0176 -0.7059
 1316TIP3   OH225362   6.729   3.888  12.726 -0.0787 -0.1029 -0.0156
 1316TIP3    H125363   6.678   3.942  12.787  0.9323 -0.1081  0.8595
 1316TIP3    H225364   6.671   3.814  12.707  0.1215 -0.9075  2.1603
 1317TIP3   OH225365   6.035   2.167  16.718  0.8020  0.2662 -0.2944
 1317TIP3    H125366   6.075   2.125  16.642  1.2372  1.1268 -0.5529
 1317TIP3    H225367   6.098   2.234  16.744  0.3365  0.4389  0.4034
 1318TIP3   OH225368   3.423   0.132  16.420  0.2682 -0.1429 -0.1567
 1318TIP3    H125369   3.402   0.180  16.500  0.2366  0.1729 -0.3530
 1318TIP3    H225370   3.347   0.077  16.404 -0.3725  0.9083 -0.8038
 1319TIP3   OH225371   0.999   0.120   1.355 -0.0211 -0.7653  0.0203
 1319TIP3    H125372   0.982   0.201   1.404 -1.7346 -1.2546  0.2678
 1319TIP3    H225373   1.037   0.061   1.420 -1.5547 -1.1448  0.6179
 1320TIP3   OH225374   2.867   1.324  12.721  0.0515 -0.1706  0.4927
 1320TIP3    H125375   2.842   1.233  12.738  0.9226 -0.6766 -0.7492
 1320TIP3    H225376   2.960   1.327  12.743  0.1756  0.2530 -0.0617
 1321TIP3   OH225377   5.467   3.860   2.636  0.5132  0.3245 -0.3322
 1321TIP3    H125378   5.498   3.798   2.569  1.5468  0.8832 -0.3951
 1321TIP3    H225379   5.546   3.903   2.667 -0.0845  0.8861  0.4512
 1322TIP3   OH225380   0.453   4.509  15.420 -0.4763  0.0541  0.4015
 1322TIP3    H125381   0.511   4.558  15.361 -1.8933  1.9155  0.4655
 1322TIP3    H225382   0.374   4.494  15.368 -1.8018  1.8280  1.7806
 1323TIP3   OH225383   6.456   6.101   3.426  0.3744  0.1533  0.6124
 1323TIP3    H125384   6.380   6.081   3.481  0.3419  2.0269  1.3259
 1323TIP3    H225385   6.494   6.180   3.466  2.3808 -0.4139 -0.0545
 1324TIP3   OH225386   6.411   4.441  16.683 -0.0872  0.1879 -0.4510
 1324TIP3    H125387   6.493   4.476  16.649 -0.1063  1.5946  0.8415
 1324TIP3    H225388   6.343   4.480  16.628  0.0554 -0.4705 -1.1122
 1325TIP3   OH225389   1.939   6.355  17.073 -0.0600  0.4227  0.0668
 1325TIP3    H125390   1.872   6.292  17.097 -0.6246  0.7708 -0.5751
 1325TIP3    H225391   1.996   6.308  17.012  0.0307  0.2672  0.2682
 1326TIP3   OH225392   0.861   1.575  12.219 -0.1492 -0.1705  0.4472
 1326TIP3    H125393   0.922   1.551  12.150 -0.9425 -2.3069  0.4154
 1326TIP3    H225394   0.790   1.622  12.174  0.5331  0.6863  0.2288
 1327TIP3   OH225395   5.290   1.656  12.064  0.2077 -0.3044  0.3649
 1327TIP3    H125396   5.262   1.567  12.042  0.0028 -0.5681  1.6432
 1327TIP3    H225397   5.209   1.702  12.086  0.5436 -0.5389  2.2144
 1328TIP3   OH225398   5.579   1.053   1.837 -0.6169  0.1158  0.4611
 1328TIP3    H125399   5.512   1.113   1.803 -0.4138  0.1962  0.2074
 1328TIP3    H225400   5.639   1.109   1.885 -0.1334  0.1916 -0.2206
 1329TIP3   OH225401   0.513   2.033   1.386  0.1815  0.0413  0.1021
 1329TIP3    H125402   0.457   2.109   1.373  0.1016  0.0966  0.7045
 1329TIP3    H225403   0.462   1.975   1.443 -0.2699 -1.0283 -1.3211
 1330TIP3   OH225404   6.635   4.304  17.014  0.2355  0.3901  0.4137
 1330TIP3    H125405   6.719   4.346  17.032  0.1192  0.6604  0.3406
 1330TIP3    H225406   6.574   4.377  17.003 -0.2645  0.1887  1.6848
 1331TIP3   OH225407   0.405   0.291  13.442  0.3962  0.1072 -0.2628
 1331TIP3    H125408   0.309   0.294  13.437  0.1140 -2.7083  1.2423
 1331TIP3    H225409   0.431   0.241  13.365  0.5611  0.0353 -0.1606
 1332TIP3   OH225410   1.747   3.435  13.175 -0.0557 -0.8315  0.7562
 1332TIP3    H125411   1.654   3.440  13.156  0.2336  2.1020 -0.4016
 1332TIP3    H225412   1.760   3.497  13.247  1.4458  1.8001 -1.5957
 1333TIP3   OH225413   4.699   5.227  14.465 -0.2941  0.5060  0.5703
 1333TIP3    H125414   4.635   5.184  14.409  1.3874 -3.7961  1.5396
 1333TIP3    H225415   4.780   5.177  14.451  1.7942  3.0973  2.3723
 1334TIP3   OH225416   1.861   5.477   1.185 -0.2072 -0.5111 -0.4893
 1334TIP3    H125417   1.833   5.563   1.217  1.5233  0.1308 -0.6305
 1334TIP3    H225418   1.799   5.416   1.226 -2.2141  0.8599 -1.3299
 1335TIP3   OH225419   2.453   5.982  14.155  0.4127 -0.1385 -0.4112
 1335TIP3    H125420   2.396   5.945  14.222  0.2962 -0.7744 -0.8555
 1335TIP3    H225421   2.524   6.023  14.204 -0.5993  0.9872  0.1584
 1336TIP3   OH225422   2.504   2.456   5.447 -0.7023  0.0692 -0.1474
 1336TIP3    H125423   2.463   2.516   5.509 -0.3107 -1.2524  1.4655
 1336TIP3    H225424   2.493   2.370   5.487  0.5801 -0.7063 -1.3802
 1337TIP3   OH225425   1.871   0.180  14.277  0.1243 -0.2009  0.4553
 1337TIP3    H125426   1.865   0.273  14.301 -0.2349 -0.2047  0.3789
 1337TIP3    H225427   1.789   0.162  14.231  1.3278  0.1653 -2.0279
 1338TIP3   OH225428   5.953   1.684  16.629 -0.1656 -0.5177 -0.0269
 1338TIP3    H125429   5.951   1.651  16.539  1.6671  0.7740 -0.6159
 1338TIP3    H225430   6.038   1.654  16.663 -1.1390 -1.6116  1.5673
 1339TIP3   OH225431   6.067   5.121   4.236  0.2483  0.1121  0.3017
 1339TIP3    H125432   6.065   5.065   4.159 -0.3645  0.9953 -0.3456
 1339TIP3    H225433   6.120   5.073   4.299  2.2446  0.1341 -1.2559
 1340TIP3   OH225434   4.536   0.710   6.180 -0.5877 -0.2538 -0.0796
 1340TIP3    H125435   4.554   0.803   6.198 -0.1021 -0.4534  0.4795
 1340TIP3    H225436   4.452   0.711   6.133  0.7964  0.6962 -2.7131
 1341TIP3   OH225437   1.711   2.861  10.630 -0.2128  0.7474 -0.4293
 1341TIP3    H125438   1.669   2.784  10.590  1.5159 -0.5779  0.1986
 1341TIP3    H225439   1.706   2.928  10.562  0.6731 -0.7718 -2.0796
 1342TIP3   OH225440   3.540   2.340  14.093 -0.3394  0.2258  0.2668
 1342TIP3    H125441   3.553   2.353  14.000 -1.3962  1.7659  0.2856
 1342TIP3    H225442   3.455   2.296  14.100  0.2806 -0.9827  0.4816
 1343TIP3   OH225443   6.706   3.461  11.549  0.1128  0.0983  0.0088
 1343TIP3    H125444   6.762   3.427  11.619 -0.0093  1.4390  0.7846
 1343TIP3    H225445   6.640   3.514  11.594  0.5317  1.6818 -1.1588
 1344TIP3   OH225446   4.971   1.151  12.029  0.0492 -0.0249  0.4192
 1344TIP3    H125447   5.031   1.113  11.965  0.1550 -0.7161  0.9127
 1344TIP3    H225448   4.940   1.076  12.080 -1.5560  0.2569 -0.0806
 1345TIP3   OH225449   0.972   4.730   5.440  0.1477 -0.1241  0.0499
 1345TIP3    H125450   1.049   4.787   5.446 -1.3348  1.8702  1.5051
 1345TIP3    H225451   0.991   4.657   5.499 -0.5276  2.3535  3.6664
 1346TIP3   OH225452   5.239   5.997  11.151 -0.3894  0.4845  0.5726
 1346TIP3    H125453   5.200   6.047  11.079  0.3789  0.7176  0.3056
 1346TIP3    H225454   5.269   5.916  11.110 -0.3246  0.4374  0.7124
 1347TIP3   OH225455   3.709   0.295   2.602  0.3541 -0.1860 -0.5090
 1347TIP3    H125456   3.694   0.317   2.694  0.7857  2.1578 -0.9296
 1347TIP3    H225457   3.804   0.295   2.592  0.3490 -1.5547 -0.7422
 1348TIP3   OH225458   5.309   0.744   6.652  0.0907 -0.4779  0.1976
 1348TIP3    H125459   5.394   0.708   6.676 -0.8321 -1.6807  1.8839
 1348TIP3    H225460   5.291   0.708   6.566  1.7336  0.6763 -0.6812
 1349TIP3   OH225461   2.508   6.045   4.668  0.0973 -0.0584 -0.5853
 1349TIP3    H125462   2.460   5.983   4.613  0.2006  0.6264 -1.4716
 1349TIP3    H225463   2.493   6.130   4.627  0.4261  0.4284  0.2816
 1350TIP3   OH225464   4.164   1.910  13.525  0.2084  0.3416  0.5443
 1350TIP3    H125465   4.220   1.985  13.503 -2.3420  1.7666 -1.7293
 1350TIP3    H225466   4.088   1.949  13.567 -1.9427 -0.6450 -2.1548
 1351TIP3   OH225467   0.023   1.757  10.702  0.0768 -0.1745  0.2621
 1351TIP3    H125468   0.116   1.747  10.721  1.0694  1.2486 -3.1074
 1351TIP3    H225469   0.014   1.727  10.612 -2.9291 -0.9937  0.7350
 1352TIP3   OH225470   6.213   2.320   1.910  0.3853  0.3650  0.1503
 1352TIP3    H125471   6.213   2.242   1.965  2.2392  0.8446  0.9008
 1352TIP3    H225472   6.245   2.290   1.825  1.0352  0.2999  0.4196
 1353TIP3   OH225473   3.833   3.256   0.068 -0.4633  0.2907 -0.0185
 1353TIP3    H125474   3.785   3.322   0.018 -0.9790  0.6423  0.9101
 1353TIP3    H225475   3.837   3.291   0.157  0.6805 -0.1860  0.1404
 1354TIP3   OH225476   2.931   4.773   1.330 -0.3276 -0.0651 -0.1178
 1354TIP3    H125477   3.019   4.797   1.357  0.7721 -1.9534 -1.7158
 1354TIP3    H225478   2.927   4.678   1.342 -0.8536 -0.5510 -3.2846
 1355TIP3   OH225479   5.048   3.207   2.765  0.5302  0.1508 -0.2040
 1355TIP3    H125480   5.095   3.282   2.727 -1.9195  1.2400 -1.2999
 1355TIP3    H225481   4.996   3.172   2.693 -0.9700 -0.4594  1.1073
 1356TIP3   OH225482   4.401   5.126   1.607  1.2571 -0.6010 -0.1608
 1356TIP3    H125483   4.320   5.074   1.612  1.2866 -0.7476 -1.0638
 1356TIP3    H225484   4.373   5.210   1.571  1.5335 -0.7293 -0.6830
 1357TIP3   OH225485   5.109   0.973   4.221 -0.2164 -0.1870  0.2416
 1357TIP3    H125486   5.034   0.979   4.161 -0.0956 -0.8152  0.0207
 1357TIP3    H225487   5.142   0.884   4.209  1.7839  0.6563 -1.1138
 1358TIP3   OH225488   5.729   0.125   2.004  0.5683  0.0139  0.2926
 1358TIP3    H125489   5.775   0.050   1.966 -1.4545 -0.3539 -1.6337
 1358TIP3    H225490   5.695   0.093   2.087 -0.6477 -1.4286 -0.7066
 1359TIP3   OH225491   1.847   2.586   0.045  0.0768  0.6274  0.1304
 1359TIP3    H125492   1.790   2.517   0.010  1.0203 -0.5589  0.8578
 1359TIP3    H225493   1.929   2.542   0.064  1.5809  2.4713 -1.6586
 1360TIP3   OH225494   4.466   6.543   1.485 -0.5385 -0.1177  0.3310
 1360TIP3    H125495   4.509   6.470   1.530 -0.7321  1.0905  2.6342
 1360TIP3    H225496   4.373   6.531   1.503 -0.8711 -0.7802 -1.6404
 1361TIP3   OH225497   5.737   0.849   2.849 -0.1212 -0.8088 -0.6920
 1361TIP3    H125498   5.731   0.870   2.942 -1.0703 -1.6761 -0.5279
 1361TIP3    H225499   5.661   0.892   2.810 -0.8088 -1.9656 -0.7146
 1362TIP3   OH225500   5.268   1.611  14.755 -0.1240 -0.5362 -0.4564
 1362TIP3    H125501   5.231   1.523  14.754  0.8531 -0.9674  0.4095
 1362TIP3    H225502   5.347   1.604  14.808 -0.9537  1.2474  1.1091
 1363TIP3   OH225503   0.578   3.263  12.437 -0.3454  0.6581  0.5438
 1363TIP3    H125504   0.590   3.237  12.528  0.5164 -0.3157  0.1708
 1363TIP3    H225505   0.487   3.291  12.432 -1.2217 -1.8792  1.0859
 1364TIP3   OH225506   0.419   1.200   4.789  0.1395 -0.2768 -0.3134
 1364TIP3    H125507   0.461   1.279   4.756 -2.6947  0.9428 -1.2428
 1364TIP3    H225508   0.429   1.136   4.718  1.8252 -0.5909  0.1628
 1365TIP3   OH225509   1.785   2.977   5.842  0.2830  0.2629  0.3591
 1365TIP3    H125510   1.807   2.983   5.935 -1.5951 -3.1752  1.1732
 1365TIP3    H225511   1.844   2.909   5.808  0.9114  1.4404 -1.0284
 1366TIP3   OH225512   1.788   0.840  16.032  0.1388  0.0513 -0.2524
 1366TIP3    H125513   1.861   0.866  15.976  0.9851 -0.2958  0.6594
 1366TIP3    H225514   1.754   0.922  16.067 -0.8585  0.3341 -1.7895
 1367TIP3   OH225515   3.868   3.593   3.741 -0.0201 -0.4519  0.2581
 1367TIP3    H125516   3.870   3.577   3.836 -0.4472 -3.3492 -0.1570
 1367TIP3    H225517   3.786   3.642   3.728  1.1822  2.1459  1.5728
 1368TIP3   OH225518   4.449   1.391  15.779  0.4132 -0.3520  0.3401
 1368TIP3    H125519   4.495   1.311  15.753 -0.8080 -0.6781 -0.9551
 1368TIP3    H225520   4.513   1.461  15.767  1.0384 -0.9634  0.0427
 1369TIP3   OH225521   4.489   0.976  14.430 -0.0851  0.2341 -0.7186
 1369TIP3    H125522   4.474   0.999  14.338  0.3539  0.4153 -0.7460
 1369TIP3    H225523   4.401   0.970  14.468 -0.3006 -0.6220 -1.3365
 1370TIP3   OH225524   4.432   3.323  12.207 -0.5180  0.1673 -0.1577
 1370TIP3    H125525   4.388   3.265  12.269 -0.9458  1.1630  0.4814
 1370TIP3    H225526   4.363   3.379  12.173 -0.2725 -0.2745 -1.4634
 1371TIP3   OH225527   1.885   5.859   4.188  0.5872  0.8393  0.1801
 1371TIP3    H125528   1.951   5.913   4.145  1.4612  1.5757  2.3078
 1371TIP3    H225529   1.805   5.912   4.185  1.0099  1.5162  0.7473
 1372TIP3   OH225530   4.759   5.095   1.256 -0.7655  0.0954  0.1218
 1372TIP3    H125531   4.849   5.127   1.254 -0.7760  0.2380  1.4415
 1372TIP3    H225532   4.763   5.013   1.304 -1.0485 -0.9758 -1.5756
 1373TIP3   OH225533   0.791   4.881   6.096  0.1308 -0.1393 -0.1692
 1373TIP3    H125534   0.759   4.829   6.170 -0.4535 -1.8008 -1.5321
 1373TIP3    H225535   0.729   4.953   6.088 -0.4494 -0.5820  0.2615
 1374TIP3   OH225536   4.620   2.218  16.290 -0.0154 -0.0823  0.1370
 1374TIP3    H125537   4.637   2.292  16.348 -0.3403 -0.0954  0.2522
 1374TIP3    H225538   4.680   2.231  16.217 -0.2101  0.4106  0.0555
 1375TIP3   OH225539   1.352   6.708  10.802  0.2337 -0.0667 -0.5607
 1375TIP3    H125540   1.438   6.677  10.828  0.0028 -0.9392 -0.8224
 1375TIP3    H225541   1.340   6.789  10.852  0.3281 -1.0364  1.1163
 1376TIP3   OH225542   6.185   0.141  15.165  0.5486 -0.2765  0.1788
 1376TIP3    H125543   6.171   0.152  15.071 -1.0619  1.0114  0.5138
 1376TIP3    H225544   6.201   0.047  15.176  0.1135 -0.5552 -1.3075
 1377TIP3   OH225545   0.410   2.795   2.424 -0.6128  0.0400  0.9005
 1377TIP3    H125546   0.489   2.789   2.477 -0.7179 -0.4537  1.0095
 1377TIP3    H225547   0.372   2.707   2.428  0.2635 -0.5094 -1.3375
 1378TIP3   OH225548   0.630   0.823  14.342  0.1683  0.0231  0.2137
 1378TIP3    H125549   0.587   0.908  14.332  1.0400  0.3463 -0.9725
 1378TIP3    H225550   0.720   0.845  14.366  0.0725 -0.6114  1.1923
 1379TIP3   OH225551   6.411   5.146  10.508  0.5152  0.2733 -0.1791
 1379TIP3    H125552   6.495   5.122  10.546  0.0084  2.2555  2.4686
 1379TIP3    H225553   6.409   5.241  10.513 -2.1510  0.2527  0.4764
 1380TIP3   OH225554   3.100   4.993   1.147  0.2541 -0.4670  0.6411
 1380TIP3    H125555   3.066   5.058   1.209 -0.2079  0.8069 -0.8769
 1380TIP3    H225556   3.025   4.936   1.130  0.2363 -0.5107  0.8573
 1381TIP3   OH225557   4.185   1.983  15.445  0.3278  0.2042  0.5089
 1381TIP3    H125558   4.113   1.937  15.403 -0.2154  0.9893  0.5413
 1381TIP3    H225559   4.188   1.947  15.533 -1.4141  1.5732  1.2066
 1382TIP3   OH225560   5.654   4.951  16.945 -1.1135  0.0591  0.4942
 1382TIP3    H125561   5.643   4.883  17.012 -2.9203 -0.6342 -0.4454
 1382TIP3    H225562   5.612   5.028  16.983  1.4221  0.9094  1.7959
 1383TIP3   OH225563   3.638   0.711   2.475  0.6773 -0.4752  0.1667
 1383TIP3    H125564   3.725   0.699   2.515  0.4715 -1.1821  0.4017
 1383TIP3    H225565   3.656   0.716   2.381  0.8778 -1.6001  0.1367
 1384TIP3   OH225566   2.760   4.571  13.602  0.0328 -0.3964  0.3110
 1384TIP3    H125567   2.833   4.511  13.590  3.1759  3.3247 -1.5077
 1384TIP3    H225568   2.686   4.528  13.559  1.9438 -3.0466 -0.5486
 1385TIP3   OH225569   4.073   5.902  10.807  0.1889  0.3158 -0.3434
 1385TIP3    H125570   4.137   5.847  10.762 -0.1980  1.8172 -2.8933
 1385TIP3    H225571   3.989   5.877  10.768 -0.3505  0.7464  0.5218
 1386TIP3   OH225572   4.679   0.817   3.593 -0.2331  0.1265  0.4017
 1386TIP3    H125573   4.709   0.900   3.555  2.1657  0.0734  2.0095
 1386TIP3    H225574   4.589   0.808   3.561  0.2191  2.1623 -1.7146
 1387TIP3   OH225575   0.547   2.339   5.569 -0.6623  0.0577  0.0084
 1387TIP3    H125576   0.573   2.356   5.660 -2.2805  0.8814  0.3443
 1387TIP3    H225577   0.534   2.426   5.531 -0.5124 -0.2933 -0.8709
 1388TIP3   OH225578   1.174   0.660  14.645 -0.3343 -0.2962  0.4226
 1388TIP3    H125579   1.091   0.612  14.648 -1.0063  0.5559 -2.0590
 1388TIP3    H225580   1.193   0.681  14.736 -2.1655 -1.6321  1.1748
 1389TIP3   OH225581   1.467   4.041  15.314  0.0705  0.8333 -0.2585
 1389TIP3    H125582   1.555   4.053  15.349 -0.4039  3.2582  0.2648
 1389TIP3    H225583   1.477   4.051  15.219  0.4988  0.0435 -0.3028
 1390TIP3   OH225584   4.867   6.377   0.766  0.3055 -0.0404  0.1636
 1390TIP3    H125585   4.866   6.453   0.708  2.0671 -1.2158 -1.4974
 1390TIP3    H225586   4.775   6.366   0.792 -0.0316  2.5225  0.3678
 1391TIP3   OH225587   0.345   1.068  15.277 -0.2188 -0.4309  0.1196
 1391TIP3    H125588   0.423   1.096  15.325  0.6804 -1.4718 -0.6826
 1391TIP3    H225589   0.347   0.973  15.282 -0.3916 -0.5470 -1.5096
 1392TIP3   OH225590   0.201   6.735   1.487 -0.0634  0.3586  0.1006
 1392TIP3    H125591   0.260   6.801   1.524  0.6456  0.4293 -1.0846
 1392TIP3    H225592   0.149   6.706   1.561  0.4431  1.3734  0.8977
 1393TIP3   OH225593   2.145   6.756  15.276 -0.3750 -0.0496 -0.2163
 1393TIP3    H125594   2.218   6.817  15.268  0.2617 -0.7094  0.3513
 1393TIP3    H225595   2.090   6.793  15.345 -0.2635  0.1502 -0.2339
 1394TIP3   OH225596   3.411   1.387   6.486 -0.2542 -0.0212  0.3071
 1394TIP3    H125597   3.382   1.455   6.547  0.6052  1.4460 -0.8501
 1394TIP3    H225598   3.347   1.317   6.496 -2.1252  1.6142  0.4199
 1395TIP3   OH225599   2.705   3.895   5.397  0.3020 -0.0711  0.2618
 1395TIP3    H125600   2.624   3.944   5.385 -0.8703 -2.4682 -3.0358
 1395TIP3    H225601   2.717   3.891   5.492 -3.2733  0.6124  0.8715
 1396TIP3   OH225602   3.647   2.390   3.065 -0.1776  0.4221 -0.2515
 1396TIP3    H125603   3.575   2.428   3.114 -1.1858  0.5369 -1.7647
 1396TIP3    H225604   3.681   2.321   3.122 -0.8743  0.9869  0.8691
 1397TIP3   OH225605   3.201   2.204   3.810  0.3292 -1.1304  0.2421
 1397TIP3    H125606   3.214   2.266   3.738  0.4489 -1.5806 -0.1364
 1397TIP3    H225607   3.279   2.149   3.807 -0.7418 -2.6741 -0.8249
 1398TIP3   OH225608   0.580   1.286   5.559 -0.0089  0.0656 -0.4097
 1398TIP3    H125609   0.601   1.377   5.537 -1.2634  1.1939  2.5303
 1398TIP3    H225610   0.658   1.255   5.606 -0.0187 -0.0356 -0.4590
 1399TIP3   OH225611   2.590   3.285  10.450 -0.2374  0.0226 -0.4946
 1399TIP3    H125612   2.546   3.246  10.525 -0.0773 -0.9992 -0.9207
 1399TIP3    H225613   2.536   3.261  10.375  0.4400 -0.3149 -0.8905
 1400TIP3   OH225614   4.000   2.591   5.708 -0.3354  0.2891  0.5545
 1400TIP3    H125615   3.988   2.528   5.637  2.7329 -0.5576  0.6188
 1400TIP3    H225616   4.048   2.663   5.667  1.7163 -0.3353  1.7275
 1401TIP3   OH225617   3.933   4.060  15.698 -0.1319 -0.5112  0.3876
 1401TIP3    H125618   3.963   3.991  15.638 -1.4897  0.4255 -1.4609
 1401TIP3    H225619   3.858   4.022  15.743  0.8233 -1.1791  1.4666
 1402TIP3   OH225620   4.924   6.259  11.721  0.3387  0.1275 -0.0151
 1402TIP3    H125621   4.960   6.214  11.797  0.9397  1.0443  0.2652
 1402TIP3    H225622   4.883   6.338  11.757 -1.6572 -0.7081 -0.3685
 1403TIP3   OH225623   5.321   1.501   1.353  0.0189 -0.1199 -0.4052
 1403TIP3    H125624   5.250   1.560   1.325  1.4541  0.4406 -3.1996
 1403TIP3    H225625   5.302   1.483   1.445 -1.7104  2.9342 -0.0356
 1404TIP3   OH225626   0.730   0.707   0.057  0.5243 -0.7893 -0.4267
 1404TIP3    H125627   0.653   0.739   0.104  1.4594 -2.1800  2.2373
 1404TIP3    H225628   0.694   0.666  -0.022 -1.1238  1.5176 -0.9634
 1405TIP3   OH225629   6.476   5.840  10.927 -0.2529 -0.1390  0.2585
 1405TIP3    H125630   6.477   5.925  10.883 -0.9071 -1.0958 -1.7236
 1405TIP3    H225631   6.396   5.841  10.979 -1.2708 -0.1935 -1.2297
 1406TIP3   OH225632   0.647   1.970   3.006  0.3826  0.2882 -0.0799
 1406TIP3    H125633   0.677   1.888   3.044 -1.4163 -1.0555 -1.3661
 1406TIP3    H225634   0.637   1.950   2.913 -2.3978  1.2116 -0.0471
 1407TIP3   OH225635   1.625   3.920   5.353  0.2359 -0.3132 -0.5208
 1407TIP3    H125636   1.626   4.005   5.398  1.8858  1.6693 -3.8174
 1407TIP3    H225637   1.547   3.924   5.297 -1.4054 -2.4224  1.4412
 1408TIP3   OH225638   5.675   4.393   0.067  0.1156 -0.5215  0.2285
 1408TIP3    H125639   5.681   4.423   0.158  0.0390  0.4017 -0.0525
 1408TIP3    H225640   5.614   4.320   0.070 -1.0519  0.4214  0.7312
 1409TIP3   OH225641   2.094   6.342   0.235  0.1546  0.5034  0.1743
 1409TIP3    H125642   2.186   6.366   0.251  0.4038 -0.3016 -0.0212
 1409TIP3    H225643   2.088   6.338   0.139 -0.2681  1.2452  0.1672
 1410TIP3   OH225644   5.967   6.595   1.181 -0.1466 -0.0689  0.3797
 1410TIP3    H125645   6.008   6.515   1.217 -1.2036  0.0935  2.0566
 1410TIP3    H225646   5.931   6.568   1.097  2.8901 -0.3473 -0.9651
 1411TIP3   OH225647   5.536   2.867   6.102 -0.1764 -0.1254  0.3798
 1411TIP3    H125648   5.508   2.945   6.056 -0.1542  0.2088  0.9254
 1411TIP3    H225649   5.632   2.871   6.103 -0.1971  0.5090  1.5209
 1412TIP3   OH225650   6.430   5.496   2.745 -0.4002  0.3390 -0.6350
 1412TIP3    H125651   6.408   5.447   2.824  0.9876  0.6860  0.0060
 1412TIP3    H225652   6.349   5.541   2.720 -1.1631 -0.7230 -0.1096
 1413TIP3   OH225653   0.285   2.035   1.953  0.2611  0.2037 -0.3684
 1413TIP3    H125654   0.360   1.980   1.931  0.5481  0.6623 -0.5379
 1413TIP3    H225655   0.320   2.101   2.013  0.5706  1.9285 -2.3287
 1414TIP3   OH225656   0.638   5.378   2.554 -0.0855 -0.2094  0.0136
 1414TIP3    H125657   0.572   5.388   2.486  1.0756 -1.9211 -1.4583
 1414TIP3    H225658   0.670   5.288   2.543  0.9534 -0.1618  2.0984
 1415TIP3   OH225659   1.786   3.652  13.384 -0.1237  0.3124 -0.4266
 1415TIP3    H125660   1.698   3.679  13.356 -0.9196  0.0948  1.7018
 1415TIP3    H225661   1.836   3.734  13.389 -1.1182  0.8726  1.2594
 1416TIP3   OH225662   3.070   4.708   1.009  0.0946  0.1789 -0.1149
 1416TIP3    H125663   2.994   4.762   1.030  0.4558  1.0956 -1.0589
 1416TIP3    H225664   3.143   4.771   1.005  0.9571 -0.7005  0.9774
 1417TIP3   OH225665   4.785   3.540  14.210  0.5930 -0.2259 -0.0169
 1417TIP3    H125666   4.764   3.563  14.301 -0.5113  1.9589 -0.7725
 1417TIP3    H225667   4.707   3.562  14.160  1.4858 -0.5852 -1.6489
 1418TIP3   OH225668   3.253   2.664  16.995 -0.5970 -0.2142  0.2152
 1418TIP3    H125669   3.185   2.726  17.024  0.3254 -0.3266  2.8798
 1418TIP3    H225670   3.310   2.654  17.071  2.2032 -0.4737 -1.7499
 1419TIP3   OH225671   0.178   2.082  11.354 -0.3996 -0.5268 -0.4671
 1419TIP3    H125672   0.205   1.996  11.385  1.1987  0.4796  1.1616
 1419TIP3    H225673   0.091   2.095  11.391 -0.5046 -1.2846 -0.4320
 1420TIP3   OH225674   1.261   3.371   4.402  0.2368 -0.0782  0.1674
 1420TIP3    H125675   1.288   3.457   4.436  0.7210 -0.1833  0.0500
 1420TIP3    H225676   1.252   3.384   4.308  0.5256 -0.2125  0.1212
 1421TIP3   OH225677   3.507   4.764   5.890 -0.3533  0.0937 -0.0614
 1421TIP3    H125678   3.440   4.702   5.921 -0.1418  0.8375  2.0480
 1421TIP3    H225679   3.569   4.770   5.963  0.3060  1.8318 -0.7205
 1422TIP3   OH225680   6.462   1.794   3.583 -0.2141 -0.1663  0.0855
 1422TIP3    H125681   6.446   1.718   3.639  0.2174 -0.0068  0.4316
 1422TIP3    H225682   6.469   1.757   3.494 -0.7861 -0.4324  0.1438
 1423TIP3   OH225683   5.125   4.369  12.615  0.7179 -0.1745 -0.4074
 1423TIP3    H125684   5.032   4.378  12.595  0.5692  0.6227  0.5653
 1423TIP3    H225685   5.168   4.424  12.550  0.3353  1.3041  0.5480
 1424TIP3   OH225686   3.930   2.035  13.578  0.4027  0.4243 -0.0597
 1424TIP3    H125687   3.962   2.120  13.549  0.0001  0.5073 -0.2708
 1424TIP3    H225688   3.904   1.990  13.497  1.9646 -0.4789 -0.1012
 1425TIP3   OH225689   5.630   1.574   1.896  0.5052 -0.0451  0.2314
 1425TIP3    H125690   5.555   1.518   1.917 -0.3840  1.5643  1.6150
 1425TIP3    H225691   5.623   1.588   1.802 -0.0264 -1.1505  0.0791
 1426TIP3   OH225692   5.076   6.685   4.919  0.0713  0.2481  0.0915
 1426TIP3    H125693   4.997   6.710   4.871 -0.8282  2.4222  2.4600
 1426TIP3    H225694   5.119   6.768   4.940  1.3901 -0.7069  1.4260
 1427TIP3   OH225695   1.124   4.204   2.438 -0.0567  0.2392  0.6282
 1427TIP3    H125696   1.073   4.279   2.407  0.4310  0.8763  1.3358
 1427TIP3    H225697   1.107   4.200   2.532  2.9882  1.9880  1.4236
 1428TIP3   OH225698   0.090   1.262  16.862  0.5664  0.5892 -0.3157
 1428TIP3    H125699   0.110   1.331  16.799  0.7782  2.0408  1.2609
 1428TIP3    H225700  -0.005   1.269  16.876  0.2928 -0.6046 -1.4116
 1429TIP3   OH225701   1.332   5.066  17.004 -0.1007  0.1418 -0.0571
 1429TIP3    H125702   1.241   5.045  17.027 -1.2957  2.7459 -1.8875
 1429TIP3    H225703   1.327   5.096  16.913  2.8498 -0.8393 -0.6361
 1430TIP3   OH225704   5.338   2.395  16.467  0.3871 -0.1048  0.0246
 1430TIP3    H125705   5.247   2.373  16.448  0.2222  0.9097 -0.3980
 1430TIP3    H225706   5.356   2.472  16.414  1.8492 -0.9620 -0.8055
 1431TIP3   OH225707   6.722   4.465  16.806 -0.2985  0.0416  0.6989
 1431TIP3    H125708   6.806   4.463  16.760 -0.9047 -0.4352 -0.4385
 1431TIP3    H225709   6.714   4.554  16.839 -0.1911  0.6633 -0.8563
 1432TIP3   OH225710   3.084   2.254  13.937 -0.7672  0.3618 -0.2104
 1432TIP3    H125711   3.139   2.240  13.860 -0.2009  0.8140  0.1108
 1432TIP3    H225712   3.017   2.186  13.931 -0.3782  0.0243 -0.7823
 1433TIP3   OH225713   1.372   2.651  12.854  0.2148  0.2438  0.0226
 1433TIP3    H125714   1.342   2.628  12.766  0.7546 -0.3326 -0.0144
 1433TIP3    H225715   1.311   2.605  12.913 -0.0099  0.4488 -0.0509
 1434TIP3   OH225716   0.486   3.648   1.179 -0.0093 -0.1040 -0.6156
 1434TIP3    H125717   0.470   3.731   1.134 -0.2146  0.6841  0.8647
 1434TIP3    H225718   0.407   3.632   1.230  0.2995 -0.8760 -0.3609
 1435TIP3   OH225719   0.632   6.487  15.530 -0.2310  0.1185  0.4508
 1435TIP3    H125720   0.579   6.410  15.507 -0.1350  0.1254  0.2104
 1435TIP3    H225721   0.648   6.477  15.624  1.3592 -1.1480  0.0896
 1436TIP3   OH225722   2.781   5.304  16.791 -0.2751  0.0690 -0.4233
 1436TIP3    H125723   2.794   5.266  16.878  0.1266  0.2953 -0.3824
 1436TIP3    H225724   2.868   5.304  16.751 -0.3939  0.3030 -0.6880
 1437TIP3   OH225725   2.028   3.817  15.932 -0.8169 -0.1263 -0.3695
 1437TIP3    H125726   2.013   3.764  15.854  0.9787 -0.7615 -0.3412
 1437TIP3    H225727   2.095   3.769  15.981 -0.5589  1.1816  0.6299
 1438TIP3   OH225728   5.347   4.403   5.330 -0.0282 -0.0680 -0.1279
 1438TIP3    H125729   5.409   4.429   5.262 -0.8141  0.6449 -0.5866
 1438TIP3    H225730   5.297   4.331   5.291  1.3274 -1.5187  0.6997
 1439TIP3   OH225731   5.476   1.286  14.438  0.2235 -0.6609  0.1768
 1439TIP3    H125732   5.511   1.374  14.454 -0.9869 -0.2480  0.6345
 1439TIP3    H225733   5.399   1.301  14.383 -0.6811 -1.3299  1.2456
 1440TIP3   OH225734   4.856   6.602   1.664  0.0051  0.7700 -0.0301
 1440TIP3    H125735   4.935   6.636   1.707 -0.3740  2.0959 -0.3370
 1440TIP3    H225736   4.816   6.545   1.730  1.2753 -0.0356  0.0807
 1441TIP3   OH225737   1.511   4.576   4.595 -0.0414  0.2487  0.0062
 1441TIP3    H125738   1.443   4.609   4.654 -1.6194 -0.3944 -1.3693
 1441TIP3    H225739   1.581   4.548   4.653 -1.0475  0.6826  1.5054
 1442TIP3   OH225740   4.528   1.859  13.200 -0.8511  0.7641 -0.1149
 1442TIP3    H125741   4.490   1.786  13.151  1.1366 -1.2782  1.2102
 1442TIP3    H225742   4.515   1.836  13.292  0.5905  1.6478  0.3495
 1443TIP3   OH225743   0.880   0.947  16.563 -0.3304 -0.0644 -0.1701
 1443TIP3    H125744   0.887   1.042  16.553 -1.0003 -0.0725 -0.7851
 1443TIP3    H225745   0.931   0.912  16.489 -0.0814 -0.1831  0.0580
 1444TIP3   OH225746   2.968   1.815  13.887  0.0793 -0.0542 -0.1703
 1444TIP3    H125747   2.996   1.734  13.845  1.2045  1.1120 -1.7961
 1444TIP3    H225748   3.030   1.827  13.959 -0.0274 -0.5830  0.0119
 1445TIP3   OH225749   1.977   2.918  12.322  0.3181  0.1361 -0.0527
 1445TIP3    H125750   1.905   2.938  12.383 -0.0508  1.0892 -0.7689
 1445TIP3    H225751   1.993   2.824  12.334  0.6865  0.4227  1.9490
 1446TIP3   OH225752   2.483   3.322  16.488  0.2321 -0.6963 -0.0292
 1446TIP3    H125753   2.549   3.345  16.423  1.4015 -1.9565  0.6733
 1446TIP3    H225754   2.423   3.264  16.442  1.0242 -1.5386 -0.0334
 1447TIP3   OH225755   2.864   2.319   5.088 -0.1986 -0.4035  0.1926
 1447TIP3    H125756   2.799   2.251   5.105  0.4437 -0.7254  1.4737
 1447TIP3    H225757   2.942   2.290   5.134  0.9843 -0.1787 -1.5705
 1448TIP3   OH225758   0.514   3.986   1.870 -0.2462 -0.5966 -0.3501
 1448TIP3    H125759   0.501   3.991   1.965  0.9059 -0.9245 -0.1497
 1448TIP3    H225760   0.541   4.074   1.844 -1.3595 -0.2949 -0.5225
 1449TIP3   OH225761   0.625   0.194   5.243 -0.2904 -0.0869  0.5657
 1449TIP3    H125762   0.622   0.246   5.162 -1.1757  0.8631  1.1881
 1449TIP3    H225763   0.627   0.103   5.213 -1.8249  0.1976 -0.5229
 1450TIP3   OH225764   1.727   3.946   5.795  0.0638 -0.2648 -0.7871
 1450TIP3    H125765   1.726   4.041   5.788  0.3884 -0.2416 -0.5504
 1450TIP3    H225766   1.806   3.927   5.846  0.3994 -0.7031 -1.4549
 1451TIP3   OH225767   0.761   5.714   4.199  0.0204  0.1632  0.4183
 1451TIP3    H125768   0.758   5.627   4.239 -0.2862 -0.2092 -0.3956
 1451TIP3    H225769   0.674   5.751   4.218  0.0392  0.1694  0.4936
 1452TIP3   OH225770   6.021   5.582  13.783 -0.3494 -0.2600 -0.0302
 1452TIP3    H125771   5.988   5.529  13.856 -0.1797 -2.2070 -1.2771
 1452TIP3    H225772   6.090   5.636  13.823 -2.3560  1.1099  1.8380
 1453TIP3   OH225773   6.141   3.919   3.115  0.0401 -0.0179  0.5617
 1453TIP3    H125774   6.173   3.836   3.152  0.8206  0.0089 -0.0358
 1453TIP3    H225775   6.201   3.985   3.150  0.4479  0.0758 -0.2895
 1454TIP3   OH225776   0.027   5.253   3.519 -0.0010 -0.0485 -0.0342
 1454TIP3    H125777   0.064   5.228   3.435 -1.3301  1.1622 -1.0162
 1454TIP3    H225778   0.051   5.345   3.529 -2.7149  0.8173 -0.7570
 1455TIP3   OH225779   2.862   2.248  13.506  0.2523  0.0826  0.2498
 1455TIP3    H125780   2.886   2.201  13.426 -0.5881 -0.2632  0.1846
 1455TIP3    H225781   2.772   2.277  13.490 -0.1843 -0.5989  1.3282
 1456TIP3   OH225782   3.549   3.421   1.141 -0.4433 -0.3001 -0.4235
 1456TIP3    H125783   3.457   3.422   1.116 -0.4758 -0.9267 -0.3482
 1456TIP3    H225784   3.554   3.481   1.216 -0.5026  0.9022 -1.3595
 1457TIP3   OH225785   5.862   2.439   3.844  0.0999  0.5487  0.0209
 1457TIP3    H125786   5.953   2.409   3.845  0.4463  1.5145 -0.5935
 1457TIP3    H225787   5.820   2.386   3.776  0.6014  1.1348 -0.7703
 1458TIP3   OH225788   2.882   6.634  11.586  0.0974 -0.3720 -0.1781
 1458TIP3    H125789   2.856   6.586  11.665  1.6856 -0.9747  0.0336
 1458TIP3    H225790   2.862   6.574  11.514  0.9643 -0.8971 -0.0060
 1459TIP3   OH225791   6.551   1.834   2.093 -0.4592  0.5110  0.1402
 1459TIP3    H125792   6.646   1.818   2.098 -0.4853 -0.2668 -1.2732
 1459TIP3    H225793   6.543   1.924   2.062 -0.1659  0.3721 -0.3501
 1460TIP3   OH225794   4.832   3.327  13.449  0.0859  0.0730 -0.3780
 1460TIP3    H125795   4.888   3.258  13.484 -0.6294 -1.3640 -1.9344
 1460TIP3    H225796   4.889   3.381  13.394  0.4906  0.3056  0.2622
 1461TIP3   OH225797   2.233   2.531  16.110 -0.0638  0.0712 -0.2468
 1461TIP3    H125798   2.195   2.612  16.076 -2.5740 -0.5749  0.8205
 1461TIP3    H225799   2.296   2.561  16.176 -0.4760  1.1695 -0.3285
 1462TIP3   OH225800   0.113   2.312  13.568  0.3973 -0.5789 -0.4762
 1462TIP3    H125801   0.153   2.226  13.555  2.0228  0.1657 -0.6686
 1462TIP3    H225802   0.100   2.319  13.663  0.7420 -0.8291 -0.4103
 1463TIP3   OH225803   4.934   2.776  11.893 -0.4166  0.3858 -0.1087
 1463TIP3    H125804   4.850   2.735  11.874 -0.5835  0.6786  0.0025
 1463TIP3    H225805   4.933   2.789  11.987  0.1081 -0.3942  0.0154
 1464TIP3   OH225806   5.511   5.653  15.716 -0.4129 -0.2526 -0.1066
 1464TIP3    H125807   5.510   5.559  15.699 -0.2208 -0.3903  0.6188
 1464TIP3    H225808   5.595   5.669  15.759  1.0402  0.7818 -3.0483
 1465TIP3   OH225809   6.194   6.149  12.372 -0.6053 -0.4017  0.0422
 1465TIP3    H125810   6.255   6.213  12.410 -0.6387  1.2992 -2.5051
 1465TIP3    H225811   6.227   6.064  12.401 -0.5005  0.6809  3.4981
 1466TIP3   OH225812   5.167   4.966  11.027  0.0459  0.2844 -0.0311
 1466TIP3    H125813   5.181   4.909  10.951 -2.7505  0.8152 -1.0422
 1466TIP3    H225814   5.196   5.052  10.999  1.3491  0.0179  0.4230
 1467TIP3   OH225815   5.831   0.739   2.340  0.0725 -0.4473  0.5718
 1467TIP3    H125816   5.901   0.721   2.402  1.2064 -0.6186 -0.7103
 1467TIP3    H225817   5.781   0.657   2.336  1.2201 -1.1322 -0.2443
 1468TIP3   OH225818   1.908   0.223  15.346 -0.0045 -0.2784 -0.2536
 1468TIP3    H125819   1.960   0.256  15.272  0.8924 -1.7032 -0.2960
 1468TIP3    H225820   1.882   0.135  15.320  1.0242 -1.1320  1.4456
 1469TIP3   OH225821   2.047   2.827   1.182  0.1656 -0.0556  0.7107
 1469TIP3    H125822   2.026   2.883   1.257 -1.6839 -0.4470  0.5317
 1469TIP3    H225823   2.136   2.852   1.158 -0.6151  2.9500  0.5312
 1470TIP3   OH225824   3.457   6.666   1.226  0.1426  0.6643  0.1135
 1470TIP3    H125825   3.549   6.638   1.223  0.1820  0.6980  0.7993
 1470TIP3    H225826   3.410   6.598   1.178  0.3006 -0.3431  1.3304
 1471TIP3   OH225827   3.743   1.839  11.469  0.2321  0.4960 -0.2933
 1471TIP3    H125828   3.767   1.760  11.518  3.6402  0.3474 -1.9909
 1471TIP3    H225829   3.821   1.894  11.472 -0.9621  2.4012 -1.8976
 1472TIP3   OH225830   2.819   1.227   2.412  0.2123 -0.1850  0.3944
 1472TIP3    H125831   2.799   1.316   2.386 -1.6902 -0.7967 -0.4326
 1472TIP3    H225832   2.827   1.179   2.330  1.7923 -0.6953  0.8090
 1473TIP3   OH225833   5.883   2.032  13.874  0.4384 -0.1700  0.2979
 1473TIP3    H125834   5.898   2.119  13.911 -0.8289  0.0552  0.3440
 1473TIP3    H225835   5.847   1.981  13.947 -0.9040 -0.0789 -0.2598
 1474TIP3   OH225836   4.190   0.157   5.343 -0.3498  0.1145  0.5570
 1474TIP3    H125837   4.273   0.173   5.388 -0.0708  0.6878 -0.1413
 1474TIP3    H225838   4.138   0.236   5.359  0.0565  0.6775 -0.7708
 1475TIP3   OH225839   1.496   0.039  14.386  0.7156 -0.3758  0.1702
 1475TIP3    H125840   1.422   0.088  14.421 -0.8502 -2.3549 -0.1588
 1475TIP3    H225841   1.537  -0.001  14.462  0.9858  0.1061  0.2802
 1476TIP3   OH225842   1.437   5.984   6.346 -0.0335 -0.1205 -0.0567
 1476TIP3    H125843   1.352   5.996   6.389 -0.6266  0.7594 -1.4433
 1476TIP3    H225844   1.499   6.032   6.401 -1.2033  3.3599 -1.5356
 1477TIP3   OH225845   3.576   6.341  16.434  0.2027  0.1869  0.0405
 1477TIP3    H125846   3.634   6.405  16.394  1.1349  0.2224  1.3982
 1477TIP3    H225847   3.580   6.360  16.528 -2.2470  0.3865  0.1682
 1478TIP3   OH225848   4.257   5.498   0.116 -0.1516  0.3549  0.0854
 1478TIP3    H125849   4.306   5.421   0.086  0.4650  1.0927 -0.8731
 1478TIP3    H225850   4.322   5.549   0.164 -0.0584  1.1438 -0.8504
 1479TIP3   OH225851   4.105   2.460   4.059  0.1899  0.6289  0.7173
 1479TIP3    H125852   4.016   2.487   4.037  0.4374  0.3091 -0.7797
 1479TIP3    H225853   4.096   2.416   4.144 -1.2570 -0.3263  0.1151
 1480TIP3   OH225854   4.461   5.554   3.776  0.0352  0.2943 -0.2282
 1480TIP3    H125855   4.393   5.521   3.717  1.2783  0.4683 -1.8360
 1480TIP3    H225856   4.443   5.648   3.783 -1.2502 -0.0163  1.2894
 1481TIP3   OH225857   1.307   6.136  12.440 -0.2495 -0.0646  0.3980
 1481TIP3    H125858   1.381   6.076  12.445  0.4946  0.8386  0.5380
 1481TIP3    H225859   1.237   6.092  12.488  0.3622 -0.6907  0.7327
 1482TIP3   OH225860   3.789   0.149  16.069 -0.0534 -0.0855  0.6339
 1482TIP3    H125861   3.800   0.104  15.986 -0.0095 -0.2067  0.7042
 1482TIP3    H225862   3.753   0.235  16.046  1.2591  0.4231  0.3753
 1483TIP3   OH225863   6.060   1.421  13.951 -0.7994 -0.2255 -0.6224
 1483TIP3    H125864   6.041   1.335  13.988 -1.5611 -0.4940 -1.5929
 1483TIP3    H225865   5.988   1.477  13.981 -0.5024 -0.0115 -0.2973
 1484TIP3   OH225866   1.406   5.857  11.065 -0.3315  0.4484 -0.1014
 1484TIP3    H125867   1.406   5.871  10.970  0.2743  0.5658 -0.0872
 1484TIP3    H225868   1.363   5.935  11.100 -1.9024 -0.2718 -0.3619
 1485TIP3   OH225869   5.370   0.773   4.780 -0.5485 -0.1185  0.0984
 1485TIP3    H125870   5.462   0.793   4.762 -0.7350  1.0468  0.3414
 1485TIP3    H225871   5.323   0.800   4.701 -0.8445  0.7502  0.5513
 1486TIP3   OH225872   1.938   4.831  16.071  0.4171 -0.0808 -0.0904
 1486TIP3    H125873   2.020   4.829  16.120  0.9730  1.6743 -0.8572
 1486TIP3    H225874   1.928   4.743  16.037  2.4765 -0.1249 -0.7273
 1487TIP3   OH225875   2.260   3.126   6.278 -0.5082 -0.1925 -0.1423
 1487TIP3    H125876   2.310   3.208   6.273 -1.3269  0.2585 -1.3939
 1487TIP3    H225877   2.290   3.085   6.359  1.1884  0.5085 -0.3764
 1488TIP3   OH225878   1.423   4.875   3.764  0.3292  0.2643  0.0256
 1488TIP3    H125879   1.469   4.942   3.815  0.4103 -0.9039  1.5821
 1488TIP3    H225880   1.448   4.792   3.806  1.1176 -0.8714 -2.5062
 1489TIP3   OH225881   5.021   5.382  14.206  0.2837 -0.3949  0.1722
 1489TIP3    H125882   4.997   5.473  14.223  0.0418 -0.3388 -0.4676
 1489TIP3    H225883   4.939   5.334  14.210  0.2343 -0.3954 -0.7276
 1490TIP3   OH225884   1.423   0.275   2.789 -0.7202 -0.1844 -0.0812
 1490TIP3    H125885   1.425   0.353   2.734 -0.9539  0.0806  0.2799
 1490TIP3    H225886   1.509   0.235   2.779 -1.1455 -0.8226 -1.6111
 1491TIP3   OH225887   2.558   3.965   2.423  0.1153  0.4537  0.1397
 1491TIP3    H125888   2.507   3.972   2.342 -0.6702  1.2891  0.6875
 1491TIP3    H225889   2.492   3.951   2.491  0.8600 -1.8669  0.4841
 1492TIP3   OH225890   4.030   2.655  12.070 -0.0832 -0.0304  0.4303
 1492TIP3    H125891   4.042   2.647  11.976  0.2754  0.2309  0.4489
 1492TIP3    H225892   3.955   2.599  12.090 -1.6642  1.6785 -0.3523
 1493TIP3   OH225893   0.722   5.713  11.499  0.1853 -0.1775 -0.2482
 1493TIP3    H125894   0.811   5.679  11.501  0.8003  1.3956  0.3830
 1493TIP3    H225895   0.708   5.750  11.586 -1.0309 -0.2534 -0.3907
 1494TIP3   OH225896   5.315   5.244   3.557 -0.6222 -0.2341  0.8721
 1494TIP3    H125897   5.385   5.295   3.517 -1.3338  0.8653  0.9741
 1494TIP3    H225898   5.250   5.309   3.584 -2.1369 -1.2604 -0.0819
 1495TIP3   OH225899   4.102   4.764   3.803  0.1528 -0.2338  0.3699
 1495TIP3    H125900   4.079   4.727   3.718 -0.5992 -0.5904  0.7179
 1495TIP3    H225901   4.018   4.776   3.848  0.4641  0.8617  0.6971
 1496TIP3   OH225902   6.066   5.087  11.072  0.3279 -0.3871  0.3503
 1496TIP3    H125903   5.985   5.047  11.105 -1.1361  2.8221  1.1144
 1496TIP3    H225904   6.126   5.085  11.147 -0.1444 -0.1850  0.7466
 1497TIP3   OH225905   3.611   1.221   0.778 -0.0921  0.4090 -0.0490
 1497TIP3    H125906   3.663   1.166   0.837 -0.4690  0.2126  0.1006
 1497TIP3    H225907   3.608   1.307   0.821  3.0187  1.4786 -1.6650
 1498TIP3   OH225908   0.401   2.571  14.540  0.1447 -0.8929 -0.1382
 1498TIP3    H125909   0.345   2.547  14.466  1.2790  0.8224 -1.6484
 1498TIP3    H225910   0.485   2.530  14.521  1.6350  2.5329 -1.9522
 1499TIP3   OH225911   2.034   3.122   5.832 -0.5365 -0.9352  0.5439
 1499TIP3    H125912   1.980   3.043   5.821 -1.7891 -0.1547  0.8901
 1499TIP3    H225913   2.042   3.132   5.927 -3.6486  1.3963  0.7538
 1500TIP3   OH225914   0.236   1.334   1.174 -0.1880 -0.0363  0.3050
 1500TIP3    H125915   0.168   1.320   1.108  0.7726  1.6712 -1.1578
 1500TIP3    H225916   0.258   1.246   1.204 -1.3370 -0.8113 -0.9575
 1501TIP3   OH225917   4.474   3.503   0.399  0.1035  0.0390  0.5446
 1501TIP3    H125918   4.535   3.487   0.327  0.4331  0.9853  0.5962
 1501TIP3    H225919   4.389   3.474   0.366  0.6615 -1.8617  0.6862
 1502TIP3   OH225920   4.438   3.932  14.346  0.5458 -0.1879 -0.2402
 1502TIP3    H125921   4.499   3.935  14.272  0.7945  0.2556 -0.0202
 1502TIP3    H225922   4.476   3.992  14.411 -0.6233  0.8502 -0.4773
 1503TIP3   OH225923   5.832   5.430   6.275  0.4159  0.2025  0.0600
 1503TIP3    H125924   5.875   5.510   6.305 -0.6859  0.5661  0.7294
 1503TIP3    H225925   5.740   5.442   6.297 -0.2804 -0.0601 -2.3415
 1504TIP3   OH225926   5.628   5.204   1.896  0.0757  0.4593 -0.0135
 1504TIP3    H125927   5.657   5.229   1.808  2.3943 -1.5545  0.0962
 1504TIP3    H225928   5.565   5.134   1.881  1.5294 -0.8830 -0.1126
 1505TIP3   OH225929   6.013   3.282  14.527  0.2217  0.3627  0.2806
 1505TIP3    H125930   6.016   3.272  14.622  0.6347 -0.2246  0.2092
 1505TIP3    H225931   5.963   3.206  14.496 -0.5247  0.9273  0.0817
 1506TIP3   OH225932   0.856   5.901  15.071  0.7101  0.0065 -0.0691
 1506TIP3    H125933   0.872   5.887  14.978 -1.1889  1.3178 -0.6533
 1506TIP3    H225934   0.893   5.824  15.114  2.5124 -0.1559 -1.7829
 1507TIP3   OH225935   0.827   3.131   3.327 -0.0057  1.0054 -0.3825
 1507TIP3    H125936   0.907   3.177   3.298  0.2880  1.5254  1.1597
 1507TIP3    H225937   0.771   3.131   3.249  1.7934 -0.1224 -1.7782
 1508TIP3   OH225938   1.230   0.330   5.796  0.6746 -0.5339  0.2491
 1508TIP3    H125939   1.300   0.392   5.778 -0.4023  0.4539 -0.7323
 1508TIP3    H225940   1.189   0.362   5.876  0.1704  0.0182 -0.2134
 1509TIP3   OH225941   1.586   5.626   6.247 -0.0474  0.0737 -0.6624
 1509TIP3    H125942   1.590   5.548   6.192 -1.2310  0.2458 -1.0157
 1509TIP3    H225943   1.666   5.622   6.300  0.5242 -0.7205 -1.5429
 1510TIP3   OH225944   1.100   6.023   6.707 -0.4119 -0.1081 -0.4450
 1510TIP3    H125945   1.161   6.060   6.771 -0.7787 -1.0260  0.4643
 1510TIP3    H225946   1.020   6.007   6.757 -0.1872 -2.3719 -0.6844
 1511TIP3   OH225947   2.390   3.601   1.187  0.8366 -0.0596 -0.4473
 1511TIP3    H125948   2.453   3.639   1.249 -0.4386 -1.3437  1.7645
 1511TIP3    H225949   2.438   3.596   1.104  2.0531  3.4094 -0.1201
 1512TIP3   OH225950   6.562   4.562  13.575 -0.3682 -0.1612 -0.4348
 1512TIP3    H125951   6.485   4.618  13.566 -0.0927  0.0628 -1.5784
 1512TIP3    H225952   6.542   4.505  13.649 -1.1881  0.5979 -0.0588
 1513TIP3   OH225953   1.417   6.501   3.317 -0.1582 -0.2984 -0.1278
 1513TIP3    H125954   1.431   6.590   3.351 -1.7183 -0.7446  1.8837
 1513TIP3    H225955   1.501   6.477   3.278  0.6204  1.6755  0.2102
 1514TIP3   OH225956   5.241   3.367   0.645  0.2378 -0.8829  0.3588
 1514TIP3    H125957   5.164   3.368   0.702 -0.2225 -1.0561 -0.2466
 1514TIP3    H225958   5.286   3.450   0.664 -2.1193  1.1188 -1.9165
 1515TIP3   OH225959   0.759   0.451  12.108 -0.0921 -0.1405 -0.5108
 1515TIP3    H125960   0.817   0.436  12.182 -1.0453 -0.7434  0.1371
 1515TIP3    H225961   0.767   0.372  12.054  0.4440  0.2092 -0.9537
 1516TIP3   OH225962   3.822   3.436  15.805 -0.3256 -0.0201  0.2735
 1516TIP3    H125963   3.898   3.460  15.858  0.0374  1.6821 -0.9328
 1516TIP3    H225964   3.859   3.389  15.730 -0.5545 -0.0513  0.1790
 1517TIP3   OH225965   3.111   0.815   3.073  0.0919  0.1888  0.1784
 1517TIP3    H125966   3.165   0.833   3.150 -1.7721 -0.3082  1.6663
 1517TIP3    H225967   3.133   0.725   3.049  2.2511  1.0230 -1.2643
 1518TIP3   OH225968   0.043   1.587   2.573 -0.3961 -0.2266 -0.5747
 1518TIP3    H125969  -0.053   1.591   2.571 -0.3696  0.2797 -1.8476
 1518TIP3    H225970   0.070   1.676   2.597 -0.2516 -0.6714  0.9712
 1519TIP3   OH225971   2.174   5.939  16.321  0.5007  0.6273  0.0987
 1519TIP3    H125972   2.224   5.859  16.303  0.6228  0.9959 -1.2576
 1519TIP3    H225973   2.162   5.980  16.236 -1.4505  0.9650  0.4954
 1520TIP3   OH225974   1.343   0.428  13.844 -0.1280  0.5508 -0.3629
 1520TIP3    H125975   1.400   0.502  13.825  2.0999 -0.9626  0.0276
 1520TIP3    H225976   1.274   0.464  13.899  0.8265  2.3590 -0.2759
 1521TIP3   OH225977   6.565   5.852  16.986 -0.0881  0.0038  0.3002
 1521TIP3    H125978   6.516   5.849  16.904 -1.0006  0.2607  0.8169
 1521TIP3    H225979   6.631   5.920  16.972  0.9176 -1.1555 -0.8134
 1522TIP3   OH225980   1.847   6.326  11.483  0.1563  0.3488  0.0708
 1522TIP3    H125981   1.806   6.407  11.513  1.0188  0.5903  0.6318
 1522TIP3    H225982   1.885   6.288  11.562 -0.9071 -1.0139 -0.0387
 1523TIP3   OH225983   0.060   3.546   5.313  0.2305 -0.5265 -0.0395
 1523TIP3    H125984   0.027   3.635   5.321  4.0679  0.9750  0.7570
 1523TIP3    H225985   0.014   3.510   5.237 -1.3390  2.1235 -0.4403
 1524TIP3   OH225986   0.846   1.364  10.567 -0.2519 -0.3737  0.0507
 1524TIP3    H125987   0.840   1.389  10.475  2.8938  1.2314  0.1372
 1524TIP3    H225988   0.866   1.446  10.613  1.5778 -1.6226  1.6530
 1525TIP3   OH225989   1.150   2.748   0.614  0.2916 -0.3465  0.3647
 1525TIP3    H125990   1.198   2.665   0.616 -0.0559 -0.5764 -0.3521
 1525TIP3    H225991   1.065   2.727   0.653 -0.0874 -0.5323 -0.5391
 1526TIP3   OH225992   2.466   5.012  14.433 -0.0242 -0.0301 -0.2659
 1526TIP3    H125993   2.533   5.044  14.493  0.0041 -2.1129  0.8962
 1526TIP3    H225994   2.423   4.940  14.480 -1.1709 -0.6122 -2.0763
 1527TIP3   OH225995   4.392   2.030   4.313 -0.0849  0.1447  0.0009
 1527TIP3    H125996   4.439   2.004   4.393  0.1716  0.1286 -0.1536
 1527TIP3    H225997   4.300   2.023   4.336 -0.0317 -1.3398 -0.1696
 1528TIP3   OH225998   3.038   6.286   2.935  0.4861 -0.4559 -0.2146
 1528TIP3    H125999   3.099   6.358   2.955 -0.4929  0.3020  0.1019
 1528TIP3    H226000   3.018   6.297   2.842 -0.2371  0.1422  0.0044
 1529TIP3   OH226001   6.155   6.516  12.105 -0.0217  0.5011  0.3342
 1529TIP3    H126002   6.121   6.478  12.024  3.3399 -0.6665 -0.6852
 1529TIP3    H226003   6.124   6.607  12.104 -1.9986 -0.1134 -0.9957
 1530TIP3   OH226004   0.009   6.340  11.948 -0.0477 -0.5922  0.0852
 1530TIP3    H126005   0.005   6.276  12.019 -0.3017 -3.5051 -2.3350
 1530TIP3    H226006  -0.083   6.353  11.922  0.0119  0.7226  0.4947
 1531TIP3   OH226007   1.758   1.972   6.361  0.7650 -0.1882  0.5618
 1531TIP3    H126008   1.664   1.969   6.379  0.9640  0.1227  1.7388
 1531TIP3    H226009   1.764   1.973   6.265 -0.4565  0.6558  0.4686
 1532TIP3   OH226010   3.601   2.827   4.760  0.3147  0.3772  0.4867
 1532TIP3    H126011   3.607   2.746   4.709 -1.9727  0.1672  0.4668
 1532TIP3    H226012   3.649   2.892   4.708  0.1576 -0.4164 -0.6944
 1533TIP3   OH226013   4.304   6.313   2.833  0.4504  0.4909  0.2328
 1533TIP3    H126014   4.367   6.266   2.888 -0.6705  1.2006  2.2419
 1533TIP3    H226015   4.219   6.275   2.856  0.1328 -1.5648 -3.5912
 1534TIP3   OH226016   3.882   5.320   2.759 -0.0432 -1.0873 -0.1215
 1534TIP3    H126017   3.790   5.300   2.743 -0.1827  0.3700 -1.4540
 1534TIP3    H226018   3.923   5.317   2.673  0.3475  1.8228 -0.1419
 1535TIP3   OH226019   0.052   2.999   5.138 -0.2264 -0.5460 -0.2579
 1535TIP3    H126020   0.139   3.036   5.122  0.2952 -2.2200 -1.6193
 1535TIP3    H226021  -0.008   3.072   5.123  0.8219  0.0701 -1.7457
 1536TIP3   OH226022   0.996   2.031   0.379  0.8802 -0.2062  0.2059
 1536TIP3    H126023   1.004   1.938   0.400  1.6137 -0.0881  0.4971
 1536TIP3    H226024   0.916   2.059   0.422 -0.4503 -1.1459 -1.5487
 1537TIP3   OH226025   0.393   4.522  15.907  0.0644 -0.1473  0.7564
 1537TIP3    H126026   0.467   4.579  15.930  0.7371 -0.5656 -0.3134
 1537TIP3    H226027   0.367   4.551  15.819  1.6826 -2.7122 -0.6789
 1538TIP3   OH226028   3.843   5.991   2.562  0.2801  0.0669 -0.2593
 1538TIP3    H126029   3.773   6.008   2.500 -0.3310 -0.3333  0.3159
 1538TIP3    H226030   3.804   6.008   2.648  1.1279  0.6620  0.0221
 1539TIP3   OH226031   5.834   1.269   0.819 -0.1388 -0.2622  0.0662
 1539TIP3    H126032   5.829   1.317   0.901 -1.0308  0.4844 -0.4073
 1539TIP3    H226033   5.854   1.335   0.753  2.0404 -1.0640 -0.1572
 1540TIP3   OH226034   3.493   0.273  15.109  0.1898  0.1772  0.4879
 1540TIP3    H126035   3.449   0.225  15.039  0.0781  0.1943  0.5452
 1540TIP3    H226036   3.576   0.300  15.072 -0.5324  1.5748 -0.1681
 1541TIP3   OH226037   5.304   3.723  11.402 -0.2321 -0.0864 -0.7694
 1541TIP3    H126038   5.360   3.748  11.328  1.8682  2.2909  1.4316
 1541TIP3    H226039   5.362   3.674  11.461 -0.7166  1.3975  1.0356
 1542TIP3   OH226040   6.642   6.522  14.288 -0.2095 -0.3958  0.2726
 1542TIP3    H126041   6.735   6.510  14.309  0.1872 -1.4377 -1.7887
 1542TIP3    H226042   6.612   6.589  14.349  1.5461 -1.0121  1.9015
 1543TIP3   OH226043   5.062   4.179  16.019 -0.0387  0.0805 -0.7117
 1543TIP3    H126044   5.038   4.087  16.005 -0.2595 -0.1593  1.0649
 1543TIP3    H226045   5.114   4.201  15.942  1.7773 -2.1648 -0.2531
 1544TIP3   OH226046   4.632   2.245   2.765 -0.3618 -0.3156 -0.3383
 1544TIP3    H126047   4.688   2.175   2.733 -1.7304 -1.5759 -0.1107
 1544TIP3    H226048   4.608   2.294   2.686  2.8627  1.7553 -0.2025
 1545TIP3   OH226049   0.707   0.826   1.948  0.2688 -0.1950  0.3507
 1545TIP3    H126050   0.650   0.830   1.871  0.0582  1.3346  0.5535
 1545TIP3    H226051   0.687   0.742   1.989 -3.9793  1.3157  1.9580
 1546TIP3   OH226052   1.339   1.607   0.050 -0.2076  0.6070  0.3679
 1546TIP3    H126053   1.427   1.609   0.012 -0.4198 -3.1440 -0.7003
 1546TIP3    H226054   1.280   1.619  -0.025 -0.6511  1.7148  0.8716
 1547TIP3   OH226055   0.689   3.182   0.613  0.1752  0.6317 -0.3894
 1547TIP3    H126056   0.665   3.224   0.695  0.1915  0.3015 -0.2150
 1547TIP3    H226057   0.756   3.239   0.575  1.1553  0.0766  0.4703
 1548TIP3   OH226058   4.802   1.634   4.675 -0.1820  0.4614 -0.2228
 1548TIP3    H126059   4.877   1.691   4.690  0.1546 -0.3417  1.4050
 1548TIP3    H226060   4.730   1.675   4.722 -0.2050  0.1029  0.0598
 1549TIP3   OH226061   5.346   2.234  10.877  0.3947 -0.5903 -0.0891
 1549TIP3    H126062   5.389   2.273  10.800 -1.4706 -0.3656 -1.0743
 1549TIP3    H226063   5.295   2.161  10.842  0.9050 -1.6147  1.2229
 1550TIP3   OH226064   5.298   1.389  16.900  0.3619 -0.5059  0.7589
 1550TIP3    H126065   5.208   1.420  16.899  0.3372 -0.5642  1.2186
 1550TIP3    H226066   5.343   1.445  16.836 -0.0362 -0.6024  0.3841
 1551TIP3   OH226067   5.632   3.733  16.531 -0.2985 -0.4135 -0.2217
 1551TIP3    H126068   5.641   3.810  16.474 -0.6278  0.2737  0.6313
 1551TIP3    H226069   5.590   3.667  16.476  2.0673 -0.8177 -1.7127
 1552TIP3   OH226070   0.024   3.249   3.526  0.4139  0.0635 -0.1030
 1552TIP3    H126071   0.040   3.164   3.566  1.4315 -0.5529 -1.7338
 1552TIP3    H226072   0.086   3.308   3.570 -1.1408  0.3001  1.9085
 1553TIP3   OH226073   6.413   6.165   3.947  0.6119  0.3032  0.1135
 1553TIP3    H126074   6.372   6.150   4.033  0.3568 -0.9657 -0.2111
 1553TIP3    H226075   6.492   6.215   3.967  0.4209  0.2525  1.0622
 1554TIP3   OH226076   1.199   4.102   3.621  0.2258  0.2993 -0.3144
 1554TIP3    H126077   1.222   4.185   3.580 -1.3934  1.8035  1.6112
 1554TIP3    H226078   1.282   4.065   3.651  1.0153  0.9693 -1.6347
 1555TIP3   OH226079   5.884   3.792   3.929 -0.1898 -0.9381 -0.0865
 1555TIP3    H126080   5.808   3.835   3.969  0.9511  0.7945  0.3030
 1555TIP3    H226081   5.959   3.825   3.978  1.1972  0.5041 -2.9321
 1556TIP3   OH226082   5.175   2.619   1.804 -0.3434 -0.4383  0.1782
 1556TIP3    H126083   5.141   2.643   1.891  0.2794  0.9781  0.0641
 1556TIP3    H226084   5.106   2.648   1.744 -0.1259 -0.0317  0.1190
 1557TIP3   OH226085   4.108   5.117   3.393 -0.1924 -0.5772  0.1333
 1557TIP3    H126086   4.099   5.197   3.340 -0.0175 -0.2919  0.5252
 1557TIP3    H226087   4.134   5.049   3.330  1.6792  0.1159  0.0810
 1558TIP3   OH226088   4.205   3.759  16.758  0.1827  0.0051  0.1565
 1558TIP3    H126089   4.185   3.685  16.816 -1.8405 -0.1917 -0.6745
 1558TIP3    H226090   4.298   3.751  16.739  0.8074 -0.2096  2.9295
 1559TIP3   OH226091   4.922   3.024   4.908  0.0545 -0.5001 -0.6921
 1559TIP3    H126092   4.982   3.059   4.974  1.2368 -0.6067 -1.6761
 1559TIP3    H226093   4.879   3.100   4.871  1.1369 -0.2117 -1.4199
 1560TIP3   OH226094   5.853   3.151   6.168 -0.4931  0.1721 -0.1978
 1560TIP3    H126095   5.770   3.198   6.180  0.6503  2.2449  0.1102
 1560TIP3    H226096   5.875   3.165   6.076  0.0228  0.5403 -0.0224
 1561TIP3   OH226097   5.530   2.616   3.409 -0.5875 -0.6737  0.6661
 1561TIP3    H126098   5.497   2.568   3.333 -0.1349  1.8456 -1.2577
 1561TIP3    H226099   5.452   2.635   3.461 -1.4450  0.2715 -0.8739
 1562TIP3   OH226100   2.195   0.894   4.197  0.3243 -0.6747  0.0172
 1562TIP3    H126101   2.257   0.959   4.229 -0.9557  0.7409 -0.2721
 1562TIP3    H226102   2.184   0.915   4.104 -1.0202 -0.5359  0.1935
 1563TIP3   OH226103   2.486   3.261  16.784  0.3292  0.5450  0.0900
 1563TIP3    H126104   2.525   3.188  16.736  0.1242 -0.9523  2.0756
 1563TIP3    H226105   2.535   3.338  16.755  0.6841 -0.3754 -1.9201
 1564TIP3   OH226106   0.884   5.253  16.482  0.1897 -0.4841  0.1021
 1564TIP3    H126107   0.947   5.229  16.414  0.6691 -1.8211  0.9767
 1564TIP3    H226108   0.873   5.348  16.473  1.4890 -0.3999 -0.7662
 1565TIP3   OH226109   1.483   4.361  13.430  0.0368 -0.0655  0.2769
 1565TIP3    H126110   1.519   4.382  13.343 -2.3108 -3.8244 -1.8350
 1565TIP3    H226111   1.419   4.431  13.446  2.5721  2.3923  0.5759
 1566TIP3   OH226112   1.748   5.437  11.681 -0.2695  0.1785  0.0912
 1566TIP3    H126113   1.720   5.495  11.752 -1.5356  0.0325 -0.2742
 1566TIP3    H226114   1.699   5.356  11.695  0.2121 -0.2097 -0.3931
 1567TIP3   OH226115   0.030   5.626   2.341  0.2085  0.0669 -0.1071
 1567TIP3    H126116   0.086   5.554   2.370 -0.5325  0.0856  1.5077
 1567TIP3    H226117  -0.058   5.587   2.338  0.0023  0.5616 -0.5661
 1568TIP3   OH226118   6.603   4.854  14.885 -0.3225 -0.7635  0.6100
 1568TIP3    H126119   6.616   4.764  14.857  0.8773 -0.4655  0.1553
 1568TIP3    H226120   6.656   4.906  14.825 -1.7401  0.3476  0.2588
 1569TIP3   OH226121   0.997   5.911  12.968 -0.3268 -0.2334 -0.2198
 1569TIP3    H126122   0.921   5.858  12.943 -0.1043 -1.4002  1.4301
 1569TIP3    H226123   0.960   5.993  13.001 -0.8298 -0.5718  0.0531
 1570TIP3   OH226124   0.937   5.703  15.658 -0.1975 -0.6225  0.3181
 1570TIP3    H126125   0.981   5.697  15.574  0.1145  0.0322  0.4308
 1570TIP3    H226126   0.931   5.612  15.689 -0.6584 -0.9084 -0.5786
 1571TIP3   OH226127   0.445   3.528  16.165  0.3823  0.0136 -0.2664
 1571TIP3    H126128   0.407   3.444  16.192  2.7866 -0.4295  2.2703
 1571TIP3    H226129   0.414   3.590  16.230  1.4823  0.2655  0.0409
 1572TIP3   OH226130   3.462   6.248   6.008  0.1968 -0.0320 -0.2592
 1572TIP3    H126131   3.416   6.166   6.026 -0.6860  0.6670  0.8416
 1572TIP3    H226132   3.397   6.316   6.024  0.9042  0.8931 -1.1806
 1573TIP3   OH226133   6.509   3.982  12.220  0.2883 -0.6415  0.1401
 1573TIP3    H126134   6.555   3.906  12.184  2.4839  1.5346 -2.0998
 1573TIP3    H226135   6.564   4.011  12.292  1.1603  0.5067 -0.9443
 1574TIP3   OH226136   5.290   3.468  10.947 -0.0934 -0.0343 -0.0346
 1574TIP3    H126137   5.283   3.375  10.966 -0.5016 -0.3408 -1.5541
 1574TIP3    H226138   5.358   3.500  11.007  0.4702 -1.4258  0.0993
 1575TIP3   OH226139   0.240   6.231   0.005  0.2660  0.2529  0.0210
 1575TIP3    H126140   0.161   6.281   0.024 -0.5004 -0.4853 -1.0781
 1575TIP3    H226141   0.299   6.294  -0.036  0.3339  0.8588  1.0239
 1576TIP3   OH226142   3.770   5.780   6.542 -0.4421  0.6027 -0.1803
 1576TIP3    H126143   3.787   5.728   6.621  0.0419  1.1284  0.0696
 1576TIP3    H226144   3.681   5.812   6.554  0.6008  3.1450  1.6239
 1577TIP3   OH226145   0.188   5.234   5.470 -0.0152  0.8093  0.3421
 1577TIP3    H126146   0.185   5.275   5.557 -0.0705  1.4165  0.0598
 1577TIP3    H226147   0.142   5.296   5.413  1.9453  1.5302 -0.5559
 1578TIP3   OH226148   4.736   3.719  14.837 -0.3645 -0.0640  0.1460
 1578TIP3    H126149   4.765   3.647  14.893  1.0617  0.4915  0.1662
 1578TIP3    H226150   4.768   3.695  14.750 -0.4154  0.2503  0.0404
 1579TIP3   OH226151   0.228   5.097  16.917  0.0903  0.0386 -0.3600
 1579TIP3    H126152   0.173   5.089  16.994 -1.3977  0.3387 -1.3388
 1579TIP3    H226153   0.255   5.007  16.897  0.5198 -0.0367  0.5022
 1580TIP3   OH226154   2.800   0.453   4.215 -0.5219 -0.0645  0.0967
 1580TIP3    H126155   2.804   0.515   4.287  0.2228  0.8420 -0.6996
 1580TIP3    H226156   2.709   0.458   4.184 -0.3265  1.0951 -0.3381
 1581TIP3   OH226157   1.169   6.415   6.062 -0.0365 -0.1328  0.4183
 1581TIP3    H126158   1.177   6.502   6.102  1.2214 -0.2478  0.4675
 1581TIP3    H226159   1.180   6.354   6.135  3.5985 -0.3728 -0.1245
 1582TIP3   OH226160   3.283   3.439   2.999 -0.1541  0.1332  0.4746
 1582TIP3    H126161   3.330   3.421   2.917  0.4411 -0.2149  0.8827
 1582TIP3    H226162   3.352   3.446   3.065 -0.7097 -1.8860  1.3662
 1583TIP3   OH226163   6.749   5.870   1.356 -0.0721 -0.1621 -0.1471
 1583TIP3    H126164   6.770   5.895   1.446  0.5408 -1.0374 -0.0381
 1583TIP3    H226165   6.822   5.814   1.329  0.7269  1.5708 -1.8309
 1584TIP3   OH226166   1.415   5.383   4.301  0.2426  0.4297 -0.1211
 1584TIP3    H126167   1.413   5.321   4.374  0.7811  1.3099  0.6681
 1584TIP3    H226168   1.339   5.360   4.247 -0.6142  0.2406  1.1216
 1585TIP3   OH226169   1.984   2.050  14.165  0.0226  0.1617 -0.3365
 1585TIP3    H126170   2.042   1.979  14.137  0.3427  0.7000 -1.0667
 1585TIP3    H226171   1.900   2.008  14.181  0.6558 -0.6927  1.0184
 1586TIP3   OH226172   4.663   3.059  13.375  0.2687 -0.0227  0.7014
 1586TIP3    H126173   4.664   2.966  13.396 -1.9584 -0.8525 -2.1285
 1586TIP3    H226174   4.591   3.095  13.428  0.3172 -0.2017  0.8870
 1587TIP3   OH226175   0.960   2.856  11.806  0.0070 -0.6714  0.1861
 1587TIP3    H126176   0.892   2.791  11.826  0.0428 -0.3530  1.3930
 1587TIP3    H226177   0.965   2.910  11.885  1.9705 -0.9681  0.2944
 1588TIP3   OH226178   5.352   2.386  15.094  0.4137 -0.3788  0.1995
 1588TIP3    H126179   5.432   2.427  15.061  0.3168 -2.2761 -2.7960
 1588TIP3    H226180   5.282   2.444  15.066  0.5811  0.3952  1.3049
 1589TIP3   OH226181   2.325   3.483  14.311 -0.0971 -0.0196  0.2809
 1589TIP3    H126182   2.389   3.540  14.269 -0.7788  1.1784  0.8176
 1589TIP3    H226183   2.312   3.411  14.249  2.0870 -0.5388  0.3717
 1590TIP3   OH226184   4.342   0.114  10.556 -0.2078 -0.0639 -0.2685
 1590TIP3    H126185   4.417   0.086  10.504 -2.2055 -1.7301 -2.5146
 1590TIP3    H226186   4.355   0.208  10.570  2.0887 -0.2470 -0.8085
 1591TIP3   OH226187   5.489   2.878   5.003 -0.0145  0.2058 -0.4431
 1591TIP3    H126188   5.512   2.967   5.028 -1.5246  0.6033 -0.3531
 1591TIP3    H226189   5.500   2.876   4.908 -1.6264  1.0598 -0.6944
 1592TIP3   OH226190   5.049   4.473  11.777  0.6459  0.1415 -0.6863
 1592TIP3    H126191   5.099   4.406  11.825  1.3393  0.0463 -1.5182
 1592TIP3    H226192   5.108   4.502  11.708 -0.5657 -0.2080 -1.9137
 1593TIP3   OH226193   0.718   0.411  15.406  0.0037  0.0430  0.4152
 1593TIP3    H126194   0.728   0.368  15.491  0.8335  0.6103  0.6235
 1593TIP3    H226195   0.779   0.485  15.410  1.3282 -0.8833 -1.3089
 1594TIP3   OH226196   6.702   5.201   2.111  0.5101  0.7238  0.5273
 1594TIP3    H126197   6.622   5.252   2.120 -0.1430 -0.0402 -0.5976
 1594TIP3    H226198   6.695   5.132   2.177 -0.6790 -0.4332 -0.7342
 1595TIP3   OH226199   0.058   5.944  14.062 -0.4522  0.2109  0.3365
 1595TIP3    H126200   0.067   5.942  13.966 -0.1718  0.2375  0.3612
 1595TIP3    H226201  -0.023   5.895  14.079 -1.2906  1.4458 -0.0064
 1596TIP3   OH226202   1.114   3.299   5.701  0.0993 -0.8001  0.0294
 1596TIP3    H126203   1.073   3.212   5.699 -2.3986  0.3087 -2.0513
 1596TIP3    H226204   1.156   3.308   5.616 -2.8564  1.2817 -1.4041
 1597TIP3   OH226205   0.707   3.998  11.983 -0.3742  0.0088  0.0802
 1597TIP3    H126206   0.700   3.915  12.029  1.5251  0.2411  0.8956
 1597TIP3    H226207   0.800   4.006  11.962 -0.6580  1.5244 -0.7736
 1598TIP3   OH226208   1.681   3.042  13.147  0.3229  0.4061 -0.2205
 1598TIP3    H126209   1.675   3.137  13.160  1.0095  0.4261  0.0231
 1598TIP3    H226210   1.681   3.006  13.235  0.9656  0.2527 -0.2721
 1599TIP3   OH226211   1.292   2.146   1.129  0.0043  0.4404  0.1932
 1599TIP3    H126212   1.264   2.177   1.215 -0.3547  0.1235  0.1893
 1599TIP3    H226213   1.218   2.097   1.094  0.9729 -1.5055  0.7229
 1600TIP3   OH226214   5.014   1.924   3.669 -0.5528  0.1564  0.5591
 1600TIP3    H126215   5.102   1.927   3.632 -1.6559 -0.5345 -2.4001
 1600TIP3    H226216   4.989   2.016   3.679  0.1917  0.3607  0.5767
 1601TIP3   OH226217   1.964   3.540  16.245 -0.3344 -0.1854 -0.0010
 1601TIP3    H126218   1.906   3.609  16.211 -2.3404 -2.4013 -1.3435
 1601TIP3    H226219   2.051   3.565  16.214 -0.5279  2.9067  1.5198
 1602TIP3   OH226220   1.677   1.111  11.388  0.3219 -0.3595  0.4299
 1602TIP3    H126221   1.635   1.168  11.453  0.0277  0.4225 -0.4235
 1602TIP3    H226222   1.748   1.164  11.353 -1.2639  0.3851 -1.9202
 1603TIP3   OH226223   0.750   6.601  11.111  0.1694 -0.9122  0.4452
 1603TIP3    H126224   0.738   6.604  11.206  1.0741  1.6970  0.5557
 1603TIP3    H226225   0.842   6.625  11.097 -0.6580  1.7894 -1.1258
 1604TIP3   OH226226   3.642   0.488  10.944 -0.3200 -0.8723 -0.1317
 1604TIP3    H126227   3.626   0.478  10.850 -0.6721  1.6587 -0.4121
 1604TIP3    H226228   3.556   0.509  10.980 -0.4083 -2.9337  0.9935
 1605TIP3   OH226229   6.436   6.750   2.927  0.4614  0.0171  0.4842
 1605TIP3    H126230   6.419   6.659   2.951  0.8169 -1.2461 -3.4176
 1605TIP3    H226231   6.531   6.754   2.916  0.2464  0.0811 -1.7880
 1606TIP3   OH226232   2.605   1.309  15.293  0.3663 -0.1205  0.8487
 1606TIP3    H126233   2.597   1.250  15.368  2.2008 -0.2317  0.9984
 1606TIP3    H226234   2.699   1.319  15.280  0.1440  2.5148  0.6211
 1607TIP3   OH226235   4.877   5.793  10.938  0.2714  0.5876  0.2006
 1607TIP3    H126236   4.825   5.714  10.924  0.6541  0.4961 -0.7257
 1607TIP3    H226237   4.908   5.817  10.851  2.6519  0.0319  0.8353
 1608TIP3   OH226238   6.315   0.445  11.793  0.1449 -0.2269  0.0362
 1608TIP3    H126239   6.336   0.484  11.709 -0.0559 -0.8380 -0.3060
 1608TIP3    H226240   6.359   0.359  11.791  0.1469 -0.2437  0.5567
 1609TIP3   OH226241   0.514   4.071  13.947  0.0518  0.3172 -0.0821
 1609TIP3    H126242   0.491   4.034  14.033 -0.3089  1.4077  0.3020
 1609TIP3    H226243   0.609   4.086  13.952  0.5347 -2.0765 -0.8551
 1610TIP3   OH226244   0.937   0.622  13.630  0.4841  0.5413 -0.2610
 1610TIP3    H126245   0.955   0.630  13.537  1.3747  2.9164  0.0319
 1610TIP3    H226246   0.852   0.579  13.635  1.4307 -1.7096 -2.0466
 1611TIP3   OH226247   6.778   0.827   0.901  0.1599 -0.2697  0.1893
 1611TIP3    H126248   6.765   0.749   0.847 -0.6383 -0.0112 -0.0055
 1611TIP3    H226249   6.754   0.799   0.989 -2.7512  0.4102 -0.2848
 1612TIP3   OH226250   1.247   4.869  14.405  0.1095  0.2144 -0.0117
 1612TIP3    H126251   1.317   4.811  14.375  1.1408  1.1990  0.4089
 1612TIP3    H226252   1.210   4.825  14.482 -0.4388 -0.8034 -0.8368
 1613TIP3   OH226253   2.176   3.577   2.547  0.0014 -0.2161 -0.4213
 1613TIP3    H126254   2.147   3.542   2.631  0.3895 -0.5177 -0.4049
 1613TIP3    H226255   2.098   3.579   2.492  0.0120 -1.3842 -0.5092
 1614TIP3   OH226256   1.476   4.084   0.145  0.3824  0.2581 -0.2996
 1614TIP3    H126257   1.456   4.096   0.052 -1.2507 -0.2821 -0.0518
 1614TIP3    H226258   1.564   4.045   0.146 -0.1275 -1.0322 -1.7002
 1615TIP3   OH226259   6.475   4.483  16.098 -0.3023 -0.4948 -0.0778
 1615TIP3    H126260   6.531   4.531  16.159 -0.8250 -0.1930  0.1769
 1615TIP3    H226261   6.453   4.547  16.030  0.2988 -0.8387 -0.6046
 1616TIP3   OH226262   5.155   2.346   0.955 -0.6714 -0.1653  0.4872
 1616TIP3    H126263   5.134   2.270   1.008 -0.0116 -1.0921 -0.5274
 1616TIP3    H226264   5.246   2.366   0.977 -1.2630  1.2669  1.8223
 1617TIP3   OH226265   2.391   1.255  16.152  0.0680  0.2080 -0.0934
 1617TIP3    H126266   2.406   1.168  16.116  1.2724  0.4579 -0.2639
 1617TIP3    H226267   2.409   1.247  16.245  1.5666  0.5486 -0.3262
 1618TIP3   OH226268   5.036   5.588   0.275  0.5402  0.2543 -0.4864
 1618TIP3    H126269   4.957   5.547   0.309 -0.0577  1.8509  0.1516
 1618TIP3    H226270   5.102   5.575   0.343  0.7545 -0.8007 -0.8807
 1619TIP3   OH226271   3.996   5.125  16.467  0.0341 -0.3323 -0.1590
 1619TIP3    H126272   3.946   5.185  16.411 -0.3876 -1.0723 -0.5848
 1619TIP3    H226273   4.054   5.183  16.517 -0.5934  0.4655 -0.3229
 1620TIP3   OH226274   4.294   4.247  12.085 -0.0039 -0.5755  0.7237
 1620TIP3    H126275   4.233   4.281  12.150 -1.5070  1.0970 -1.4183
 1620TIP3    H226276   4.242   4.181  12.037  0.4191 -0.3563 -0.0405
 1621TIP3   OH226277   3.275   2.410   4.984 -0.2379  0.4759  0.7784
 1621TIP3    H126278   3.305   2.500   4.997  0.5032  0.1393  1.4716
 1621TIP3    H226279   3.180   2.416   4.994 -0.0468  0.8867  2.8354
 1622TIP3   OH226280   3.023   0.470   0.954 -0.1360  0.5984  0.0289
 1622TIP3    H126281   2.976   0.474   1.038  0.9848  0.5024  0.6762
 1622TIP3    H226282   3.059   0.557   0.943  3.1009 -0.3834  1.6840
 1623TIP3   OH226283   0.250   2.790  13.624 -0.0722  0.1860 -0.0420
 1623TIP3    H126284   0.336   2.783  13.666 -0.9469 -2.0290  1.6060
 1623TIP3    H226285   0.232   2.884  13.623  1.6623  0.5880  1.0659
 1624TIP3   OH226286   3.492   1.109  14.740 -0.3056  0.6628 -0.8530
 1624TIP3    H126287   3.469   1.182  14.682 -0.5764  1.4976  0.2770
 1624TIP3    H226288   3.436   1.120  14.816  0.5743  0.0177 -0.0953
 1625TIP3   OH226289   5.956   6.206  10.384  0.4976 -0.5592 -0.2405
 1625TIP3    H126290   5.897   6.282  10.384  2.6213  1.1918 -0.8265
 1625TIP3    H226291   5.987   6.200  10.474 -0.7434 -1.6769  0.1422
 1626TIP3   OH226292   2.819   4.956  12.953 -0.2479 -0.1073  0.5794
 1626TIP3    H126293   2.910   4.944  12.979  0.1783 -0.6192 -1.0150
 1626TIP3    H226294   2.775   4.876  12.982  0.1274 -0.5001  0.0749
 1627TIP3   OH226295   6.440   5.305  12.211  0.0584 -0.2893  0.3532
 1627TIP3    H126296   6.454   5.376  12.273  1.3656 -0.7597  0.6436
 1627TIP3    H226297   6.391   5.239  12.260 -0.1658 -0.0587  0.4368
 1628TIP3   OH226298   6.216   4.045   0.798 -0.1993  0.1942  0.8418
 1628TIP3    H126299   6.200   4.107   0.727  1.0581 -2.2554 -1.7960
 1628TIP3    H226300   6.139   3.989   0.799  0.1337 -0.2728  0.8153
 1629TIP3   OH226301   0.041   5.999  12.186 -0.2611 -0.2091  0.1590
 1629TIP3    H126302   0.112   5.968  12.243  0.6927  0.4462 -0.6557
 1629TIP3    H226303   0.045   5.942  12.110  1.3282  1.6328 -1.2296
 1630TIP3   OH226304   3.027   1.473   5.186  0.4473 -0.0217 -0.3426
 1630TIP3    H126305   3.069   1.421   5.118  1.5522  0.0288  0.2816
 1630TIP3    H226306   3.099   1.503   5.241 -0.2573  1.3869 -0.1483
 1631TIP3   OH226307   2.194   3.624  16.049 -0.0112  0.0768  0.3122
 1631TIP3    H126308   2.263   3.573  16.092 -0.5230  0.1031  1.1710
 1631TIP3    H226309   2.228   3.639  15.960  0.7518 -0.5604  0.4848
 1632TIP3   OH226310   6.505   5.528  15.894 -0.5424  0.4555 -0.2327
 1632TIP3    H126311   6.472   5.441  15.914 -1.4521  0.7714 -0.3150
 1632TIP3    H226312   6.512   5.571  15.979  0.1881  0.2144 -0.1634
 1633TIP3   OH226313   1.366   0.074  15.796  0.0636  0.1180  0.0210
 1633TIP3    H126314   1.312   0.031  15.730 -0.1719 -0.0853  0.3430
 1633TIP3    H226315   1.393   0.004  15.855 -0.1797  0.3784  0.4521
 1634TIP3   OH226316   4.264   1.407  16.593 -0.1706  0.6312 -0.1550
 1634TIP3    H126317   4.223   1.446  16.670 -0.1608  0.6507 -0.1590
 1634TIP3    H226318   4.348   1.452  16.585  0.1761  0.0914  0.2794
 1635TIP3   OH226319   2.516   2.086   3.671  0.2497 -0.2556  0.1161
 1635TIP3    H126320   2.427   2.053   3.669  0.0309  0.2238  1.0737
 1635TIP3    H226321   2.547   2.079   3.581 -1.0384  0.3362 -0.3984
 1636TIP3   OH226322   2.880   5.771  13.930 -0.2470 -0.1423 -0.3007
 1636TIP3    H126323   2.862   5.733  13.844  1.3319  0.5959 -1.0007
 1636TIP3    H226324   2.828   5.851  13.932 -1.3417 -0.8386  0.0097
 1637TIP3   OH226325   3.377   5.933  12.348  0.5771 -0.4072  0.4857
 1637TIP3    H126326   3.294   5.951  12.393  0.3023 -1.8405  0.6194
 1637TIP3    H226327   3.440   5.918  12.419  0.0844 -2.9300  0.4859
 1638TIP3   OH226328   3.016   4.413   2.007 -0.1102 -0.1561 -0.2632
 1638TIP3    H126329   3.026   4.505   2.030 -0.5875 -0.5774  1.8718
 1638TIP3    H226330   2.949   4.380   2.067 -0.2334 -1.8278 -1.2310
 1639TIP3   OH226331   0.393   0.057  12.029 -0.8143 -0.4491 -0.7096
 1639TIP3    H126332   0.318   0.116  12.030 -2.5503 -2.5501  0.5353
 1639TIP3    H226333   0.413   0.045  11.936 -1.3061  0.9452 -1.0211
 1640TIP3   OH226334   4.624   4.565  14.064  0.4545  0.6135  0.0195
 1640TIP3    H126335   4.531   4.556  14.086 -0.0801  1.3204 -1.7776
 1640TIP3    H226336   4.652   4.644  14.110  0.9177 -0.9454  2.6585
 1641TIP3   OH226337   3.930   3.279  10.680  0.0216  0.0446 -0.3972
 1641TIP3    H126338   3.885   3.363  10.676  0.6825  0.5438  1.4445
 1641TIP3    H226339   3.870   3.222  10.728  1.2754  0.7461  2.1737
 1642TIP3   OH226340   3.278   5.439  12.589  0.0567  0.5577  0.8998
 1642TIP3    H126341   3.239   5.526  12.601  2.3309  1.4475  2.3252
 1642TIP3    H226342   3.357   5.455  12.537  0.6710 -0.6219  1.4444
 1643TIP3   OH226343   2.152   5.339  16.819 -0.2605 -0.5379 -0.1009
 1643TIP3    H126344   2.154   5.424  16.864  0.3042 -1.4589  1.7401
 1643TIP3    H226345   2.087   5.350  16.750  0.5702  1.7018 -0.6240
 1644TIP3   OH226346   0.826   2.300   4.807  0.2175  0.3206 -1.0777
 1644TIP3    H126347   0.868   2.287   4.892  1.1421  0.2933 -1.5186
 1644TIP3    H226348   0.733   2.284   4.822  0.4544 -0.2571 -0.2004
 1645TIP3   OH226349   6.685   2.399  13.639 -0.0713  0.1803  0.0631
 1645TIP3    H126350   6.717   2.487  13.659 -0.4126  0.6289 -1.2531
 1645TIP3    H226351   6.746   2.366  13.573 -2.0903  0.9807 -2.3512
 1646TIP3   OH226352   0.696   0.520   2.813  0.2523 -0.0156  0.0880
 1646TIP3    H126353   0.623   0.571   2.848  0.8587  0.3261  0.9019
 1646TIP3    H226354   0.771   0.546   2.867  0.9831 -0.3340 -0.7509
 1647TIP3   OH226355   1.251   6.227  11.655  0.3444 -0.1428  0.5394
 1647TIP3    H126356   1.180   6.265  11.605 -0.1585  1.2052  2.1821
 1647TIP3    H226357   1.234   6.132  11.654  0.3049 -0.1578 -1.6437
 1648TIP3   OH226358   2.023   3.810  16.880  0.6106  0.4719  0.5434
 1648TIP3    H126359   1.974   3.853  16.811  1.5583 -0.2544 -0.6162
 1648TIP3    H226360   2.112   3.803  16.845  0.8353 -0.9901  1.3487
 1649TIP3   OH226361   6.393   1.965   0.725  0.1815 -0.2754  0.0567
 1649TIP3    H126362   6.446   1.909   0.668 -0.2411 -0.4706 -0.1404
 1649TIP3    H226363   6.350   1.904   0.786  0.7278 -0.0620  0.6728
 1650TIP3   OH226364   5.414   1.912  15.520  0.3114  0.3502 -0.4539
 1650TIP3    H126365   5.393   1.956  15.437 -0.0696 -0.9943 -1.0957
 1650TIP3    H226366   5.331   1.879  15.552  0.1873  2.1402  1.3023
 1651TIP3   OH226367   5.717   0.195   3.236  0.0908 -0.0919  0.0635
 1651TIP3    H126368   5.643   0.137   3.220  0.7239 -0.8093 -0.3255
 1651TIP3    H226369   5.677   0.281   3.251 -0.9609 -0.9238  2.3863
 1652TIP3   OH226370   2.277   4.867  11.201  0.1230  0.0034  0.0858
 1652TIP3    H126371   2.317   4.790  11.242 -0.7203 -0.8822 -0.7119
 1652TIP3    H226372   2.228   4.832  11.127 -2.2618  1.0121  1.0847
 1653TIP3   OH226373   6.196   1.475   4.341 -0.1585 -0.7610 -0.0000
 1653TIP3    H126374   6.201   1.385   4.310  1.8612 -1.1622  1.3059
 1653TIP3    H226375   6.168   1.469   4.432  2.0794 -0.3010  0.7789
 1654TIP3   OH226376   5.886   6.262   0.736 -0.1066  0.0901 -0.3053
 1654TIP3    H126377   5.906   6.282   0.645 -1.9333 -0.3337 -0.8472
 1654TIP3    H226378   5.927   6.177   0.752  2.3861  1.2836  0.1013
 1655TIP3   OH226379   0.867   0.142  16.520 -0.2332 -0.3353  0.1129
 1655TIP3    H126380   0.867   0.052  16.488 -0.0852 -0.1572 -0.3909
 1655TIP3    H226381   0.837   0.195  16.446 -0.7577 -0.0111  0.5407
 1656TIP3   OH226382   2.222   5.617  14.159 -0.6916 -0.1198 -1.1295
 1656TIP3    H126383   2.159   5.687  14.141  0.1884  0.9916 -0.0029
 1656TIP3    H226384   2.303   5.645  14.117 -0.1709 -0.1614 -0.1894
 1657TIP3   OH226385   2.384   2.035  11.766  0.3063 -0.0942  0.2340
 1657TIP3    H126386   2.366   2.026  11.672  0.9400  2.0819 -0.1579
 1657TIP3    H226387   2.299   2.056  11.805  0.0130 -1.1586  0.1961
 1658TIP3   OH226388   3.747   6.392  11.893  0.4021 -0.5958  0.1644
 1658TIP3    H126389   3.711   6.325  11.951 -0.4467 -0.4727 -0.2075
 1658TIP3    H226390   3.837   6.406  11.924  0.0823 -0.8062  1.1944
 1659TIP3   OH226391   6.707   1.387  12.912  0.7369  0.1382  0.4177
 1659TIP3    H126392   6.665   1.317  12.862 -0.3617  2.0562 -1.5378
 1659TIP3    H226393   6.635   1.434  12.954  1.3404  0.7789  0.7724
 1660TIP3   OH226394   3.608   0.563  11.795 -0.4126 -0.0653  0.3015
 1660TIP3    H126395   3.519   0.565  11.831 -0.7055 -2.0699 -0.1794
 1660TIP3    H226396   3.663   0.532  11.866 -0.1471  0.7243  0.4560
 1661TIP3   OH226397   0.575   2.049  16.011  0.3215  0.3081  0.0250
 1661TIP3    H126398   0.628   2.122  16.045  0.3348  0.2133  0.2111
 1661TIP3    H226399   0.640   1.989  15.973  0.2995  0.4541 -0.2442
 1662TIP3   OH226400   5.471   3.062  14.436 -0.8589 -0.1341 -0.2919
 1662TIP3    H126401   5.407   3.045  14.504 -1.4517  2.2485 -0.1756
 1662TIP3    H226402   5.440   3.010  14.361 -1.5924 -0.8354  0.4771
 1663TIP3   OH226403   3.146   1.707   3.579 -0.6350  0.3984 -0.4170
 1663TIP3    H126404   3.132   1.694   3.673 -2.1961 -0.4132 -0.7323
 1663TIP3    H226405   3.119   1.797   3.564  0.1260  0.7044 -0.0091
 1664TIP3   OH226406   3.001   2.773   5.751  0.3569 -0.2773  0.2312
 1664TIP3    H126407   2.915   2.772   5.710  0.0442 -0.4451  0.8950
 1664TIP3    H226408   3.028   2.865   5.745 -0.6198  0.1227  1.5724
 1665TIP3   OH226409   5.446   5.737  14.560  0.4821 -0.5562  0.7903
 1665TIP3    H126410   5.520   5.777  14.606  0.6216 -1.3090  1.2350
 1665TIP3    H226411   5.384   5.715  14.629  0.1239 -0.5153  0.4837
 1666TIP3   OH226412   1.908   4.047   5.550 -0.4332 -0.8301 -0.0746
 1666TIP3    H126413   1.816   4.059   5.528 -0.3902 -0.1152  0.1114
 1666TIP3    H226414   1.953   4.119   5.507 -0.1687 -0.2485  1.1358
 1667TIP3   OH226415   5.547   1.560  14.493  0.0467  0.1203 -0.4276
 1667TIP3    H126416   5.627   1.588  14.537 -0.0554  1.2624 -0.9390
 1667TIP3    H226417   5.480   1.621  14.524 -0.1520  0.5627 -1.6652
 1668TIP3   OH226418   3.763   4.364   3.716  0.0440 -0.1230  0.3177
 1668TIP3    H126419   3.675   4.327   3.719  0.4905 -1.3581 -0.9082
 1668TIP3    H226420   3.773   4.395   3.626  0.4633  1.0960  0.7567
 1669TIP3   OH226421   0.713   3.595   5.535 -0.1695  0.0681  0.4926
 1669TIP3    H126422   0.762   3.585   5.454 -0.8972  1.9731 -0.2313
 1669TIP3    H226423   0.769   3.555   5.602 -0.9208 -4.5056 -1.2584
 1670TIP3   OH226424   0.298   2.692  14.783 -0.4237 -0.6741  0.1126
 1670TIP3    H126425   0.296   2.782  14.751  1.4667 -0.3568  0.8108
 1670TIP3    H226426   0.307   2.639  14.704  0.5960 -0.1141 -0.1607
 1671TIP3   OH226427   3.500   3.925  12.283  0.1373 -0.0939  0.0659
 1671TIP3    H126428   3.449   3.872  12.221  0.8148 -0.1590 -0.4512
 1671TIP3    H226429   3.465   4.014  12.273 -2.6289 -0.7336  2.6163
 1672TIP3   OH226430   1.083   3.310   2.907  0.4068  0.0798 -0.5255
 1672TIP3    H126431   0.991   3.310   2.932  0.7576 -0.3610  0.8926
 1672TIP3    H226432   1.106   3.218   2.895  0.7975  0.1432 -0.3025
 1673TIP3   OH226433   5.504   1.595  14.920 -0.0559 -0.2364  0.7082
 1673TIP3    H126434   5.532   1.686  14.918  0.0791 -0.2614  1.2820
 1673TIP3    H226435   5.557   1.552  14.853  0.7248 -0.1262  1.2412
 1674TIP3   OH226436   1.947   0.460   5.364 -0.4020  0.4329  0.0975
 1674TIP3    H126437   1.979   0.505   5.287 -0.1709  1.1576  0.6103
 1674TIP3    H226438   1.987   0.373   5.360 -0.0258  0.6252 -0.3536
 1675TIP3   OH226439   0.312   6.291   3.777 -0.1851  0.2433 -0.4640
 1675TIP3    H126440   0.266   6.271   3.696 -0.4325  1.2922 -0.6065
 1675TIP3    H226441   0.351   6.208   3.805 -2.1231 -0.6929 -0.3542
 1676TIP3   OH226442   2.322   4.871   4.462  0.2018 -0.6422  0.2821
 1676TIP3    H126443   2.400   4.925   4.452 -0.6267  0.3985 -0.8537
 1676TIP3    H226444   2.253   4.933   4.484 -0.5683 -1.3859 -0.0007
 1677TIP3   OH226445   2.360   5.971   4.002  0.2200  0.1713 -0.4148
 1677TIP3    H126446   2.285   6.030   4.015  1.4639  1.5615  0.8654
 1677TIP3    H226447   2.361   5.955   3.908 -1.7965 -0.0691 -0.4495
 1678TIP3   OH226448   1.025   5.272   5.251  0.0840  0.4748  0.0223
 1678TIP3    H126449   0.955   5.240   5.307 -0.0740  0.4049 -0.2100
 1678TIP3    H226450   1.025   5.211   5.176 -0.9892  1.6774 -1.0076
 1679TIP3   OH226451   3.374   4.759   5.581 -0.0488 -0.1478 -0.0552
 1679TIP3    H126452   3.404   4.783   5.668 -0.0905 -0.0722 -0.0622
 1679TIP3    H226453   3.428   4.811   5.522  0.2406 -0.4762 -0.0869
 1680TIP3   OH226454   5.608   3.103  15.738  0.1823 -0.0664  0.2266
 1680TIP3    H126455   5.689   3.115  15.688  0.1090  0.5008  0.2378
 1680TIP3    H226456   5.616   3.164  15.811 -0.6358  0.6493 -0.2570
 1681TIP3   OH226457   4.578   4.212   3.431 -0.3355 -0.4809  0.1081
 1681TIP3    H126458   4.532   4.295   3.444  0.3256 -0.1427  0.3412
 1681TIP3    H226459   4.589   4.177   3.519 -0.3184 -0.6492  0.0391
 1682TIP3   OH226460   3.966   6.179   1.868  0.2213  0.1754  0.0068
 1682TIP3    H126461   3.905   6.113   1.902 -0.0860  0.7152  0.5363
 1682TIP3    H226462   3.951   6.256   1.925 -2.1182  2.0378 -2.8210
 1683TIP3   OH226463   2.071   5.997  11.603 -0.2938  0.7797 -0.5023
 1683TIP3    H126464   2.111   6.041  11.528 -0.3401  0.3557 -0.7794
 1683TIP3    H226465   2.007   5.937  11.565 -1.2676  1.5256 -0.0455
 1684TIP3   OH226466   0.200   5.769   4.849 -0.1265 -0.0213 -0.1199
 1684TIP3    H126467   0.215   5.707   4.778  0.9441 -0.5778  0.5568
 1684TIP3    H226468   0.107   5.760   4.870 -0.8802  1.3605 -2.5044
 1685TIP3   OH226469   6.063   2.172  11.472 -0.1981 -0.1547 -0.0653
 1685TIP3    H126470   6.000   2.188  11.402 -1.4412 -0.3694  0.9600
 1685TIP3    H226471   6.013   2.123  11.537  1.0656 -0.3848  0.7570
 1686TIP3   OH226472   4.007   5.268   1.006  0.9392  0.9978  0.1845
 1686TIP3    H126473   3.918   5.233   1.014  0.0532  2.8582 -0.8464
 1686TIP3    H226474   4.050   5.244   1.089 -0.2139 -0.7027  0.3365
 1687TIP3   OH226475   2.839   2.778  12.776  0.1259 -0.2592 -0.2244
 1687TIP3    H126476   2.780   2.725  12.722 -0.0813 -0.4450  0.1789
 1687TIP3    H226477   2.781   2.830  12.831  0.3065 -1.1879  0.9013
 1688TIP3   OH226478   2.988   3.933   0.297  0.2405  0.1782 -0.1505
 1688TIP3    H126479   3.058   3.868   0.307 -0.6477 -0.9027 -0.7023
 1688TIP3    H226480   3.013   3.983   0.220  0.1532 -0.5552 -0.6652
 1689TIP3   OH226481   1.450   3.404  12.145  0.2482 -0.1958  0.0388
 1689TIP3    H126482   1.475   3.476  12.087  0.1153 -1.0504 -1.1196
 1689TIP3    H226483   1.462   3.439  12.234  1.4578  0.8131 -0.4904
 1690TIP3   OH226484   2.076   5.975  15.802  0.0901 -0.1159 -0.0528
 1690TIP3    H126485   2.087   5.886  15.835  0.8378 -0.0124 -0.0038
 1690TIP3    H226486   2.106   5.971  15.711 -0.4230 -0.0398 -0.2276
 1691TIP3   OH226487   2.726   6.041   5.149  0.3545  0.3043  0.3701
 1691TIP3    H126488   2.761   6.115   5.199  0.6337  0.9039 -0.6788
 1691TIP3    H226489   2.676   6.082   5.078  2.0816 -0.4323 -1.3694
 1692TIP3   OH226490   3.504   1.857  15.752 -0.0887 -0.2052  0.2925
 1692TIP3    H126491   3.565   1.811  15.695  1.2545  0.8655  0.8328
 1692TIP3    H226492   3.523   1.824  15.840  0.2355  0.6606  0.5589
 1693TIP3   OH226493   0.865   2.262   1.262 -0.0265 -1.0328  0.4375
 1693TIP3    H126494   0.795   2.219   1.213  0.3446 -0.7053 -0.3962
 1693TIP3    H226495   0.943   2.209   1.244  0.1140 -0.9144  0.6894
 1694TIP3   OH226496   4.766   5.546  16.565 -0.0632 -0.4079  0.6359
 1694TIP3    H126497   4.766   5.635  16.529 -2.6759 -0.7873 -0.5454
 1694TIP3    H226498   4.731   5.557  16.653 -0.4608 -0.2661  0.4639
 1695TIP3   OH226499   5.949   2.836   3.443 -0.6411  0.2691 -0.4978
 1695TIP3    H126500   5.861   2.802   3.429 -0.5121  0.9152 -3.6338
 1695TIP3    H226501   5.936   2.930   3.456 -0.4829  0.1561  0.5531
 1696TIP3   OH226502   1.166   4.521   1.709 -1.0295 -0.1705 -0.3480
 1696TIP3    H126503   1.167   4.519   1.804 -0.2833  0.6350 -0.3283
 1696TIP3    H226504   1.153   4.430   1.683  1.1439 -0.7679  0.5095
 1697TIP3   OH226505   2.829   2.692   3.047 -0.6812 -0.5622  0.4126
 1697TIP3    H126506   2.816   2.720   3.138 -0.6982  1.4931 -0.1748
 1697TIP3    H226507   2.740   2.679   3.014 -0.7315 -0.0039  0.3199
 1698TIP3   OH226508   4.360   3.706  10.968 -0.1893 -0.7279  0.4197
 1698TIP3    H126509   4.423   3.637  10.948 -1.3440 -1.6271 -0.2975
 1698TIP3    H226510   4.301   3.707  10.892 -1.5629 -0.5441  1.4421
 1699TIP3   OH226511   3.367   3.460   2.071  1.0075 -0.7600  0.0974
 1699TIP3    H126512   3.371   3.470   2.166  1.0968 -1.8853  0.2281
 1699TIP3    H226513   3.385   3.547   2.037  3.6633 -0.8445  1.0579
 1700TIP3   OH226514   5.818   6.159  15.685  0.0731 -0.2142  0.6812
 1700TIP3    H126515   5.883   6.170  15.616 -1.6674  2.3253 -0.7125
 1700TIP3    H226516   5.758   6.092  15.651  1.0646 -1.4669  1.3156
 1701TIP3   OH226517   2.949   6.154   2.547 -0.0933 -0.4699 -0.2551
 1701TIP3    H126518   2.906   6.069   2.540  0.5498 -0.7311 -1.2737
 1701TIP3    H226519   3.042   6.133   2.560  0.1443  0.0738 -1.0277
 1702TIP3   OH226520   0.835   2.594   5.572 -0.2967 -0.3250 -0.2161
 1702TIP3    H126521   0.847   2.508   5.611  2.0132 -0.9047 -1.9697
 1702TIP3    H226522   0.900   2.650   5.615 -0.5081  0.0716 -0.4006
 1703TIP3   OH226523   4.086   6.147  14.070  0.2306 -0.4594  0.5461
 1703TIP3    H126524   4.105   6.122  13.980  3.2009  0.0960  0.9372
 1703TIP3    H226525   4.052   6.236  14.063 -2.4348 -1.4177 -0.1597
 1704TIP3   OH226526   4.142   1.995   4.120 -0.2342 -0.0686  0.4574
 1704TIP3    H126527   4.182   1.934   4.057 -2.2692 -1.8027  0.7544
 1704TIP3    H226528   4.146   1.950   4.204  0.2655  1.2059  1.1500
 1705TIP3   OH226529   1.427   0.753   2.785  0.2985 -0.2278 -0.4176
 1705TIP3    H126530   1.392   0.708   2.708 -2.2022  1.1666 -0.2119
 1705TIP3    H226531   1.396   0.843   2.776 -1.5206 -0.3651  2.9690
 1706TIP3   OH226532   6.116   2.597  11.352 -0.0925 -0.0519 -0.0589
 1706TIP3    H126533   6.052   2.666  11.334  0.4397  0.3749 -0.3546
 1706TIP3    H226534   6.174   2.635  11.418 -1.1718 -1.0780  1.5440
 1707TIP3   OH226535   3.296   0.070   0.693  0.0501  0.4963 -0.7973
 1707TIP3    H126536   3.305  -0.024   0.712  0.0126  0.5167 -0.6816
 1707TIP3    H226537   3.218   0.076   0.639  1.1930  0.2016 -2.5888
 1708TIP3   OH226538   4.343   1.074  10.435  0.5269  0.1190  0.4455
 1708TIP3    H126539   4.433   1.093  10.409  0.7855 -1.0295  0.4357
 1708TIP3    H226540   4.350   0.996  10.490 -0.7147 -1.9853 -2.1252
 1709TIP3   OH226541   4.179   1.614   5.046  0.2728 -0.4796 -0.1451
 1709TIP3    H126542   4.204   1.693   5.095  1.5710 -0.4655 -0.7878
 1709TIP3    H226543   4.262   1.576   5.018 -0.3117 -2.1981  0.3139
 1710TIP3   OH226544   0.420   4.621  11.589  0.3410  0.2971 -0.1071
 1710TIP3    H126545   0.371   4.675  11.650  0.3282 -0.0740  0.2201
 1710TIP3    H226546   0.449   4.546  11.642  1.8528  0.8398 -0.1131
 1711TIP3   OH226547   2.369   1.078   1.885  0.1828 -0.3105  0.0284
 1711TIP3    H126548   2.279   1.048   1.891  0.2007 -0.7151 -1.4016
 1711TIP3    H226549   2.393   1.064   1.794  1.1043  1.4947 -0.0492
 1712TIP3   OH226550   0.751   3.874   0.580 -0.6876  0.5199 -0.3078
 1712TIP3    H126551   0.833   3.860   0.532 -0.6609 -1.2250  0.1723
 1712TIP3    H226552   0.683   3.839   0.523 -1.1174  1.8337 -0.6424
 1713TIP3   OH226553   2.468   5.103  11.971 -0.2464  0.0888  0.5066
 1713TIP3    H126554   2.542   5.121  12.030 -0.3874 -0.0383  0.7213
 1713TIP3    H226555   2.444   5.189  11.936  2.8267 -0.2050 -2.9971
 1714TIP3   OH226556   4.871   2.437   0.504 -0.1715  0.1564 -0.0404
 1714TIP3    H126557   4.867   2.513   0.562  0.7240  0.5623 -0.4974
 1714TIP3    H226558   4.908   2.471   0.423 -1.4821 -0.3959 -0.8859
 1715TIP3   OH226559   5.181   1.816  15.647 -0.1725 -0.3814 -0.0788
 1715TIP3    H126560   5.107   1.868  15.617  0.2754  2.1537  2.7738
 1715TIP3    H226561   5.141   1.738  15.687 -1.0664 -0.5461 -1.2357
 1716TIP3   OH226562   3.305   4.633  10.806  0.4822 -0.4023 -0.2600
 1716TIP3    H126563   3.267   4.570  10.867  1.9388 -0.3565  0.7466
 1716TIP3    H226564   3.231   4.684  10.774 -0.2215  0.4521  2.4783
 1717TIP3   OH226565   3.763   0.415   1.355 -0.2076  0.2318 -0.3662
 1717TIP3    H126566   3.717   0.484   1.305 -1.0122 -0.5794 -0.7782
 1717TIP3    H226567   3.693   0.363   1.394  0.4085  0.5012  1.1656
 1718TIP3   OH226568   3.730   4.260   3.221 -0.4268  0.1235 -0.6718
 1718TIP3    H126569   3.753   4.217   3.139 -0.9174 -0.2337 -0.6257
 1718TIP3    H226570   3.699   4.347   3.194  1.3110  0.7714 -0.7023
 1719TIP3   OH226571   0.678   6.446   2.622 -0.3458  0.2137 -0.1502
 1719TIP3    H126572   0.772   6.464   2.617 -0.0938 -0.7978  0.6478
 1719TIP3    H226573   0.672   6.351   2.630 -1.5543  0.0037 -2.6077
 1720TIP3   OH226574   2.121   1.231  12.788 -0.1165 -0.1526  0.4243
 1720TIP3    H126575   2.045   1.288  12.776  0.5780  0.6552 -0.2793
 1720TIP3    H226576   2.196   1.287  12.769  0.8004 -0.3595  3.0330
 1721TIP3   OH226577   5.031   2.300   3.437  0.0695 -0.0528 -0.1178
 1721TIP3    H126578   5.031   2.209   3.408  1.8896  0.3444 -1.4815
 1721TIP3    H226579   5.076   2.299   3.521 -0.6430 -0.5071  0.2643
 1722TIP3   OH226580   3.820   4.501   1.233  0.3809  0.3006 -0.1586
 1722TIP3    H126581   3.858   4.413   1.223 -1.1645 -0.6472  1.6524
 1722TIP3    H226582   3.865   4.538   1.310 -0.1952  0.3784  0.1467
 1723TIP3   OH226583   4.291   1.934  15.053 -0.2734  0.6793 -0.1081
 1723TIP3    H126584   4.204   1.939  15.095 -0.3066 -0.5027  0.0025
 1723TIP3    H226585   4.349   1.904  15.123 -0.0063  0.3103 -0.4838
 1724TIP3   OH226586   3.550   3.529  11.288 -0.3388 -0.2671  0.3870
 1724TIP3    H126587   3.516   3.588  11.220  1.6524 -0.0336 -0.4743
 1724TIP3    H226588   3.612   3.472  11.243  0.3778 -0.7075  1.8420
 1725TIP3   OH226589   2.329   4.696  15.813  0.3967  0.6453 -0.1055
 1725TIP3    H126590   2.236   4.720  15.805 -0.6777 -2.0665  2.3364
 1725TIP3    H226591   2.353   4.724  15.901  1.1345 -0.7949  0.1790
 1726TIP3   OH226592   2.591   6.469   1.136 -0.4022  0.1605  0.4053
 1726TIP3    H126593   2.670   6.521   1.154  0.6773 -1.3875  0.3099
 1726TIP3    H226594   2.538   6.479   1.215  0.6895 -0.1561  1.2131
 1727TIP3   OH226595   3.707   5.927   5.459  0.2387 -0.1405  0.0612
 1727TIP3    H126596   3.749   5.894   5.538  0.4090  1.6021  0.7413
 1727TIP3    H226597   3.745   5.876   5.388  3.0826  0.9223  0.7015
 1728TIP3   OH226598   0.403   1.805  12.716 -0.2648  0.0937 -0.5579
 1728TIP3    H126599   0.433   1.718  12.689 -1.4276  0.2177 -2.4820
 1728TIP3    H226600   0.453   1.825  12.795  0.8323 -1.8457 -0.7051
 1729TIP3   OH226601   5.044   4.960   2.614 -0.4569 -0.6023  0.0635
 1729TIP3    H126602   5.138   4.949   2.599 -0.5951 -1.8641  0.0109
 1729TIP3    H226603   5.028   4.918   2.699 -0.8272  0.4353  0.5236
 1730TIP3   OH226604   5.625   2.046   0.971 -0.2715 -0.3187  0.3624
 1730TIP3    H126605   5.561   2.114   0.994  1.8470  2.0289 -0.2829
 1730TIP3    H226606   5.574   1.982   0.920 -1.9327  2.0391 -1.1635
 1731TIP3   OH226607   3.766   6.366  17.063  0.3500 -0.3175 -0.2396
 1731TIP3    H126608   3.812   6.443  17.097 -1.8043  1.7050 -1.5448
 1731TIP3    H226609   3.767   6.304  17.135 -1.1534  2.4564  2.4382
 1732TIP3   OH226610   2.787   0.765  11.259 -0.4488 -0.0106 -0.1685
 1732TIP3    H126611   2.807   0.734  11.347  0.5656  3.1186  0.8407
 1732TIP3    H226612   2.846   0.716  11.202 -1.4144 -2.4028  0.7551
 1733TIP3   OH226613   5.878   1.831   4.538  0.3706  0.3652  0.2020
 1733TIP3    H126614   5.930   1.873   4.607  0.5075 -0.7453  0.8124
 1733TIP3    H226615   5.825   1.766   4.585 -0.7060  0.6707 -0.5596
 1734TIP3   OH226616   3.699   2.971  14.932  0.2518  0.3152 -0.0963
 1734TIP3    H126617   3.667   3.018  15.009 -1.2405 -0.3540 -0.2690
 1734TIP3    H226618   3.775   2.923  14.962  1.6436  2.5513  0.1682
 1735TIP3   OH226619   6.450   1.853  12.760 -0.4073 -0.3547  0.2288
 1735TIP3    H126620   6.410   1.820  12.840  1.4475 -2.2412  0.4578
 1735TIP3    H226621   6.523   1.794  12.742  0.3442  1.0508 -1.8928
 1736TIP3   OH226622   1.188   3.548   3.892  0.1641 -0.5317 -0.5292
 1736TIP3    H126623   1.235   3.502   3.823 -0.8108 -1.4299 -0.6240
 1736TIP3    H226624   1.240   3.627   3.908  0.1396 -0.0281 -2.6485
 1737TIP3   OH226625   5.670   0.282   0.769  0.0885  0.2071 -0.1084
 1737TIP3    H126626   5.727   0.219   0.724 -0.0293 -0.8600  1.1895
 1737TIP3    H226627   5.675   0.258   0.861  0.4598  2.4520  0.5157
 1738TIP3   OH226628   5.037   4.566   3.106 -0.2632  0.4992 -0.3667
 1738TIP3    H126629   4.959   4.554   3.161  0.5126 -1.6696  0.3453
 1738TIP3    H226630   5.111   4.561   3.167  0.4978  1.3617 -1.1931
 1739TIP3   OH226631   2.760   1.234  13.016 -0.4672  0.3258  0.2501
 1739TIP3    H126632   2.853   1.241  13.041  0.1965 -1.0884 -1.6226
 1739TIP3    H226633   2.739   1.320  12.979  1.2361 -0.4198 -2.7183
 1740TIP3   OH226634   6.345   1.864  15.707 -0.2031  0.0280  0.5219
 1740TIP3    H126635   6.297   1.815  15.640 -0.6425  1.3097 -0.1380
 1740TIP3    H226636   6.433   1.873  15.672 -0.3157  0.3240  0.3128
 1741TIP3   OH226637   3.675   3.709   1.189 -0.1059  0.0850 -0.3226
 1741TIP3    H126638   3.662   3.674   1.277  0.6259  2.4719  0.8215
 1741TIP3    H226639   3.591   3.696   1.145  0.2287 -3.4321 -0.2324
 1742TIP3   OH226640   4.356   0.286   2.223 -0.6230  0.2521 -0.1979
 1742TIP3    H126641   4.365   0.248   2.135 -3.5644 -2.0957  0.3319
 1742TIP3    H226642   4.267   0.321   2.224 -1.0494 -0.7442  2.1488
 1743TIP3   OH226643   1.992   3.038  12.662  0.2129  0.3243 -0.0964
 1743TIP3    H126644   1.955   2.989  12.588 -1.5490  1.8146 -0.2444
 1743TIP3    H226645   2.052   2.975  12.704  0.0530 -1.0692 -1.8257
 1744TIP3   OH226646   3.402   0.174   0.276  0.6324  0.1669 -0.2354
 1744TIP3    H126647   3.429   0.257   0.238  0.1699  0.7053  0.5806
 1744TIP3    H226648   3.376   0.120   0.200 -0.0232  1.1161 -0.7104
 1745TIP3   OH226649   4.630   1.880   0.297  0.2814  0.1501  0.1967
 1745TIP3    H126650   4.566   1.809   0.297  1.5094 -0.9826  0.3354
 1745TIP3    H226651   4.614   1.925   0.214  0.3313 -1.0871 -0.5126
 1746TIP3   OH226652   6.038   5.844  11.441 -0.2928 -0.4710 -0.5174
 1746TIP3    H126653   6.102   5.905  11.479  1.7857 -1.7735 -1.7068
 1746TIP3    H226654   5.974   5.900  11.397  0.5324  0.8879 -0.0517
 1747TIP3   OH226655   1.781   1.358   0.513 -0.4320 -0.1842 -0.0064
 1747TIP3    H126656   1.850   1.409   0.470 -0.7014  1.0965  1.0244
 1747TIP3    H226657   1.707   1.363   0.453 -1.0260  2.1616  0.7954
 1748TIP3   OH226658   5.038   2.236  10.987  0.4674  0.1361 -0.0183
 1748TIP3    H126659   5.051   2.174  10.916  0.5054  0.5687 -0.3988
 1748TIP3    H226660   4.948   2.268  10.974  0.9043  1.1832 -0.6722
 1749TIP3   OH226661   6.449   5.109   6.419  0.1572  0.1664  0.1170
 1749TIP3    H126662   6.501   5.127   6.340  0.5695 -1.4613 -0.0141
 1749TIP3    H226663   6.426   5.196   6.452  2.2577  0.9392 -0.2770
 1750TIP3   OH226664   3.529   6.686   3.155 -0.8283  0.0390 -0.4759
 1750TIP3    H126665   3.611   6.736   3.165  0.7969 -2.8155  1.9426
 1750TIP3    H226666   3.488   6.725   3.078  1.0608  3.9152  0.2072
 1751TIP3   OH226667   0.370   0.794   2.128 -0.3099  0.0849 -0.3687
 1751TIP3    H126668   0.306   0.731   2.095 -0.0806  0.0429 -0.7435
 1751TIP3    H226669   0.362   0.870   2.069 -1.3568  0.8703  0.7336
 1752TIP3   OH226670   3.854   1.287  13.030  0.2252  0.1527 -0.2565
 1752TIP3    H126671   3.830   1.198  13.055  1.2935 -0.7489 -2.2756
 1752TIP3    H226672   3.906   1.319  13.104 -0.6483 -0.6450  0.7461
 1753TIP3   OH226673   1.346   6.088  15.375 -0.5474 -0.4413  0.1565
 1753TIP3    H126674   1.368   6.023  15.442  0.3240 -0.6951 -0.3668
 1753TIP3    H226675   1.275   6.048  15.325 -0.8408 -0.4714  0.5909
 1754TIP3   OH226676   0.977   1.821   2.858 -0.3496 -0.0564  0.3301
 1754TIP3    H126677   1.040   1.891   2.874  0.6774 -1.2165  1.6100
 1754TIP3    H226678   1.004   1.784   2.774 -0.0076  0.1675  0.3401
 1755TIP3   OH226679   0.438   5.718  11.054  0.2487 -0.0101  0.0353
 1755TIP3    H126680   0.348   5.731  11.084 -0.6168 -5.4211  0.9121
 1755TIP3    H226681   0.428   5.689  10.963  1.2974  0.9958 -0.4107
 1756TIP3   OH226682   6.213   5.903   2.186  0.3049  0.3639  0.7419
 1756TIP3    H126683   6.273   5.862   2.248  0.9782  1.2330  0.6848
 1756TIP3    H226684   6.255   5.892   2.101  0.3508  0.8843  0.6890
 1757TIP3   OH226685   3.643   0.857  15.483 -0.2327  0.1396 -0.5889
 1757TIP3    H126686   3.727   0.886  15.520 -0.5583  0.4409 -0.0751
 1757TIP3    H226687   3.619   0.781  15.536 -1.1167  1.0779  0.4016
 1758TIP3   OH226688   2.041   3.045   1.363  0.1832  0.1649  0.0087
 1758TIP3    H126689   2.111   3.100   1.398 -0.9600  0.7716  1.4369
 1758TIP3    H226690   1.969   3.106   1.347 -0.3447 -0.5940 -0.5320
 1759TIP3   OH226691   2.205   2.781   0.861  1.3228  0.2906  0.4281
 1759TIP3    H126692   2.272   2.714   0.862  0.3462 -0.7422 -0.4684
 1759TIP3    H226693   2.212   2.821   0.774  0.1108 -0.5843 -0.1148
 1760TIP3   OH226694   1.996   4.920  16.551 -0.0203  0.3845  0.2976
 1760TIP3    H126695   1.927   4.925  16.617  0.1712  1.7705  0.4290
 1760TIP3    H226696   2.056   4.853  16.583 -0.2841  0.5684  1.1904
 1761TIP3   OH226697   3.367   6.014  12.782  0.0925 -0.1721 -0.5809
 1761TIP3    H126698   3.276   6.013  12.812  0.1292  0.8469 -0.3967
 1761TIP3    H226699   3.415   6.054  12.854  0.4588  0.6425 -1.2699
 1762TIP3   OH226700   3.316   6.760   4.702  0.6508  0.9479  0.4529
 1762TIP3    H126701   3.329   6.703   4.626 -0.2376  0.3803  0.7066
 1762TIP3    H226702   3.372   6.723   4.770 -1.0221 -0.5814  1.0836
 1763TIP3   OH226703   0.143   3.502   5.579  0.3960  0.0806 -0.2039
 1763TIP3    H126704   0.166   3.410   5.592 -1.0435 -0.2689  0.1120
 1763TIP3    H226705   0.119   3.507   5.487  2.0321  0.5334 -0.6336
 1764TIP3   OH226706   2.056   2.609   6.933 -0.2224  0.4388  0.1907
 1764TIP3    H126707   2.050   2.689   6.985 -0.2148  0.6437 -0.1178
 1764TIP3    H226708   2.101   2.637   6.853  1.7005 -0.2992  0.9498
 1765TIP3   OH226709   1.231   3.161   2.443 -0.0100 -0.4984  0.0335
 1765TIP3    H126710   1.314   3.153   2.490  0.1760 -0.1549 -0.2278
 1765TIP3    H226711   1.164   3.153   2.511  0.2634  0.5238  0.4550
 1766TIP3   OH226712   0.076   4.420  12.639 -0.3199 -0.4266  0.1150
 1766TIP3    H126713  -0.012   4.386  12.656 -0.7505  0.8801  0.5890
 1766TIP3    H226714   0.098   4.387  12.552 -0.7720 -1.7737  0.4880
 1767TIP3   OH226715   0.294   2.143   2.958 -0.0651  0.1376 -0.0383
 1767TIP3    H126716   0.313   2.067   3.013 -1.8148 -0.4277 -0.1635
 1767TIP3    H226717   0.315   2.114   2.869  2.3755  0.9191  0.2150
 1768TIP3   OH226718   6.775   0.823   2.724  0.0925  0.7338 -0.3961
 1768TIP3    H126719   6.754   0.916   2.717 -1.0571  0.6421  1.2673
 1768TIP3    H226720   6.849   0.820   2.784  0.4320  0.5979 -0.8174
 1769TIP3   OH226721   1.918   4.358   3.767 -0.3224  0.4551  0.0225
 1769TIP3    H126722   1.933   4.344   3.861 -1.1415  1.6816  0.3549
 1769TIP3    H226723   1.826   4.384   3.761 -0.3489  0.1448 -1.1592
 1770TIP3   OH226724   1.758   5.398  10.834 -0.9321  0.0973 -0.3456
 1770TIP3    H126725   1.753   5.487  10.868 -0.8018  0.0521 -0.2030
 1770TIP3    H226726   1.769   5.344  10.912  0.6787  0.1047 -0.5445
 1771TIP3   OH226727   3.257   2.284  16.542  0.1227  0.0491 -0.4467
 1771TIP3    H126728   3.222   2.200  16.571  0.0297 -0.6324 -2.3894
 1771TIP3    H226729   3.190   2.318  16.482  0.9192  0.6857 -0.9964
 1772TIP3   OH226730   2.325   0.985  12.202 -0.0647 -0.3789  0.3973
 1772TIP3    H126731   2.256   0.937  12.247  0.7422 -2.7968 -0.7225
 1772TIP3    H226732   2.280   1.056  12.157 -1.8729 -1.8551 -0.2749
 1773TIP3   OH226733   4.715   1.203  10.867 -0.0142  0.2980 -0.2166
 1773TIP3    H126734   4.750   1.174  10.952  1.8698 -0.2006 -1.1292
 1773TIP3    H226735   4.750   1.291  10.856 -1.1178  0.7754 -0.0311
 1774TIP3   OH226736   2.635   1.763   3.946 -0.5623 -0.3840 -0.2102
 1774TIP3    H126737   2.668   1.734   4.031 -1.7573 -1.5110 -0.0861
 1774TIP3    H226738   2.713   1.773   3.892  0.1290 -0.8955  0.6657
 1775TIP3   OH226739   2.237   0.402  10.742 -0.2608 -0.3820  0.3184
 1775TIP3    H126740   2.187   0.477  10.708  0.7567  0.5384  0.7732
 1775TIP3    H226741   2.328   0.429  10.732  0.1275 -0.1903  3.4034
 1776TIP3   OH226742   1.711   6.131  16.055  0.1672  0.4386  0.2160
 1776TIP3    H126743   1.697   6.142  16.149  0.0239 -0.4213  0.3102
 1776TIP3    H226744   1.724   6.036  16.045  0.5736  0.5774 -0.5773
 1777TIP3   OH226745   5.414   6.348   2.333 -0.8668 -0.1053 -0.2532
 1777TIP3    H126746   5.428   6.326   2.241 -1.8107  1.1777 -0.7254
 1777TIP3    H226747   5.483   6.411   2.353  0.9074 -2.1875  0.6825
 1778TIP3   OH226748   3.993   1.252  11.191  0.2204  0.5465 -0.3854
 1778TIP3    H126749   3.923   1.317  11.184  0.0138  0.4107  0.2844
 1778TIP3    H226750   3.965   1.181  11.134 -1.4392 -0.5834  1.6570
 1779TIP3   OH226751   0.418   1.291   2.191  0.4765 -0.1744 -0.0863
 1779TIP3    H126752   0.490   1.228   2.181  1.0776  0.4177  0.3875
 1779TIP3    H226753   0.346   1.239   2.227  0.8294 -0.6836 -0.0996
 1780TIP3   OH226754   5.358   1.454   0.173 -0.0785  0.0645  0.5500
 1780TIP3    H126755   5.307   1.376   0.152  0.2354  0.5366 -2.3924
 1780TIP3    H226756   5.303   1.527   0.142  1.6558  0.6785 -1.2380
 1781TIP3   OH226757   5.119   6.693   2.092  0.1525  0.1417 -0.7797
 1781TIP3    H126758   5.031   6.710   2.124  0.7750  1.1293  0.4787
 1781TIP3    H226759   5.115   6.604   2.057 -0.7263 -0.8579  1.6389
 1782TIP3   OH226760   4.462   0.154   1.323 -0.0701 -0.4092  0.6103
 1782TIP3    H126761   4.389   0.189   1.374 -0.1108 -1.3718  1.2403
 1782TIP3    H226762   4.512   0.101   1.385  0.9969 -0.0069  0.1117
 1783TIP3   OH226763   4.054   1.794   5.676 -0.2768 -0.1664  0.1269
 1783TIP3    H126764   4.110   1.868   5.700 -2.6419  2.5630 -2.1080
 1783TIP3    H226765   4.105   1.746   5.611 -0.3835  2.3602 -2.0119
 1784TIP3   OH226766   2.305   1.930   2.915  0.0775  0.3305  0.0357
 1784TIP3    H126767   2.243   2.003   2.922 -1.1351 -0.5912 -0.6072
 1784TIP3    H226768   2.268   1.873   2.847  0.5781 -1.2606  1.0286
 1785TIP3   OH226769   2.520   5.352   2.970  0.6901  0.4039  0.3564
 1785TIP3    H126770   2.485   5.370   2.882 -1.1431 -0.1280  0.9292
 1785TIP3    H226771   2.484   5.266   2.993  0.3076  0.9678  2.0065
 1786TIP3   OH226772   6.686   1.011  16.086  0.4363  0.1643  0.1231
 1786TIP3    H126773   6.734   0.969  16.158 -1.1970 -1.9376  0.1162
 1786TIP3    H226774   6.717   0.966  16.008  0.6148  0.8997 -0.2320
 1787TIP3   OH226775   3.557   3.812  15.198 -0.5554  0.0226  0.2940
 1787TIP3    H126776   3.463   3.805  15.214 -1.1799  1.2625 -2.3084
 1787TIP3    H226777   3.580   3.902  15.224 -0.3224  0.0898 -0.1370
 1788TIP3   OH226778   3.089   4.277   0.794  0.0417  0.4030  0.3583
 1788TIP3    H126779   3.009   4.255   0.842 -0.8798  3.1123  0.2078
 1788TIP3    H226780   3.076   4.367   0.765  2.0186  0.0292 -2.0507
 1789TIP3   OH226781   5.820   1.546   0.291 -0.1290  0.2362 -0.0981
 1789TIP3    H126782   5.750   1.573   0.232  1.3052  0.7211 -1.6406
 1789TIP3    H226783   5.846   1.627   0.336 -0.1278  0.1817 -0.0004
 1790TIP3   OH226784   6.601   0.051   3.897  0.2432 -0.1410 -0.0882
 1790TIP3    H126785   6.560  -0.004   3.963  0.7920 -0.1851  0.2235
 1790TIP3    H226786   6.662   0.106   3.946  0.3473  0.1267 -0.5078
 1791TIP3   OH226787   5.779   3.220  12.200  0.3246 -0.8584  0.6004
 1791TIP3    H126788   5.840   3.147  12.188 -0.7748 -1.9980  1.6475
 1791TIP3    H226789   5.783   3.239  12.294 -0.2438 -0.3246  0.5190
 1792TIP3   OH226790   6.001   5.710   3.114 -0.2408 -0.2399  0.1441
 1792TIP3    H126791   6.091   5.679   3.105 -0.1053 -0.0358  0.7750
 1792TIP3    H226792   5.965   5.658   3.185 -1.4004 -2.0676 -1.6540
 1793TIP3   OH226793   5.253   1.892   2.838 -0.2028 -0.2705 -0.1478
 1793TIP3    H126794   5.167   1.918   2.806 -0.8328 -2.6233 -0.5504
 1793TIP3    H226795   5.252   1.911   2.931 -2.3165 -2.9260  0.4603
 1794TIP3   OH226796   3.526   5.655  15.395 -0.2485  0.2452  0.3495
 1794TIP3    H126797   3.447   5.674  15.344  0.7406 -1.9567 -2.3036
 1794TIP3    H226798   3.494   5.625  15.480 -2.3771 -1.3794 -0.9258
 1795TIP3   OH226799   0.016   4.094   2.137  0.1714 -0.3053 -0.0454
 1795TIP3    H126800  -0.013   4.038   2.209  0.7737  0.9202  1.1844
 1795TIP3    H226801   0.083   4.151   2.175  0.4321  0.4590 -1.5495
 1796TIP3   OH226802   4.906   2.500  15.364 -0.1140 -0.6197 -0.2226
 1796TIP3    H126803   4.990   2.505  15.410  2.3873  0.2696 -4.3491
 1796TIP3    H226804   4.889   2.590  15.335 -0.8942 -1.2732 -1.9448
 1797TIP3   OH226805   2.077   3.448   2.793  0.2516  0.2622 -0.1368
 1797TIP3    H126806   2.002   3.447   2.853  0.8372  0.4412  0.6098
 1797TIP3    H226807   2.116   3.361   2.802  0.1496  0.1792 -0.5010
 1798TIP3   OH226808   5.263   1.542  15.531  0.0589 -0.1300  0.5366
 1798TIP3    H126809   5.207   1.547  15.609  1.3438  0.8475  1.4283
 1798TIP3    H226810   5.344   1.586  15.556  0.7969 -0.4617 -1.1197
 1799TIP3   OH226811   4.475   5.601   0.272 -0.0811 -0.1000  0.3922
 1799TIP3    H126812   4.439   5.662   0.337  0.4270 -0.4089  0.9805
 1799TIP3    H226813   4.528   5.540   0.324  0.7292 -0.0636 -0.3686
 1800TIP3   OH226814   6.492   5.359   4.382 -0.2348 -0.0634  0.2324
 1800TIP3    H126815   6.444   5.380   4.462 -0.1583  0.0308  0.2536
 1800TIP3    H226816   6.473   5.267   4.366  1.2110 -0.5937  1.3689
 1801TIP3   OH226817   2.467   6.610  12.409 -0.2831 -0.4300 -0.0017
 1801TIP3    H126818   2.485   6.701  12.433 -1.5663 -0.1824  0.1191
 1801TIP3    H226819   2.452   6.566  12.492 -1.9725 -0.2038 -0.1528
 1802TIP3   OH226820   5.592   0.037   2.247  0.2190  0.8529 -0.4497
 1802TIP3    H126821   5.578   0.079   2.331 -1.3018 -0.9658  0.2719
 1802TIP3    H226822   5.523  -0.029   2.241  1.6418 -0.6034 -2.0980
 1803TIP3   OH226823   3.578   1.913  17.054 -0.2691 -0.1088 -0.1924
 1803TIP3    H126824   3.580   1.826  17.093 -1.3730 -0.4311 -0.8132
 1803TIP3    H226825   3.665   1.925  17.017 -0.6582 -1.7548 -1.7806
 1804TIP3   OH226826   5.412   4.612  17.071 -0.5250 -0.1374 -0.4803
 1804TIP3    H126827   5.437   4.654  17.154 -0.3420 -2.2299  0.5932
 1804TIP3    H226828   5.376   4.683  17.018 -2.0912  1.0291  1.9512
 1805TIP3   OH226829   4.823   0.815   5.190  1.2154 -0.0503  0.4543
 1805TIP3    H126830   4.818   0.767   5.273 -0.8575 -0.7297 -0.0049
 1805TIP3    H226831   4.732   0.820   5.160  1.0722  4.7600  0.7868
 1806TIP3   OH226832   5.018   2.975  16.981 -0.8639  0.2314 -0.4992
 1806TIP3    H126833   4.998   2.888  17.015  0.6465 -0.1891 -0.6232
 1806TIP3    H226834   4.969   3.035  17.038 -0.3104 -0.5871  0.8938
 1807TIP3   OH226835   0.110   5.636   6.060  0.1361 -0.9038 -0.0895
 1807TIP3    H126836   0.022   5.661   6.087  0.8238  1.2497  0.3969
 1807TIP3    H226837   0.153   5.608   6.142  0.4615 -0.0841  0.0274
 1808TIP3   OH226838   4.427   4.165  10.592  0.4127 -0.7486 -0.2779
 1808TIP3    H126839   4.455   4.140  10.680  3.1890 -0.8903 -1.1292
 1808TIP3    H226840   4.432   4.260  10.592 -0.4260 -0.6941 -0.0603
 1809TIP3   OH226841   4.159   1.567  16.820  0.4113  0.1535  1.0756
 1809TIP3    H126842   4.074   1.561  16.777  1.6231 -1.9177 -1.2571
 1809TIP3    H226843   4.207   1.633  16.771  1.0366 -0.6001  0.6537
 1810TIP3   OH226844   5.517   4.710  11.681  0.2408  0.0780  0.3376
 1810TIP3    H126845   5.508   4.763  11.761  0.4521  1.0648 -0.2818
 1810TIP3    H226846   5.589   4.649  11.701 -0.0687 -0.0540  1.0939
 1811TIP3   OH226847   5.548   4.506   3.727  0.2256  0.0856 -0.4801
 1811TIP3    H126848   5.632   4.532   3.690  0.5901  0.1115  0.3459
 1811TIP3    H226849   5.516   4.437   3.668 -0.4950  1.9396 -2.3799
 1812TIP3   OH226850   5.120   4.180   2.938  0.0999  0.7004  0.2049
 1812TIP3    H126851   5.176   4.173   2.861  1.7087 -1.1871  1.4628
 1812TIP3    H226852   5.048   4.120   2.921 -0.0768  1.0186 -0.2082
 1813TIP3   OH226853   4.872   0.098  16.107  0.0629  0.8246 -0.0239
 1813TIP3    H126854   4.777   0.106  16.100  0.0199  0.9048  0.6047
 1813TIP3    H226855   4.906   0.130  16.023 -0.4616  0.8235 -0.2356
 1814TIP3   OH226856   0.944   3.484   4.023 -0.6123  0.6122  0.0806
 1814TIP3    H126857   0.915   3.415   3.963 -1.1310  2.0114 -1.3406
 1814TIP3    H226858   1.023   3.520   3.982 -0.1616  0.6664  0.9717
 1815TIP3   OH226859   3.876   3.474   2.634  0.1356 -0.6121 -0.4157
 1815TIP3    H126860   3.808   3.422   2.590 -1.1536 -0.3412  1.1481
 1815TIP3    H226861   3.872   3.446   2.725  1.4941  0.1107 -0.1062
 1816TIP3   OH226862   5.562   6.511  12.405 -0.1158  0.0796 -0.4218
 1816TIP3    H126863   5.655   6.528  12.397 -0.1910  0.7987  0.1537
 1816TIP3    H226864   5.531   6.505  12.315  0.5888 -0.7928 -0.6175
 1817TIP3   OH226865   0.069   6.321   3.411 -0.0260  0.4486  0.0247
 1817TIP3    H126866   0.162   6.344   3.413 -0.4587  2.3993  0.3113
 1817TIP3    H226867   0.043   6.330   3.319 -0.3409  1.9593  0.2256
 1818TIP3   OH226868   1.600   2.367   4.916 -0.2119  0.6097  0.5360
 1818TIP3    H126869   1.543   2.293   4.934  0.0807 -0.4755 -2.4334
 1818TIP3    H226870   1.683   2.345   4.959  0.3975 -1.6812 -1.5922
 1819TIP3   OH226871   4.326   3.088   4.354  0.6354  0.0784 -0.3772
 1819TIP3    H126872   4.332   3.059   4.445  2.1531  1.4650  0.0076
 1819TIP3    H226873   4.232   3.094   4.337  0.3116  0.7650  1.4503
 1820TIP3   OH226874   3.851   5.060   2.385 -0.4538  0.3252  0.0500
 1820TIP3    H126875   3.923   5.091   2.329 -1.9716  0.2490 -2.0719
 1820TIP3    H226876   3.859   4.965   2.383 -1.4996  0.2168 -1.5864
 1821TIP3   OH226877   2.077   5.378   1.929 -0.3629 -0.2393  0.0761
 1821TIP3    H126878   1.989   5.342   1.916 -0.4969  0.6590 -1.8587
 1821TIP3    H226879   2.064   5.472   1.937  0.5007  0.1203 -2.0147
 1822TIP3   OH226880   4.320   5.150  13.840  0.0111  0.6051  0.0197
 1822TIP3    H126881   4.384   5.082  13.820  1.0843  1.4756  0.3955
 1822TIP3    H226882   4.283   5.173  13.754 -0.3351 -0.3992 -0.1144
 1823TIP3   OH226883   3.452   1.307  12.991  0.2106  0.0581  0.2511
 1823TIP3    H126884   3.410   1.387  12.961  0.4801 -0.2245 -0.9468
 1823TIP3    H226885   3.386   1.264  13.046 -0.8354 -0.0476 -1.0268
 1824TIP3   OH226886   4.286   3.730  15.881 -0.4256 -1.0679  0.6637
 1824TIP3    H126887   4.258   3.812  15.921 -0.5722 -0.7130 -0.1422
 1824TIP3    H226888   4.209   3.700  15.832  0.1053 -0.8919 -0.3003
 1825TIP3   OH226889   5.685   6.192   3.068 -0.7500  0.1803  0.0581
 1825TIP3    H126890   5.763   6.231   3.107 -1.6261  1.6812  0.4051
 1825TIP3    H226891   5.612   6.234   3.114 -1.8075  0.8611 -2.1162
 1826TIP3   OH226892   4.909   2.281   4.727 -0.2807  0.2061 -0.2045
 1826TIP3    H126893   4.840   2.246   4.671 -0.0817  0.6351 -0.7296
 1826TIP3    H226894   4.932   2.365   4.687  0.5793  0.0484 -0.0705
 1827TIP3   OH226895   1.322   2.624  16.907 -0.3346  0.1967  0.1642
 1827TIP3    H126896   1.256   2.692  16.922 -1.5959 -0.8573 -0.4001
 1827TIP3    H226897   1.316   2.604  16.814  1.9685  1.2027 -0.2807
 1828TIP3   OH226898   4.035   3.633  13.151 -0.5459 -0.2861  0.3552
 1828TIP3    H126899   4.040   3.549  13.106 -1.6211  0.0583 -0.4488
 1828TIP3    H226900   3.955   3.628  13.203 -0.4296  0.1116  0.5785
 1829TIP3   OH226901   3.931   2.848   2.780  0.7685 -0.8206 -0.5368
 1829TIP3    H126902   3.897   2.865   2.692 -0.6330 -4.0236 -0.7356
 1829TIP3    H226903   3.861   2.877   2.838 -0.3556 -2.9384 -0.7483
 1830TIP3   OH226904   3.984   0.927  12.224  0.0623 -0.4110  0.0645
 1830TIP3    H126905   3.988   0.979  12.305  0.6287  0.2532 -0.3754
 1830TIP3    H226906   4.074   0.931  12.190 -0.4947  0.5549 -1.3615
 1831TIP3   OH226907   0.503   1.635  15.573  0.0806 -0.1789  0.9513
 1831TIP3    H126908   0.571   1.669  15.514  0.8411 -0.3149  1.7358
 1831TIP3    H226909   0.457   1.713  15.604  0.7127  0.0251  1.4066
 1832TIP3   OH226910   5.566   5.577  12.742  0.4889 -0.4740  0.0898
 1832TIP3    H126911   5.622   5.553  12.668 -0.0289 -1.1175 -0.1019
 1832TIP3    H226912   5.574   5.672  12.748 -0.6213 -0.2220 -1.7643
 1833TIP3   OH226913   5.841   6.688  13.141  0.2284  0.2539 -0.0387
 1833TIP3    H126914   5.922   6.725  13.177 -0.6131 -0.2336  2.5416
 1833TIP3    H226915   5.805   6.759  13.087 -0.3150  2.6407  3.1544
 1834TIP3   OH226916   1.573   0.180   5.141  0.2988 -0.0146  0.6171
 1834TIP3    H126917   1.605   0.166   5.230 -0.1191  0.1524  0.7972
 1834TIP3    H226918   1.587   0.096   5.097  1.7432  0.2948  0.4463
 1835TIP3   OH226919   0.908   5.245   1.486  0.1291 -0.2070  1.1610
 1835TIP3    H126920   0.943   5.302   1.417 -0.1425 -0.5619  0.7196
 1835TIP3    H226921   0.944   5.280   1.567 -1.5567  1.7938  1.1364
 1836TIP3   OH226922   0.462   4.065   2.145  0.2224  0.5743 -0.1057
 1836TIP3    H126923   0.510   4.143   2.171  0.5311  0.7947 -1.2693
 1836TIP3    H226924   0.393   4.056   2.210 -0.2750  2.2468 -0.3442
 1837TIP3   OH226925   6.291   4.631   4.991 -0.0338  0.3168  0.2212
 1837TIP3    H126926   6.347   4.569   4.945 -0.0445 -0.1245  0.7954
 1837TIP3    H226927   6.282   4.705   4.930 -1.6221 -1.0488 -1.3296
 1838TIP3   OH226928   3.957   2.859  12.321  0.1390  0.1070  0.5069
 1838TIP3    H126929   4.038   2.809  12.332  0.2575  0.2893  0.4708
 1838TIP3    H226930   3.940   2.859  12.227 -0.0951 -0.2283  0.5458
 1839TIP3   OH226931   3.237   5.484   4.020 -0.3644 -0.6425 -0.7570
 1839TIP3    H126932   3.311   5.492   4.080 -0.9516 -0.1076 -0.0806
 1839TIP3    H226933   3.229   5.570   3.979 -1.0028 -0.5046 -0.3488
 1840TIP3   OH226934   0.713   1.531   0.896 -0.0386 -0.1545 -0.3243
 1840TIP3    H126935   0.783   1.478   0.934  0.2357  0.3272 -0.1546
 1840TIP3    H226936   0.637   1.473   0.896 -0.8801  0.6427  3.6495
 1841TIP3   OH226937   5.945   1.365   3.491  0.4231 -0.1040 -0.3880
 1841TIP3    H126938   6.024   1.350   3.543 -0.5003  0.8368  1.4040
 1841TIP3    H226939   5.922   1.456   3.508 -0.1144  0.1547 -2.2630
 1842TIP3   OH226940   0.524   0.529  11.382 -0.2478  0.6201  0.2176
 1842TIP3    H126941   0.532   0.462  11.451 -1.7274  1.2349  1.0414
 1842TIP3    H226942   0.518   0.612  11.430  3.4471  1.6538 -0.8406
 1843TIP3   OH226943   4.430   0.598  13.449  0.4800 -0.0774 -0.7745
 1843TIP3    H126944   4.367   0.664  13.422  0.0601 -0.9676 -2.0867
 1843TIP3    H226945   4.511   0.647  13.466 -0.4518  1.0360  0.6625
 1844TIP3   OH226946   5.431   6.252   2.855 -0.5892  0.1884 -0.1857
 1844TIP3    H126947   5.501   6.262   2.919  0.1878  2.0517 -1.2463
 1844TIP3    H226948   5.473   6.208   2.781 -0.4889  1.4184 -0.8726
 1845TIP3   OH226949   6.570   6.351   0.022  0.0699 -0.0498 -0.3383
 1845TIP3    H126950   6.597   6.283   0.084 -0.6823 -0.1664 -0.1269
 1845TIP3    H226951   6.498   6.395   0.066 -0.2219  0.1164 -0.9747
 1846TIP3   OH226952   1.614   0.347  14.343 -0.9167  0.1172 -0.2932
 1846TIP3    H126953   1.621   0.260  14.384  0.5507  0.2852 -0.1372
 1846TIP3    H226954   1.692   0.393  14.372 -0.8006  0.9003 -1.7763
 1847TIP3   OH226955   0.671   6.015  12.634  0.4336  0.2834 -0.6523
 1847TIP3    H126956   0.673   6.096  12.583  0.3126  1.3868  1.0158
 1847TIP3    H226957   0.579   5.988  12.632  0.7376 -0.7547 -2.5637
 1848TIP3   OH226958   0.649   6.201   5.498  0.3620 -0.1920  0.3428
 1848TIP3    H126959   0.623   6.193   5.590  1.0782 -0.3791  0.5365
 1848TIP3    H226960   0.711   6.129   5.485  0.1393 -0.2639 -0.3351
 1849TIP3   OH226961   3.932   3.551   0.426  0.0875  0.0370 -0.5682
 1849TIP3    H126962   3.906   3.474   0.478  0.9635 -0.4213 -0.7810
 1849TIP3    H226963   4.015   3.579   0.465 -0.2927  0.9615 -0.4125
 1850TIP3   OH226964   1.289   2.861   1.063  0.2413 -0.2948 -0.7740
 1850TIP3    H126965   1.340   2.780   1.057  1.6793  0.2995  1.6409
 1850TIP3    H226966   1.309   2.895   1.151 -1.3328  2.0118 -1.2099
 1851TIP3   OH226967   0.002   3.974  13.068  0.0864 -0.1933 -0.0929
 1851TIP3    H126968  -0.027   4.058  13.030 -1.0399 -0.3583  0.3739
 1851TIP3    H226969  -0.077   3.920  13.068  0.4664 -0.7570  0.9672
 1852TIP3   OH226970   0.517   3.588   0.235 -0.4308  0.2619 -0.1117
 1852TIP3    H126971   0.484   3.630   0.155 -1.6164 -0.5566 -0.0664
 1852TIP3    H226972   0.460   3.513   0.249  1.1832 -0.9639  0.2396
 1853TIP3   OH226973   6.518   5.901   3.663 -0.9328 -0.4822  0.2140
 1853TIP3    H126974   6.446   5.961   3.684 -0.1232  0.2319  1.0493
 1853TIP3    H226975   6.476   5.816   3.652 -1.7743 -0.3128  1.8588
 1854TIP3   OH226976   6.267   3.183  14.980 -0.7922 -0.3575  0.0431
 1854TIP3    H126977   6.244   3.111  15.038 -2.4780  0.4669  0.4659
 1854TIP3    H226978   6.233   3.261  15.024  1.4238  0.7948 -0.1447
 1855TIP3   OH226979   4.119   0.886   1.292  0.2418 -0.0202  0.1389
 1855TIP3    H126980   4.155   0.856   1.208 -0.4255  0.5400 -0.3584
 1855TIP3    H226981   4.196   0.898   1.348  0.6870 -0.4928 -0.3645
 1856TIP3   OH226982   5.267   4.371  12.111  0.4660  0.1992  0.2870
 1856TIP3    H126983   5.294   4.283  12.136 -0.0526  0.2965  1.2381
 1856TIP3    H226984   5.331   4.398  12.044  0.6005 -0.8996 -0.0426
 1857TIP3   OH226985   0.725   1.268  16.070 -0.3572  0.4235 -0.4918
 1857TIP3    H126986   0.779   1.251  15.992  0.4358  0.2952  0.0702
 1857TIP3    H226987   0.730   1.187  16.121  1.3269  1.3592  0.9576
 1858TIP3   OH226988   0.740   0.380   3.126  0.2357 -0.1937  0.4478
 1858TIP3    H126989   0.667   0.436   3.153 -0.3144 -1.4320  1.6997
 1858TIP3    H226990   0.812   0.440   3.110 -0.8565  1.0058 -0.1147
 1859TIP3   OH226991   5.366   0.333   2.284 -0.1663  0.1450  0.2566
 1859TIP3    H126992   5.294   0.272   2.267 -1.3738  2.0983 -2.3974
 1859TIP3    H226993   5.422   0.326   2.207  0.6580  1.0289  0.7570
 1860TIP3   OH226994   4.387   2.801   1.374  0.1798 -0.1922 -0.5897
 1860TIP3    H126995   4.430   2.827   1.293  1.4649  0.1735  0.1788
 1860TIP3    H226996   4.306   2.852   1.376  1.1381  1.3943 -0.6532
 1861TIP3   OH226997   1.700   4.021   1.490  0.1581 -0.0136 -0.3367
 1861TIP3    H126998   1.661   3.939   1.521  2.2403 -1.1990 -0.6209
 1861TIP3    H226999   1.688   4.018   1.395 -1.0315  0.7583 -0.2357
 1862TIP3   OH227000   1.902   3.152   0.605 -0.5297 -0.8966 -0.1472
 1862TIP3    H127001   1.859   3.067   0.589 -1.2575 -0.4752 -0.5321
 1862TIP3    H227002   1.854   3.212   0.548 -0.3632 -0.1297  0.5147
 1863TIP3   OH227003   4.819   4.147  12.382 -0.0889 -0.2941  0.2537
 1863TIP3    H127004   4.815   4.235  12.419 -1.4441 -0.5114  0.7118
 1863TIP3    H227005   4.890   4.104  12.429  0.4066  0.4611  0.2152
 1864TIP3   OH227006   2.241   3.947   3.976  0.2644  1.0197  0.3566
 1864TIP3    H127007   2.286   4.025   4.008  2.1404  0.2017 -0.1169
 1864TIP3    H227008   2.239   3.888   4.052  0.5978  0.8207  0.2170
 1865TIP3   OH227009   1.833   4.416   2.822 -0.2210 -0.4456 -0.5938
 1865TIP3    H127010   1.755   4.463   2.853 -0.8864 -1.9361  0.1438
 1865TIP3    H227011   1.876   4.476   2.762 -0.7585  1.2621  0.6553
 1866TIP3   OH227012   3.039   1.964  14.724  0.3680 -0.2220 -0.2008
 1866TIP3    H127013   2.974   2.030  14.748  0.7471 -0.5209  1.8292
 1866TIP3    H227014   3.000   1.918  14.650 -1.7499 -0.4054  0.9631
 1867TIP3   OH227015   0.887   6.002  14.406 -0.5068 -0.4580  0.1701
 1867TIP3    H127016   0.878   6.081  14.354 -0.8793 -1.3837 -1.2166
 1867TIP3    H227017   0.976   6.004  14.439  0.0038 -0.2433 -1.1794
 1868TIP3   OH227018   3.229   2.094  16.892  0.5367 -0.1387  0.0456
 1868TIP3    H127019   3.256   2.034  16.961  0.8142  0.5397  0.5394
 1868TIP3    H227020   3.133   2.090  16.893  0.5026  0.4478  1.0159
 1869TIP3   OH227021   0.572   2.540  13.005  0.2681  0.2526 -0.3609
 1869TIP3    H127022   0.572   2.616  13.064  1.9743 -0.9679  1.3292
 1869TIP3    H227023   0.662   2.536  12.971  0.9117 -2.2405  1.3696
 1870TIP3   OH227024   2.510   5.605  13.140  0.2541  0.2339 -0.2594
 1870TIP3    H127025   2.426   5.560  13.129 -0.4625  1.2576  0.8162
 1870TIP3    H227026   2.572   5.552  13.090 -0.5903 -1.7819  0.7290
 1871TIP3   OH227027   2.963   1.231   4.794  0.0630 -0.4971 -0.0131
 1871TIP3    H127028   2.940   1.155   4.847  0.4065  0.7962  2.1405
 1871TIP3    H227029   2.909   1.223   4.716 -2.1619 -1.4161  1.5111
 1872TIP3   OH227030   5.324   5.248   4.461 -0.1687 -0.2265  0.8097
 1872TIP3    H127031   5.358   5.185   4.398 -0.9667  0.9097 -0.8238
 1872TIP3    H227032   5.306   5.195   4.539 -0.3168 -1.9284 -0.3099
 1873TIP3   OH227033   2.302   2.903   0.004 -0.3250  0.3713  0.0753
 1873TIP3    H127034   2.293   2.987   0.047  0.2409  0.7621 -0.5537
 1873TIP3    H227035   2.262   2.916  -0.082 -0.5480 -0.1061  0.1022
 1874TIP3   OH227036   2.334   5.828  11.983  0.5762 -0.2180 -0.3454
 1874TIP3    H127037   2.245   5.849  11.955  0.4329  0.1593  0.3874
 1874TIP3    H227038   2.388   5.894  11.941  0.4752 -0.2509 -0.5291
 1875TIP3   OH227039   1.078   3.412  13.749  0.5641  0.0757 -0.0952
 1875TIP3    H127040   1.140   3.429  13.678 -0.6050  2.5207 -0.6501
 1875TIP3    H227041   1.047   3.499  13.775 -2.1534 -0.9815  0.5628
 1876TIP3   OH227042   4.095   6.363  14.626  0.0499 -0.1583  0.4194
 1876TIP3    H127043   4.181   6.344  14.588 -0.2243 -1.5168  0.4411
 1876TIP3    H227044   4.116   6.411  14.706  0.9889 -2.5572  1.7310
 1877TIP3   OH227045   2.773   6.810  16.312  0.3745  0.8882 -0.7606
 1877TIP3    H127046   2.732   6.783  16.395 -1.0589  0.9964 -1.3924
 1877TIP3    H227047   2.837   6.876  16.337  0.3413  0.5386  0.3079
 1878TIP3   OH227048   3.752   5.868  16.977  0.2402  0.2518 -1.0776
 1878TIP3    H127049   3.756   5.877  17.073 -2.4307 -0.1435 -0.8656
 1878TIP3    H227050   3.771   5.775  16.962  0.4839  0.2740 -0.9105
 1879TIP3   OH227051   4.726   1.726  13.461  0.0197 -0.2748  0.4548
 1879TIP3    H127052   4.788   1.728  13.388 -1.3533  1.5459 -0.7623
 1879TIP3    H227053   4.739   1.809  13.507 -1.2539 -0.0031  0.3705
 1880TIP3   OH227054   0.529   0.337  14.845  0.3895 -0.2457 -0.4082
 1880TIP3    H127055   0.575   0.265  14.887 -1.1280 -0.2155  1.4558
 1880TIP3    H227056   0.588   0.367  14.777  2.6610 -0.8861  1.1648
 1881TIP3   OH227057   4.081   4.557   4.455 -0.2355  0.0162 -0.6631
 1881TIP3    H127058   4.135   4.587   4.529  1.0533 -0.1809 -1.4853
 1881TIP3    H227059   4.121   4.473   4.430 -0.1835  0.4382 -2.0508
 1882TIP3   OH227060   6.273   2.142  14.651  0.1360 -0.2935  0.0339
 1882TIP3    H127061   6.340   2.075  14.637 -0.3294 -0.4933 -1.3909
 1882TIP3    H227062   6.212   2.102  14.713 -0.3891 -1.3878 -1.1648
 1883TIP3   OH227063   5.700   4.671  11.450  0.0064  0.4415  0.7540
 1883TIP3    H127064   5.684   4.577  11.445 -1.7809  0.7858 -2.2484
 1883TIP3    H227065   5.643   4.701  11.521 -2.3859 -0.3258 -0.7202
 1884TIP3   OH227066   2.416   5.557   3.911 -0.6939  0.3038 -0.3443
 1884TIP3    H127067   2.468   5.636   3.899  0.4672 -0.1387  1.3937
 1884TIP3    H227068   2.441   5.500   3.839  0.5187  0.4964 -0.1007
 1885TIP3   OH227069   4.495   0.005  15.598  0.4251 -0.3722  0.0187
 1885TIP3    H127070   4.559  -0.030  15.536  0.9543  2.2463 -1.0370
 1885TIP3    H227071   4.411  -0.011  15.556  0.4344 -2.3292  0.6366
 1886TIP3   OH227072   0.827   4.498   1.205  0.4341  0.2012  0.0892
 1886TIP3    H127073   0.916   4.489   1.171 -0.1182  1.2567 -1.8141
 1886TIP3    H227074   0.789   4.568   1.152 -1.3897  0.0912  1.1816
 1887TIP3   OH227075   0.354   5.117   1.801  0.2344  0.3602 -0.0083
 1887TIP3    H127076   0.270   5.116   1.755  0.5549 -0.5264 -0.6135
 1887TIP3    H227077   0.418   5.100   1.733  0.8422  0.3048  0.5693
 1888TIP3   OH227078   5.147   2.287   4.847 -0.1358 -0.4650  0.2457
 1888TIP3    H127079   5.066   2.270   4.797  1.1480 -2.2293 -1.4292
 1888TIP3    H227080   5.129   2.252   4.934 -2.0560  1.6343  0.7798
 1889TIP3   OH227081   4.152   0.458   4.976 -0.2866  0.1080  0.1753
 1889TIP3    H127082   4.086   0.485   5.040  1.0512  0.6818  1.3763
 1889TIP3    H227083   4.133   0.511   4.898 -0.3635  1.3600  1.0128
 1890TIP3   OH227084   5.240   0.946  15.090 -0.1601  0.5408  0.1131
 1890TIP3    H127085   5.317   0.991  15.054  0.1934 -0.2699 -0.1513
 1890TIP3    H227086   5.188   0.922  15.014 -1.0458  1.6904  0.3170
 1891TIP3   OH227087   3.537   0.265  14.450 -0.5900  0.6190  0.3478
 1891TIP3    H127088   3.450   0.285  14.486 -0.8982 -0.1169  0.0315
 1891TIP3    H227089   3.526   0.181  14.407  1.1457 -1.3422  3.4212
 1892TIP3   OH227090   6.051   3.106  12.513 -0.1196  0.5967  0.1525
 1892TIP3    H127091   6.110   3.174  12.480  1.7780  0.7812  3.5124
 1892TIP3    H227092   5.973   3.155  12.542  0.7121  1.2444  1.3853
 1893TIP3   OH227093   5.364   4.154   0.613  1.3863  0.4438  0.4847
 1893TIP3    H127094   5.419   4.226   0.643  1.5455  1.0366 -1.1303
 1893TIP3    H227095   5.426   4.091   0.575  1.0371  0.8277 -0.7687
 1894TIP3   OH227096   6.361   0.078   5.264  0.1290  0.5014  0.4014
 1894TIP3    H127097   6.407   0.007   5.308  2.1661  0.4443 -1.6171
 1894TIP3    H227098   6.361   0.053   5.171  2.0272  3.5925 -0.6040
 1895TIP3   OH227099   1.414   5.120  16.479 -0.1136  0.1880  0.2246
 1895TIP3    H127100   1.428   5.094  16.389 -1.7909  1.6761 -0.5262
 1895TIP3    H227101   1.493   5.169  16.503  0.3625 -0.2722 -0.4025
 1896TIP3   OH227102   2.217   3.192   0.670  0.9663 -0.9803 -0.0233
 1896TIP3    H127103   2.230   3.167   0.761  1.4297  0.2871  0.2782
 1896TIP3    H227104   2.122   3.198   0.660  0.9265 -0.7506  0.4805
 1897TIP3   OH227105   5.820   1.649  14.550  0.3161 -0.0374  0.5593
 1897TIP3    H127106   5.899   1.665  14.601  0.3517 -0.4595  0.6340
 1897TIP3    H227107   5.850   1.650  14.459 -0.0006  2.3460  0.4108
 1898TIP3   OH227108   6.403   4.119   2.638  0.0703 -0.0219 -0.2831
 1898TIP3    H127109   6.497   4.136   2.628 -0.4501  1.9866 -2.8174
 1898TIP3    H227110   6.372   4.107   2.549 -2.1354 -0.5257  0.5038
 1899TIP3   OH227111   2.489   3.039   0.839 -0.2505  0.5470 -0.2555
 1899TIP3    H127112   2.411   3.086   0.867  0.0067  1.3187 -0.7790
 1899TIP3    H227113   2.505   3.071   0.750  0.4687  0.1411 -0.2799
 1900TIP3   OH227114   0.656   2.401  15.566  0.2965  0.4968 -0.1599
 1900TIP3    H127115   0.657   2.320  15.617  1.0709 -0.0767 -1.0511
 1900TIP3    H227116   0.747   2.428  15.560  0.0202  1.6210  0.3840
 1901TIP3   OH227117   2.999   1.427  14.780  0.0715  0.3420 -0.0886
 1901TIP3    H127118   2.912   1.427  14.741 -0.4635  0.4469  1.0624
 1901TIP3    H227119   2.994   1.492  14.850  1.6995  1.8876 -1.3125
 1902TIP3   OH227120   0.382   6.778   3.501 -0.5373  0.4983 -0.1856
 1902TIP3    H127121   0.374   6.743   3.412  0.6090 -0.2118 -0.0353
 1902TIP3    H227122   0.322   6.725   3.554 -1.2890  0.9832 -0.5502
 1903TIP3   OH227123   3.775   0.715  14.885  0.2060  0.4203 -0.2905
 1903TIP3    H127124   3.859   0.760  14.899  0.7242 -0.7366  0.4748
 1903TIP3    H227125   3.769   0.705  14.790  0.4654  1.3536 -0.4230
 1904TIP3   OH227126   3.198   3.697  10.690 -0.1557  0.0396 -0.4597
 1904TIP3    H127127   3.283   3.654  10.679 -0.1134 -1.3891  3.6549
 1904TIP3    H227128   3.136   3.625  10.695 -1.4278  0.9967 -1.6159
 1905TIP3   OH227129   1.543   1.447  16.058  0.6251  0.2639 -0.4063
 1905TIP3    H127130   1.616   1.506  16.074  0.1611  0.6555  0.3083
 1905TIP3    H227131   1.574   1.361  16.085  0.0998  0.7834  2.0323
 1906TIP3   OH227132   0.889   1.192   1.630  0.4504  0.1605  0.0650
 1906TIP3    H127133   0.978   1.223   1.618  1.6605 -2.5112  1.3433
 1906TIP3    H227134   0.867   1.214   1.721  0.0639  0.1891 -0.0301
 1907TIP3   OH227135   4.948   0.675  11.081  0.4402 -0.2617  0.2328
 1907TIP3    H127136   5.024   0.692  11.026  0.5308  3.2588  1.2127
 1907TIP3    H227137   4.875   0.669  11.019  1.1614 -1.3550 -0.5541
 1908TIP3   OH227138   2.569   1.650   2.959  0.1529  0.0193  0.0705
 1908TIP3    H127139   2.485   1.651   3.004  0.6372  1.0180  1.0059
 1908TIP3    H227140   2.546   1.653   2.866 -0.8488 -0.5935  0.2848
 1909TIP3   OH227141   0.559   1.884   3.969 -0.4207  0.2055  0.5021
 1909TIP3    H127142   0.555   1.900   3.875 -0.0489 -1.1459  0.2351
 1909TIP3    H227143   0.550   1.970   4.009  1.3636  1.0665 -0.8109
 1910TIP3   OH227144   1.123   2.059   3.446  0.3478 -0.2166 -0.1609
 1910TIP3    H127145   1.169   2.015   3.375  0.0505 -0.1195 -0.4147
 1910TIP3    H227146   1.037   2.017   3.449 -0.5877  1.4957 -1.5526
 1911TIP3   OH227147   1.591   6.193   0.588  0.5298 -0.0106  0.0240
 1911TIP3    H127148   1.615   6.269   0.534  1.0793 -0.4265 -0.3297
 1911TIP3    H227149   1.662   6.185   0.651  0.4762 -0.2372  0.0547
 1912TIP3   OH227150   1.413   2.238  12.920 -0.1453 -0.2874  0.7038
 1912TIP3    H127151   1.434   2.291  12.997 -0.1718  0.8840 -0.0715
 1912TIP3    H227152   1.348   2.174  12.951  0.5947 -0.4973  1.8732
 1913TIP3   OH227153   3.745   5.552  15.720 -0.7266 -0.2476  0.3528
 1913TIP3    H127154   3.719   5.485  15.658 -1.7798 -0.2465  0.7655
 1913TIP3    H227155   3.667   5.607  15.730  0.6129  2.1595 -1.3637
 1914TIP3   OH227156   4.431   2.677  14.690  0.2481 -0.1005  0.1715
 1914TIP3    H127157   4.492   2.749  14.680  0.4005  0.0577  1.9241
 1914TIP3    H227158   4.356   2.715  14.735 -0.1426 -0.8049  0.1339
 1915TIP3   OH227159   0.398   5.047  12.676 -0.0541 -0.0996  0.4827
 1915TIP3    H127160   0.360   5.070  12.592 -0.0321  0.4648  0.6290
 1915TIP3    H227161   0.450   5.123  12.702  0.3003 -0.4406  0.7967
 1916TIP3   OH227162   6.095   6.344   1.258 -0.4395 -0.1892  0.2647
 1916TIP3    H127163   6.134   6.257   1.247 -0.4275  0.0621 -2.5333
 1916TIP3    H227164   6.156   6.391   1.314  1.8834 -0.7156 -1.6518
 1917TIP3   OH227165   2.771   0.429  13.675 -0.6848 -0.4458  0.4508
 1917TIP3    H127166   2.834   0.361  13.699 -0.4453 -1.2790 -2.2025
 1917TIP3    H227167   2.746   0.408  13.585  0.7708  3.9101 -1.2729
 1918TIP3   OH227168   5.705   5.372  16.002 -0.0994  0.2043  0.5058
 1918TIP3    H127169   5.726   5.347  16.092 -1.3082 -1.2313  0.4208
 1918TIP3    H227170   5.757   5.313  15.948  1.2153  1.5693  0.2162
 1919TIP3   OH227171   6.768   4.519  14.053 -0.7628 -0.6213 -0.2471
 1919TIP3    H127172   6.763   4.568  13.971 -1.0073  1.2045  0.8040
 1919TIP3    H227173   6.719   4.438  14.036 -3.7150  1.1492 -0.9444
 1920TIP3   OH227174   6.208   4.103  14.833 -0.1526  0.6586 -0.2732
 1920TIP3    H127175   6.117   4.087  14.809 -1.1474  0.7322  2.9091
 1920TIP3    H227176   6.205   4.184  14.885  2.4486  3.1236 -3.4961
 1921TIP3   OH227177   1.670   3.244  14.050 -0.6713 -0.0078 -0.3030
 1921TIP3    H127178   1.756   3.287  14.054 -0.1108 -0.8915 -1.8428
 1921TIP3    H227179   1.617   3.289  14.115  0.4388  1.7469 -0.5622
 1922TIP3   OH227180   6.525   2.642   3.820 -0.4303  0.1865 -0.1968
 1922TIP3    H127181   6.532   2.714   3.882 -2.5226 -0.2998  0.6967
 1922TIP3    H227182   6.455   2.668   3.760 -0.1548 -0.4406 -0.8097
 1923TIP3   OH227183   0.971   2.817   1.792 -0.4600  0.5708 -0.0476
 1923TIP3    H127184   0.879   2.795   1.779  0.2057 -1.8924 -1.2086
 1923TIP3    H227185   0.996   2.867   1.714 -0.4064 -0.3577 -0.6461
 1924TIP3   OH227186   4.934   4.884   0.182  0.0485  0.2566  0.3902
 1924TIP3    H127187   4.929   4.823   0.109  3.7280 -0.5498  0.5944
 1924TIP3    H227188   4.844   4.893   0.214 -1.0985 -2.3272 -1.8237
 1925TIP3   OH227189   3.881   6.329  13.448  0.3428 -0.0896  0.0214
 1925TIP3    H127190   3.792   6.343  13.415 -0.1079 -0.7779  0.9004
 1925TIP3    H227191   3.918   6.416  13.457 -0.5007  0.2487  0.3099
 1926TIP3   OH227192   5.773   3.656   2.753  0.0594 -0.3452 -0.0729
 1926TIP3    H127193   5.863   3.663   2.785 -0.5150 -0.6673  1.7492
 1926TIP3    H227194   5.751   3.744   2.724  0.8543 -0.1914 -0.2184
 1927TIP3   OH227195   5.176   4.092  12.159 -0.0481  0.3621 -0.2701
 1927TIP3    H127196   5.229   4.059  12.086  0.0431 -0.5483  0.1866
 1927TIP3    H227197   5.100   4.034  12.161  0.0054  0.3067  0.4209
 1928TIP3   OH227198   5.203   1.144  13.066 -0.5046 -0.1311  0.1527
 1928TIP3    H127199   5.129   1.160  13.009 -1.0518 -0.0647  0.8603
 1928TIP3    H227200   5.235   1.231  13.090  0.0140 -0.1623 -0.4135
 1929TIP3   OH227201   5.508   0.154   6.104 -0.0444  0.2511 -0.1565
 1929TIP3    H127202   5.516   0.068   6.062 -3.1923  1.3313 -3.4815
 1929TIP3    H227203   5.598   0.184   6.115  1.2262 -3.5064  1.5656
 1930TIP3   OH227204   1.846   1.051  15.683  0.0637 -0.3661  0.5258
 1930TIP3    H127205   1.863   0.996  15.759  4.7092  0.5006  0.4137
 1930TIP3    H227206   1.860   1.140  15.714 -1.2412  0.3059 -0.6757
 1931TIP3   OH227207   2.963   1.979   0.550  0.5654 -0.0081  0.0367
 1931TIP3    H127208   2.972   1.890   0.517  1.0610 -0.5541  1.5779
 1931TIP3    H227209   2.904   2.022   0.488 -1.1104 -1.9152  0.2219
 1932TIP3   OH227210   2.172   1.298   1.699  0.5534  0.9523 -0.0772
 1932TIP3    H127211   2.231   1.252   1.639  0.5846  1.6929 -0.6331
 1932TIP3    H227212   2.213   1.384   1.711  0.8465  0.6241  1.4742
 1933TIP3   OH227213   3.247   1.131   0.672  0.1661  0.7732 -0.2945
 1933TIP3    H127214   3.235   1.175   0.756 -0.8921 -0.4457  0.2309
 1933TIP3    H227215   3.181   1.169   0.614 -2.4020 -1.6227  0.8277
 1934TIP3   OH227216   5.160   0.245  16.510 -0.0210 -0.6417 -0.2896
 1934TIP3    H127217   5.066   0.259  16.496  0.0681 -1.1224 -1.4297
 1934TIP3    H227218   5.165   0.213  16.600 -1.0102 -1.1125 -0.3857
 1935TIP3   OH227219   3.823   0.609   4.117  0.0810 -0.0602 -0.4774
 1935TIP3    H127220   3.776   0.567   4.189 -1.6150 -0.0280 -1.5260
 1935TIP3    H227221   3.912   0.620   4.151 -0.5653 -0.3722  1.4766
 1936TIP3   OH227222   3.400   1.702  12.240 -0.3124  0.9442 -0.1454
 1936TIP3    H127223   3.489   1.717  12.274 -0.2562  3.6423 -1.2436
 1936TIP3    H227224   3.409   1.712  12.146 -1.2988 -1.8426 -0.6070
 1937TIP3   OH227225   6.678   0.467   5.806  0.0862 -0.0003  0.6477
 1937TIP3    H127226   6.688   0.403   5.877  1.6838  1.1748  1.5549
 1937TIP3    H227227   6.759   0.459   5.755 -0.8905 -0.5853 -0.8981
 1938TIP3   OH227228   1.317   2.388   1.862  0.5332 -0.1544 -0.0338
 1938TIP3    H127229   1.306   2.453   1.933 -3.0247  1.3699 -1.7051
 1938TIP3    H227230   1.356   2.438   1.790  2.1965 -1.1825  0.0953
 1939TIP3   OH227231   2.586   2.294   3.902  0.0135 -0.5312  0.4171
 1939TIP3    H127232   2.574   2.225   3.836  0.3531 -0.7529  0.5850
 1939TIP3    H227233   2.499   2.306   3.939 -0.4366  0.4196 -0.8719
 1940TIP3   OH227234   6.310   3.569   5.504  0.0112 -0.1837 -0.0145
 1940TIP3    H127235   6.265   3.565   5.589 -2.2413 -2.0325 -1.1510
 1940TIP3    H227236   6.238   3.571   5.440  1.5968 -1.0346 -1.9173
 1941TIP3   OH227237   3.514   4.201  11.228  0.2292 -0.7437  0.0896
 1941TIP3    H127238   3.524   4.106  11.216 -1.9858 -1.0960  0.6461
 1941TIP3    H227239   3.525   4.215  11.322 -0.1813 -0.5548  0.1112
 1942TIP3   OH227240   5.589   0.992   6.602 -0.1329  0.1769 -0.0447
 1942TIP3    H127241   5.589   0.943   6.519 -0.2490  0.4003 -0.1767
 1942TIP3    H227242   5.682   1.007   6.620 -0.1211  0.4511 -0.3266
 1943TIP3   OH227243   0.734   5.325   5.074 -0.7505  0.5364 -0.5516
 1943TIP3    H127244   0.677   5.349   5.000 -1.2629  1.6686  0.1738
 1943TIP3    H227245   0.723   5.397   5.136  1.5432  0.8269 -0.4100
 1944TIP3   OH227246   6.654   3.302  13.285  0.0802  0.7378 -0.0056
 1944TIP3    H127247   6.605   3.309  13.367  0.7143  0.1740  0.4375
 1944TIP3    H227248   6.588   3.279  13.220 -0.1465 -0.8573  0.7380
 1945TIP3   OH227249   5.752   0.337   2.228  0.1034 -0.0610  0.1778
 1945TIP3    H127250   5.828   0.280   2.220  0.3161  0.3398 -0.7500
 1945TIP3    H227251   5.746   0.357   2.321  0.5787 -0.8391  0.3790
 1946TIP3   OH227252   6.524   1.665  15.871 -0.5734  0.1469  0.0980
 1946TIP3    H127253   6.609   1.709  15.870  0.4347 -1.6696  0.5412
 1946TIP3    H227254   6.461   1.733  15.848  0.9030  1.7346  0.5314
 1947TIP3   OH227255   3.084   1.581   5.438 -0.1584 -0.2814  0.1266
 1947TIP3    H127256   3.010   1.605   5.382  0.0864  1.6898  0.5725
 1947TIP3    H227257   3.047   1.520   5.502 -1.2544  0.1575 -0.0623
 1948TIP3   OH227258   0.925   4.196  11.291  0.5216 -0.5887 -0.9183
 1948TIP3    H127259   0.930   4.130  11.360  1.3611 -0.9178 -1.2729
 1948TIP3    H227260   0.989   4.167  11.226  1.3883  0.9311 -0.7854
 1949TIP3   OH227261   5.782   4.986  12.176  0.0669  0.6052  0.7712
 1949TIP3    H127262   5.834   5.065  12.185 -0.0690  0.8360 -0.2794
 1949TIP3    H227263   5.796   4.938  12.257  2.5937  0.2526  0.2056
 1950TIP3   OH227264   2.930   0.949  10.664  0.1021 -0.1844  0.4504
 1950TIP3    H127265   2.935   1.038  10.629  2.8182 -0.2260  0.5192
 1950TIP3    H227266   2.893   0.960  10.752  0.1635  0.8478  0.3672
 1951TIP3   OH227267   4.545   5.889  11.121  0.3942 -0.3260 -0.2407
 1951TIP3    H127268   4.628   5.840  11.115  1.1805  1.0471 -1.0235
 1951TIP3    H227269   4.491   5.853  11.050  0.7616 -0.4415 -0.4646
 1952TIP3   OH227270   1.114   2.477  11.175  0.4096 -0.4090  0.4464
 1952TIP3    H127271   1.123   2.434  11.090 -1.2750  0.0710 -0.0056
 1952TIP3    H227272   1.180   2.546  11.174  0.2584 -0.2637 -0.5675
 1953TIP3   OH227273   2.275   6.503   4.211 -0.2895 -0.3916 -0.7728
 1953TIP3    H127274   2.272   6.420   4.259 -1.8338  0.5406  0.8728
 1953TIP3    H227275   2.259   6.569   4.278  2.2191  1.4093 -1.7856
 1954TIP3   OH227276   3.874   2.283  11.264 -0.5950 -0.0584  0.1504
 1954TIP3    H127277   3.816   2.317  11.332 -0.8959  1.3771 -0.7765
 1954TIP3    H227278   3.904   2.361  11.217 -0.6454 -1.0201 -1.5589
 1955TIP3   OH227279   5.095   5.159   0.940 -0.3131 -0.6014 -0.1978
 1955TIP3    H127280   5.084   5.233   0.881  1.6055 -2.7046 -3.5318
 1955TIP3    H227281   5.018   5.104   0.925  0.1300 -1.0960 -0.6864
 1956TIP3   OH227282   6.256   1.690  16.486  0.4828 -0.2720  0.4258
 1956TIP3    H127283   6.275   1.777  16.523 -1.0150  0.2653  0.0077
 1956TIP3    H227284   6.243   1.706  16.393  1.6000 -1.2012  0.0822
 1957TIP3   OH227285   6.207   2.546   0.480 -0.0576 -0.1953 -0.5203
 1957TIP3    H127286   6.270   2.616   0.495  0.2415 -0.5334 -0.1697
 1957TIP3    H227287   6.122   2.586   0.495  0.1897 -0.4135  1.8535
 1958TIP3   OH227288   3.125   5.303   2.851 -0.4054  0.1095  0.4556
 1958TIP3    H127289   3.119   5.283   2.944  1.0059 -1.0092  0.3417
 1958TIP3    H227290   3.090   5.392   2.843  0.7311  0.7744  2.2753
 1959TIP3   OH227291   2.996   4.006   2.893  0.4815  0.5892  0.6417
 1959TIP3    H127292   2.955   4.020   2.808  2.2392  0.4727 -0.2763
 1959TIP3    H227293   3.048   4.085   2.907  0.4564  0.4633  1.4731
 1960TIP3   OH227294   0.570   6.150   2.296 -0.6715 -0.8417  0.1980
 1960TIP3    H127295   0.531   6.157   2.383  0.2972 -0.6332  0.6312
 1960TIP3    H227296   0.620   6.068   2.299  0.2265 -0.3091  0.2120
 1961TIP3   OH227297   0.319   1.586   5.067 -0.5051  0.0517  0.6347
 1961TIP3    H127298   0.248   1.536   5.027 -0.4022 -0.1753  0.7343
 1961TIP3    H227299   0.321   1.669   5.018  1.0935 -1.0767 -1.4129
 1962TIP3   OH227300   4.005   1.254  16.877  0.2191 -0.5925  0.2546
 1962TIP3    H127301   3.937   1.268  16.944 -0.2871 -0.9707 -0.1719
 1962TIP3    H227302   4.060   1.184  16.913  1.6901  1.1368  1.5781
 1963TIP3   OH227303   3.904   5.663  12.466  0.3329 -0.4435  0.2625
 1963TIP3    H127304   3.809   5.665  12.475  0.2315 -1.0263 -0.6317
 1963TIP3    H227305   3.936   5.718  12.539 -0.7003  0.2980  0.1801
 1964TIP3   OH227306   4.175   0.162   1.374 -0.0633  0.6000  0.0458
 1964TIP3    H127307   4.169   0.181   1.281 -0.3745 -1.6243 -0.4582
 1964TIP3    H227308   4.200   0.069   1.377 -1.1987  0.3034  2.1533
 1965TIP3   OH227309   5.003   0.356  11.466 -0.1315 -0.2153  0.6612
 1965TIP3    H127310   4.909   0.360  11.487 -0.0608 -0.1395  0.9689
 1965TIP3    H227311   5.028   0.266  11.487 -0.2646 -0.4073  0.0143
 1966TIP3   OH227312   3.406   1.662  13.759 -0.2008  0.3995  0.2508
 1966TIP3    H127313   3.437   1.740  13.712  0.1118 -0.8928 -1.8263
 1966TIP3    H227314   3.311   1.667  13.752 -0.1746  0.4818 -0.0999
 1967TIP3   OH227315   2.747   6.660  16.095 -0.0024  0.1745 -0.4996
 1967TIP3    H127316   2.827   6.690  16.052  0.3638 -0.2498 -0.1280
 1967TIP3    H227317   2.732   6.723  16.165 -0.6927  0.9633 -1.3215
 1968TIP3   OH227318   1.908   6.318  10.994 -0.5467  0.4710 -0.1315
 1968TIP3    H127319   1.981   6.262  10.970 -0.5499  1.0754 -1.6258
 1968TIP3    H227320   1.948   6.398  11.027 -0.4960  1.1044 -1.6637
 1969TIP3   OH227321   2.736   3.527   4.434 -0.0192 -0.1783 -0.3605
 1969TIP3    H127322   2.676   3.599   4.457  0.2262 -0.4656  1.2924
 1969TIP3    H227323   2.741   3.530   4.339 -0.0903  1.9436 -0.3451
 1970TIP3   OH227324   3.285   4.342   3.562 -0.0572 -0.2543 -0.2962
 1970TIP3    H127325   3.263   4.425   3.520 -1.7115 -0.3573  0.2801
 1970TIP3    H227326   3.279   4.277   3.492  1.6614  0.1491 -0.8392
 1971TIP3   OH227327   4.913   4.806   2.189 -0.0432 -0.3471 -0.0142
 1971TIP3    H127328   4.974   4.859   2.239  1.3896 -0.9204 -1.0891
 1971TIP3    H227329   4.838   4.794   2.247  0.7276  0.6376  1.2208
 1972TIP3   OH227330   3.981   5.819   1.861 -0.2329  0.1550  0.8083
 1972TIP3    H127331   3.930   5.805   1.781 -0.5181 -1.7451  1.2618
 1972TIP3    H227332   4.039   5.743   1.866  0.1202  0.4886  2.1450
 1973TIP3   OH227333   0.854   2.094   4.325 -0.2159 -0.3226  0.1972
 1973TIP3    H127334   0.948   2.086   4.307 -0.3909 -1.0644 -0.4317
 1973TIP3    H227335   0.850   2.139   4.409  0.7433 -1.5679  0.9500
 1974TIP3   OH227336   3.131   1.651  12.324  0.1928 -0.3801 -0.2064
 1974TIP3    H127337   3.222   1.649  12.295  0.5567  2.9097  0.3204
 1974TIP3    H227338   3.080   1.669  12.245  0.3344  0.4505 -0.1248
 1975TIP3   OH227339   5.407   3.517   4.143 -0.2012  0.2401 -0.1589
 1975TIP3    H127340   5.324   3.494   4.186 -0.8863  0.8339 -1.1144
 1975TIP3    H227341   5.418   3.610   4.160 -0.5454  0.5168 -1.3212
 1976TIP3   OH227342   4.519   5.325  15.861  0.8171 -0.0132 -0.5349
 1976TIP3    H127343   4.504   5.232  15.875 -1.0426  0.3531  0.1702
 1976TIP3    H227344   4.545   5.358  15.947 -0.3756  0.4309 -0.3323
 1977TIP3   OH227345   5.766   3.021  12.878  0.0346  0.7178  0.3381
 1977TIP3    H127346   5.854   3.057  12.889  0.7627 -0.7048 -0.4801
 1977TIP3    H227347   5.770   2.974  12.794 -0.8062 -1.2839  1.3650
 1978TIP3   OH227348   4.714   5.367   5.355  0.2660 -0.0061  0.3660
 1978TIP3    H127349   4.671   5.296   5.308 -2.1620  1.8360 -0.3932
 1978TIP3    H227350   4.792   5.385   5.302  0.4555 -1.4841  0.0861
 1979TIP3   OH227351   5.165   0.714  13.035  0.5084 -0.5166 -0.6537
 1979TIP3    H127352   5.073   0.736  13.050  1.3259  1.5379  2.2974
 1979TIP3    H227353   5.199   0.789  12.986  1.5513  1.3766  2.6015
 1980TIP3   OH227354   6.446   3.602   1.216  0.1169 -0.2146  0.5517
 1980TIP3    H127355   6.403   3.516   1.218  1.3226 -0.8973 -0.8751
 1980TIP3    H227356   6.526   3.590   1.268 -0.6281  0.6120  1.9326
 1981TIP3   OH227357   6.269   3.428  16.623 -0.5071  0.5149 -0.3692
 1981TIP3    H127358   6.272   3.507  16.570  2.0615  0.0393 -1.1002
 1981TIP3    H227359   6.296   3.358  16.562 -0.0772 -0.4716  0.9158
 1982TIP3   OH227360   2.186   1.667   0.381  0.1378 -0.2356  0.2744
 1982TIP3    H127361   2.231   1.730   0.325 -0.3615 -0.4500 -0.3813
 1982TIP3    H227362   2.142   1.720   0.446  0.9149  0.0059  0.6149
 1983TIP3   OH227363   4.323   3.887  16.139 -0.4576  0.0034  0.1589
 1983TIP3    H127364   4.327   3.975  16.103  2.3233  0.0816  0.4474
 1983TIP3    H227365   4.245   3.887  16.194 -1.4000  1.7515 -1.1021
 1984TIP3   OH227366   5.207   3.692  12.774  0.4118  0.3385 -0.0251
 1984TIP3    H127367   5.162   3.662  12.696 -0.1642  1.4623 -0.1481
 1984TIP3    H227368   5.235   3.612  12.819 -1.2583 -0.3816 -0.2071
 1985TIP3   OH227369   0.192   3.447   0.301 -0.0252  0.2750 -0.4922
 1985TIP3    H127370   0.236   3.424   0.382  1.5556  0.0790 -1.3508
 1985TIP3    H227371   0.207   3.541   0.291  1.5022 -0.0395 -1.4864
 1986TIP3   OH227372   1.068   2.355   3.742 -0.1399 -0.0917  0.0181
 1986TIP3    H127373   1.047   2.448   3.746 -0.9643 -0.2544 -0.2702
 1986TIP3    H227374   1.161   2.352   3.720 -0.2742  0.6571 -0.6933
 1987TIP3   OH227375   5.574   0.406   3.441 -0.0877 -0.3620 -0.1411
 1987TIP3    H127376   5.530   0.417   3.526  2.2381 -3.1228  1.6118
 1987TIP3    H227377   5.632   0.482   3.435 -0.7992  0.2451  0.3364
 1988TIP3   OH227378   2.973   3.990   0.576 -0.6520 -0.2762 -0.1936
 1988TIP3    H127379   2.903   4.055   0.576 -0.8718 -0.5051 -0.6060
 1988TIP3    H227380   2.989   3.972   0.484  0.5849  0.4275 -0.1348
 1989TIP3   OH227381   0.033   6.075   0.119  0.0048  0.5785 -0.3576
 1989TIP3    H127382   0.114   6.085   0.070  0.0551 -1.3497 -0.7310
 1989TIP3    H227383   0.060   6.045   0.205 -0.3097 -0.3521 -0.5738
 1990TIP3   OH227384   5.750   0.918  12.423  0.3400 -0.0656  0.1886
 1990TIP3    H127385   5.669   0.967  12.412  0.0928  0.0351  2.1320
 1990TIP3    H227386   5.736   0.837  12.375 -0.5388  0.3373 -0.2547
 1991TIP3   OH227387   5.340   5.707   0.954  0.2956 -0.2004 -0.2762
 1991TIP3    H127388   5.312   5.798   0.949 -0.3711 -0.4007 -0.2724
 1991TIP3    H227389   5.431   5.709   0.925  1.0186  0.7833  1.8836
 1992TIP3   OH227390   5.509   0.110  11.847  0.5478  0.3933 -0.2484
 1992TIP3    H127391   5.555   0.028  11.828  0.8197  0.5447 -0.2350
 1992TIP3    H227392   5.514   0.160  11.765 -2.0769 -0.7626 -1.2327
 1993TIP3   OH227393   2.695   3.031  13.219 -0.6183  0.1168  0.1407
 1993TIP3    H127394   2.712   3.053  13.127  1.0709 -3.1356 -0.4867
 1993TIP3    H227395   2.604   3.000  13.220 -0.1175 -1.5368 -0.9093
 1994TIP3   OH227396   5.488   2.575  13.543 -0.3382  0.4993  0.1776
 1994TIP3    H127397   5.492   2.640  13.472 -0.6719 -0.4350 -0.7271
 1994TIP3    H227398   5.414   2.519  13.519  0.5511 -0.8024  0.4128
 1995TIP3   OH227399   2.515   0.715  10.652  0.1826 -0.1495 -0.0341
 1995TIP3    H127400   2.544   0.772  10.724  0.0761  1.0799 -0.9420
 1995TIP3    H227401   2.478   0.774  10.587 -2.8796 -1.4792  0.3052
 1996TIP3   OH227402   2.337   0.307   0.028 -0.5904 -0.3814 -0.1152
 1996TIP3    H127403   2.403   0.238   0.026  1.2080  1.2251  0.6262
 1996TIP3    H227404   2.359   0.363  -0.046 -0.6961  0.5240  0.5221
 1997TIP3   OH227405   4.777   3.028  14.488 -0.1327 -0.6281 -0.1096
 1997TIP3    H127406   4.832   3.080  14.430  0.0512  0.0415  0.6353
 1997TIP3    H227407   4.703   3.002  14.435  0.1530 -0.2330 -0.7085
 1998TIP3   OH227408   2.024   4.388  15.586 -0.5662 -0.1120 -1.1204
 1998TIP3    H127409   2.031   4.350  15.674  0.3380  0.9709 -0.7025
 1998TIP3    H227410   1.973   4.468  15.599  1.5197  1.3048 -1.1227
 1999TIP3   OH227411   6.125   4.966  12.172 -0.4980  0.7483  0.1392
 1999TIP3    H127412   6.065   4.909  12.221 -0.8748  1.2901  0.3205
 1999TIP3    H227413   6.193   4.990  12.235 -0.6447  0.9459  0.2234
 2000TIP3   OH227414   0.241   0.809   4.622  0.3724  0.0903  0.4137
 2000TIP3    H127415   0.156   0.819   4.665  0.6062  0.5750  0.7736
 2000TIP3    H227416   0.255   0.715   4.619 -0.6281 -0.0539 -0.5404
 2001TIP3   OH227417   2.499   1.579   4.181 -0.0875 -0.2753  0.1605
 2001TIP3    H127418   2.567   1.642   4.202 -1.1612  0.8863  0.2714
 2001TIP3    H227419   2.453   1.617   4.106 -0.4519 -1.1550 -0.0767
 2002TIP3   OH227420   6.478   1.062   4.087  0.1486  0.1268 -0.6509
 2002TIP3    H127421   6.503   1.008   4.011  2.4233  0.8324 -0.4693
 2002TIP3    H227422   6.476   1.000   4.160  2.3793  0.1336 -0.5129
 2003TIP3   OH227423   5.583   2.944  13.429 -0.2151 -0.2783 -0.2770
 2003TIP3    H127424   5.676   2.935  13.448  0.4087  2.3227 -1.6611
 2003TIP3    H227425   5.549   2.998  13.501 -0.5871 -0.8623 -0.0039
 2004TIP3   OH227426   4.371   5.155  13.171 -0.2313  0.3238  0.2961
 2004TIP3    H127427   4.419   5.227  13.211  1.9462 -0.8270 -0.0678
 2004TIP3    H227428   4.283   5.189  13.156  1.1936  3.6130 -1.6498
 2005TIP3   OH227429   3.339   1.366   5.200  0.1094  0.0778  0.3760
 2005TIP3    H127430   3.389   1.319   5.267  0.5731  1.9747  1.4585
 2005TIP3    H227431   3.283   1.300   5.160  2.4066 -1.8591  0.1272
 2006TIP3   OH227432   3.706   4.020   2.822  0.3123  0.1678 -0.1603
 2006TIP3    H127433   3.629   4.074   2.836  0.7338  0.8519 -0.4026
 2006TIP3    H227434   3.772   4.081   2.788  1.2159 -0.2331  0.8189
 2007TIP3   OH227435   6.057   3.822   1.476  0.0900 -0.2527 -0.1272
 2007TIP3    H127436   6.059   3.854   1.566  1.7307  0.4925 -0.4049
 2007TIP3    H227437   6.148   3.819   1.449 -0.4129  0.2257 -2.0190
 2008TIP3   OH227438   0.183   1.130   4.384  0.2300  0.3673 -0.2486
 2008TIP3    H127439   0.157   1.180   4.306 -0.2224 -1.8085 -1.5709
 2008TIP3    H227440   0.244   1.064   4.350 -1.5813 -1.9821  0.8326
 2009TIP3   OH227441   1.194   3.490  15.723  0.2107  0.4212  0.2779
 2009TIP3    H127442   1.099   3.487  15.720  0.2334 -0.8965  0.1467
 2009TIP3    H227443   1.215   3.547  15.797 -0.6420  2.2758 -0.8402
 2010TIP3   OH227444   0.175   0.828  15.442  0.4738 -0.2179 -0.2680
 2010TIP3    H127445   0.117   0.838  15.367  0.4205  1.7421 -0.0405
 2010TIP3    H227446   0.137   0.886  15.509 -0.0556 -2.6611  1.6760
 2011TIP3   OH227447   5.547   1.769  16.370 -0.3039 -0.6780 -0.7073
 2011TIP3    H127448   5.570   1.684  16.407 -0.3770 -0.9215 -1.2200
 2011TIP3    H227449   5.618   1.827  16.398  0.4794 -1.2219 -1.5290
 2012TIP3   OH227450   0.925   3.888   5.998 -0.1377  0.6747  0.2890
 2012TIP3    H127451   0.883   3.855   6.077  1.2315 -0.7111  0.4781
 2012TIP3    H227452   0.872   3.964   5.973 -2.8718 -1.0773  0.3706
 2013TIP3   OH227453   4.275   0.481  12.685 -0.3484  0.1371  0.3450
 2013TIP3    H127454   4.251   0.446  12.600 -2.4171  0.3128  0.7954
 2013TIP3    H227455   4.264   0.407  12.745  0.7549  0.1053  0.5155
 2014TIP3   OH227456   1.263   2.548   4.522 -0.0180  0.3716 -0.1106
 2014TIP3    H127457   1.331   2.495   4.562  0.5522  0.2331 -1.2044
 2014TIP3    H227458   1.186   2.533   4.576 -0.7561 -3.9643 -1.8761
 2015TIP3   OH227459   2.099   6.286   5.034 -0.4518  0.3162 -0.1125
 2015TIP3    H127460   2.143   6.225   5.092  1.0138  1.2213 -0.2384
 2015TIP3    H227461   2.016   6.242   5.012  0.1360 -1.1846  0.5433
 2016TIP3   OH227462   5.212   2.848   5.033 -0.0284  0.6347 -0.4225
 2016TIP3    H127463   5.176   2.800   4.959 -0.9026  2.1191 -1.0189
 2016TIP3    H227464   5.302   2.869   5.007  0.2314 -0.3100 -0.3152
 2017TIP3   OH227465   3.960   5.065  13.028  0.3241 -0.4838 -0.1922
 2017TIP3    H127466   3.974   4.971  13.017 -0.1998 -0.3646 -2.2025
 2017TIP3    H227467   4.006   5.105  12.954 -1.5894  0.6371 -0.8315
 2018TIP3   OH227468   3.974   1.734  12.856 -0.3223  0.4028  0.1323
 2018TIP3    H127469   4.007   1.663  12.800 -0.4168  0.9979 -0.7019
 2018TIP3    H227470   3.951   1.691  12.938 -1.0594 -0.6604 -0.5982
 2019TIP3   OH227471   6.639   4.523   5.025  0.1461 -0.0332 -0.1694
 2019TIP3    H127472   6.690   4.446   5.050 -2.7725 -1.8346  0.7893
 2019TIP3    H227473   6.573   4.488   4.965 -2.7093  1.1762  2.0672
 2020TIP3   OH227474   4.510   1.075  13.315 -0.4075 -0.1757  0.3560
 2020TIP3    H127475   4.596   1.106  13.287  0.3109 -1.4596  1.0527
 2020TIP3    H227476   4.491   1.126  13.394  0.5414 -1.1042  1.2129
 2021TIP3   OH227477   4.038   2.373  11.026 -0.7665  0.1322 -0.3358
 2021TIP3    H127478   4.009   2.385  10.936 -0.0962  0.4104 -0.5277
 2021TIP3    H227479   4.004   2.449  11.073 -0.8669  0.1409 -0.4242
 2022TIP3   OH227480   5.832   3.414  16.920  0.4053  1.1098  0.1112
 2022TIP3    H127481   5.914   3.372  16.895  0.5388  1.3188  0.2045
 2022TIP3    H227482   5.770   3.341  16.930 -0.1774  1.0902 -2.7241
 2023TIP3   OH227483   5.275   5.987   3.038 -0.5196  0.7760 -0.3782
 2023TIP3    H127484   5.181   5.970   3.047 -0.3490  0.5051  1.0691
 2023TIP3    H227485   5.317   5.906   3.065  0.1530  0.9847 -0.7668
 2024TIP3   OH227486   0.077   6.216  14.161 -0.4002  0.3267  0.2560
 2024TIP3    H127487   0.064   6.121  14.166 -1.2108  0.4657  1.0315
 2024TIP3    H227488   0.021   6.245  14.090  0.0568  0.1987 -0.1639
 2025TIP3   OH227489   0.638   1.815   0.024  0.5408  0.2597 -0.2703
 2025TIP3    H127490   0.574   1.886   0.021  1.1204  0.8706  0.9762
 2025TIP3    H227491   0.620   1.771   0.107  1.3587  0.0804 -0.1786
 2026TIP3   OH227492   5.850   1.816  16.332  0.3652  0.0111 -0.2937
 2026TIP3    H127493   5.858   1.726  16.364  0.4736  0.6783  1.7584
 2026TIP3    H227494   5.795   1.810  16.254 -3.9610 -1.3881  2.5061
 2027TIP3   OH227495   0.274   1.701  15.996 -0.5383 -0.3218 -0.2305
 2027TIP3    H127496   0.259   1.760  15.923  1.8629 -0.1463 -0.6712
 2027TIP3    H227497   0.243   1.616  15.965 -1.8504  0.2326 -0.4797
 2028TIP3   OH227498   0.244   4.337   3.741 -0.0313  0.0521 -0.3924
 2028TIP3    H127499   0.312   4.310   3.679  1.0940  0.0084  0.8252
 2028TIP3    H227500   0.288   4.342   3.825 -1.0654  1.9738  0.1121
 2029TIP3   OH227501   2.200   2.277  13.381  0.4204 -0.4103  0.3403
 2029TIP3    H127502   2.213   2.198  13.433 -2.1419 -1.0858  0.1100
 2029TIP3    H227503   2.117   2.313  13.412  0.9637  1.5833 -0.3530
 2030TIP3   OH227504   5.130   2.210   3.686 -0.2204  0.4144 -0.5937
 2030TIP3    H127505   5.198   2.209   3.754 -1.5755  1.5045  0.8577
 2030TIP3    H227506   5.048   2.199   3.734 -1.2513  1.5238 -2.0184
 2031TIP3   OH227507   4.093   2.259  11.466  0.1948 -0.3822 -0.1012
 2031TIP3    H127508   4.027   2.284  11.401  0.1788 -1.1625 -0.3964
 2031TIP3    H227509   4.139   2.340  11.486 -1.7173  0.4643  1.1019
 2032TIP3   OH227510   3.177   4.901   2.494  0.2767 -0.4342 -0.5156
 2032TIP3    H127511   3.086   4.886   2.471 -0.4503 -0.3523  1.9494
 2032TIP3    H227512   3.225   4.829   2.454 -1.3070 -2.1362  0.5071
 2033TIP3   OH227513   4.609   4.240   5.419  0.0115  0.8670 -0.0805
 2033TIP3    H127514   4.659   4.229   5.500 -1.0539  2.3798  0.8560
 2033TIP3    H227515   4.651   4.183   5.356  0.1048 -1.3889  1.8883
 2034TIP3   OH227516   1.147   4.220   2.991 -0.3619 -0.0203 -0.1343
 2034TIP3    H127517   1.182   4.148   3.045 -0.1989  1.2597  1.5670
 2034TIP3    H227518   1.145   4.295   3.051 -0.0704  1.5212 -1.9799
 2035TIP3   OH227519   5.924   3.782  16.722  0.3926  0.0135 -0.0007
 2035TIP3    H127520   5.910   3.867  16.763 -0.5460 -0.9040  1.7376
 2035TIP3    H227521   5.845   3.768  16.669 -0.8742 -0.9234  1.9845
 2036TIP3   OH227522   3.621   3.647  16.619  0.1619  0.5410 -0.0365
 2036TIP3    H127523   3.611   3.732  16.576  0.3013 -0.3955 -2.0576
 2036TIP3    H227524   3.532   3.610  16.620  0.1509  0.5695  0.5600
 2037TIP3   OH227525   5.966   4.320  14.343 -0.1993 -0.4295  0.1554
 2037TIP3    H127526   6.021   4.360  14.410  0.7468  1.0092 -1.3891
 2037TIP3    H227527   6.028   4.280  14.281 -0.9488 -0.2694 -0.7235
 2038TIP3   OH227528   2.712   5.604  14.999  0.2565  0.6681 -0.0412
 2038TIP3    H127529   2.702   5.540  14.929 -0.7473  1.1959 -0.3976
 2038TIP3    H227530   2.722   5.552  15.079 -0.8142  0.0698 -0.2932
 2039TIP3   OH227531   4.506   2.635  12.502  0.0845 -0.0179 -0.4553
 2039TIP3    H127532   4.599   2.625  12.523  0.2747  0.5891 -0.9631
 2039TIP3    H227533   4.476   2.707  12.557 -0.3078 -0.7619  0.3337
 2040TIP3   OH227534   1.230   3.691   3.191  0.0018  0.1131  0.1863
 2040TIP3    H127535   1.153   3.662   3.240 -0.9247  1.1869 -0.5489
 2040TIP3    H227536   1.283   3.738   3.254 -0.4824  0.2676  0.4848
 2041TIP3   OH227537   0.350   2.971   3.401 -0.1843  0.2777  0.0630
 2041TIP3    H127538   0.302   3.049   3.371 -0.6402 -0.3238 -0.8316
 2041TIP3    H227539   0.442   2.995   3.393 -0.3192  0.6713 -0.3721
 2042TIP3   OH227540   6.575   2.603   5.515 -0.0832  0.0399  0.0183
 2042TIP3    H127541   6.634   2.676   5.496  0.4840 -0.5321 -0.4576
 2042TIP3    H227542   6.491   2.631   5.479  0.2541  0.2504 -0.6206
 2043TIP3   OH227543   2.860   4.420  14.114  0.3423  0.0402  0.3872
 2043TIP3    H127544   2.928   4.356  14.094 -0.3835 -0.1450 -1.7904
 2043TIP3    H227545   2.812   4.431  14.032 -1.4707  1.1093  1.5022
 2044TIP3   OH227546   0.981   5.649  16.681  0.0648 -0.0509  0.1936
 2044TIP3    H127547   0.950   5.720  16.738  1.3258  0.9828 -0.3748
 2044TIP3    H227548   0.974   5.570  16.736 -3.4733  0.0515  0.1293
 2045TIP3   OH227549   4.460   2.283   0.007 -0.1181  0.1210 -0.0922
 2045TIP3    H127550   4.368   2.277  -0.018 -0.0341 -1.2149 -0.1465
 2045TIP3    H227551   4.475   2.377   0.020 -1.2864  0.4290 -0.7954
 2046TIP3   OH227552   4.670   0.553   6.510  0.0040  0.2165  0.0422
 2046TIP3    H127553   4.575   0.557   6.521 -0.1753 -1.1367 -0.8455
 2046TIP3    H227554   4.705   0.587   6.593 -1.2631 -1.1415  1.1834
 2047TIP3   OH227555   1.461   5.315   3.584 -0.0888 -0.5078  0.0868
 2047TIP3    H127556   1.499   5.245   3.637 -2.4300 -0.6979  1.6773
 2047TIP3    H227557   1.454   5.278   3.496 -0.9741 -2.1858  0.8223
 2048TIP3   OH227558   6.179   4.270  12.480  0.2258 -0.3861  0.1936
 2048TIP3    H127559   6.230   4.286  12.400  2.0982 -0.4155  1.3183
 2048TIP3    H227560   6.201   4.343  12.537  1.8821 -2.2022  2.0534
 2049TIP3   OH227561   3.752   4.081  12.700 -0.5601  0.2642 -0.1829
 2049TIP3    H127562   3.824   4.094  12.762 -0.4656 -1.1680  0.0510
 2049TIP3    H227563   3.742   3.986  12.695 -1.0768  0.3762 -1.7935
 2050TIP3   OH227564   5.320   0.801  12.701 -0.0141  0.4266 -0.2272
 2050TIP3    H127565   5.394   0.756  12.742  2.1289  2.3777 -1.6626
 2050TIP3    H227566   5.293   0.744  12.630 -0.6063 -0.7711  0.9238
 2051TIP3   OH227567   4.031   0.268  11.126  0.1062 -0.0165 -0.3367
 2051TIP3    H127568   3.966   0.263  11.055  0.5187 -1.1139 -0.6567
 2051TIP3    H227569   4.018   0.187  11.176  1.0299 -0.1141 -0.2390
 2052TIP3   OH227570   1.973   6.801  16.702 -0.3598 -0.1029 -0.6806
 2052TIP3    H127571   2.049   6.858  16.713  1.4069 -1.9057 -2.5129
 2052TIP3    H227572   1.930   6.832  16.623  0.0480 -0.7075 -1.1457
 2053TIP3   OH227573   6.357   1.936   3.902 -0.0462  0.1039  0.5735
 2053TIP3    H127574   6.263   1.950   3.909 -0.3035 -1.6463  1.0653
 2053TIP3    H227575   6.368   1.876   3.829  0.5031 -1.0349  1.5452
 2054TIP3   OH227576   2.329   3.979   5.458  0.4426 -0.3497  0.5097
 2054TIP3    H127577   2.369   3.938   5.534 -1.9593  0.2569  2.2232
 2054TIP3    H227578   2.242   3.940   5.452 -0.2308  1.1887 -0.6000
 2055TIP3   OH227579   5.960   6.033  14.251  0.9458 -0.2395 -0.0927
 2055TIP3    H127580   6.029   6.098  14.236  1.0789 -0.1386  0.8791
 2055TIP3    H227581   5.938   6.042  14.343 -2.0305  1.3582 -0.8271
 2056TIP3   OH227582   2.894   3.638   5.069  0.0915 -0.1958 -0.1319
 2056TIP3    H127583   2.802   3.639   5.095  0.0751 -0.6227 -0.1548
 2056TIP3    H227584   2.905   3.554   5.023  0.4977 -0.1694 -0.0908
 2057TIP3   OH227585   2.163   1.810  14.230  0.5784 -0.1091 -0.0930
 2057TIP3    H127586   2.224   1.861  14.284  1.0082 -0.7896  0.0776
 2057TIP3    H227587   2.124   1.747  14.291 -1.3283  1.1832  0.1059
 2058TIP3   OH227588   0.344   2.419  14.258  0.1207 -0.7262 -0.3964
 2058TIP3    H127589   0.283   2.422  14.184  1.4616  0.5508 -1.5230
 2058TIP3    H227590   0.427   2.391  14.219  0.8344 -0.1151  0.6237
 2059TIP3   OH227591   3.384   5.086   4.151 -0.1626 -0.4386  0.0491
 2059TIP3    H127592   3.414   5.014   4.207  0.6386 -1.8902 -2.1032
 2059TIP3    H227593   3.294   5.062   4.128  0.1552 -0.8940 -0.7907
 2060TIP3   OH227594   2.836   6.474   3.892  0.6025  0.0216 -0.3168
 2060TIP3    H127595   2.799   6.389   3.871  0.1767  0.6207 -2.1918
 2060TIP3    H227596   2.916   6.454   3.941 -0.2523 -1.3901  0.5436
 2061TIP3   OH227597   4.767   4.964   5.055 -0.0231 -0.3270 -0.0234
 2061TIP3    H127598   4.794   5.028   5.121  1.2295 -1.6080  0.7744
 2061TIP3    H227599   4.839   4.963   4.992  0.2283 -1.2957  0.2575
 2062TIP3   OH227600   1.023   4.586   3.426 -0.4180 -0.0177  0.0926
 2062TIP3    H127601   0.936   4.571   3.463 -0.6444 -0.4496 -0.5965
 2062TIP3    H227602   1.007   4.614   3.337  0.1600 -1.0680 -0.3651
 2063TIP3   OH227603   2.791   5.124  11.557 -0.2003  0.1218 -0.2908
 2063TIP3    H127604   2.734   5.048  11.565 -0.6408  0.2115 -2.0732
 2063TIP3    H227605   2.796   5.160  11.646 -1.6961 -0.7639  0.1979
 2064TIP3   OH227606   1.520   4.525  12.040  0.0940 -0.2042  0.1091
 2064TIP3    H127607   1.460   4.456  12.070 -0.9377  0.7576  0.3327
 2064TIP3    H227608   1.584   4.479  11.986  0.4555 -1.6001  1.6352
 2065TIP3   OH227609   0.005   6.036   0.811  0.0928  0.1233  0.6193
 2065TIP3    H127610  -0.038   5.955   0.839  0.3251  0.2270  1.2921
 2065TIP3    H227611   0.016   6.026   0.716 -2.0489  0.3973  0.2833
 2066TIP3   OH227612   6.216   6.024   4.337  0.1232 -0.0470 -0.0398
 2066TIP3    H127613   6.126   5.996   4.320 -0.3702  1.1200  0.5421
 2066TIP3    H227614   6.260   5.945   4.368 -0.5959 -0.7153 -0.6736
 2067TIP3   OH227615   5.704   4.732  14.323 -0.4206  1.0258  0.6568
 2067TIP3    H127616   5.652   4.666  14.367  2.0717 -1.2518  0.4425
 2067TIP3    H227617   5.781   4.743  14.378  1.2975  0.4044 -1.4831
 2068TIP3   OH227618   2.839   3.874  13.388  0.0011 -0.0537 -0.2105
 2068TIP3    H127619   2.898   3.801  13.403  0.1744 -0.0494 -0.8546
 2068TIP3    H227620   2.756   3.833  13.362  0.0288 -0.0237 -0.3433
 2069TIP3   OH227621   1.975   3.946   4.853  0.3663  0.9124 -0.8234
 2069TIP3    H127622   2.022   3.972   4.774  3.0473  1.5036  0.8147
 2069TIP3    H227623   2.023   3.989   4.924 -1.8687  0.3486  1.1542
 2070TIP3   OH227624   6.335   5.036   4.940  0.2135  0.3087  0.5233
 2070TIP3    H127625   6.371   4.954   4.905 -0.5755 -1.0646  2.7248
 2070TIP3    H227626   6.388   5.054   5.018 -0.1851  1.4497  0.5468
 2071TIP3   OH227627   6.119   6.594  13.173  0.0130  0.1167  0.0172
 2071TIP3    H127628   6.132   6.509  13.130  1.5598  1.7856 -3.1457
 2071TIP3    H227629   6.165   6.586  13.256 -0.3354 -2.2704  0.0618
 2072TIP3   OH227630   2.457   4.594  15.343 -0.0656 -0.2497 -0.6562
 2072TIP3    H127631   2.391   4.548  15.395 -0.9044 -0.2422 -1.6763
 2072TIP3    H227632   2.485   4.667  15.398 -0.3417 -0.7084  0.1029
 2073TIP3   OH227633   4.661   4.755   3.088  0.9517 -0.6834 -0.0025
 2073TIP3    H127634   4.583   4.703   3.068  1.6805 -1.8995  0.2048
 2073TIP3    H227635   4.627   4.838   3.120 -0.2555 -1.1388 -0.0465
 2074TIP3   OH227636   2.459   2.882  13.911 -0.0274 -0.5495  0.3162
 2074TIP3    H127637   2.384   2.922  13.956  0.3395  0.2092  0.2675
 2074TIP3    H227638   2.446   2.788  13.923 -1.3838 -0.4727 -0.3099
 2075TIP3   OH227639   0.356   0.996  13.793 -0.1752  0.3353 -0.0455
 2075TIP3    H127640   0.400   1.043  13.864  0.2699  1.4676 -1.0449
 2075TIP3    H227641   0.306   0.927  13.838 -2.8247  3.1677  1.7901
 2076TIP3   OH227642   1.596   2.688  14.397 -0.2084 -0.0189 -0.0174
 2076TIP3    H127643   1.625   2.608  14.440  0.0614  0.2060  0.2255
 2076TIP3    H227644   1.654   2.698  14.322  0.2813  0.3636  0.3977
 2077TIP3   OH227645   6.124   1.550  15.908  0.4452 -0.1775 -0.5205
 2077TIP3    H127646   6.101   1.641  15.890  0.2791 -0.4388 -1.7345
 2077TIP3    H227647   6.206   1.536  15.860  0.6249 -0.5928 -0.1090
 2078TIP3   OH227648   4.212   0.914   3.398  0.1248 -0.2346  0.4371
 2078TIP3    H127649   4.126   0.948   3.372  0.2105 -0.2502  0.1266
 2078TIP3    H227650   4.233   0.847   3.333 -0.0834 -0.9629  1.1056
 2079TIP3   OH227651   4.485   6.010  13.473  0.1216 -0.1639  0.3237
 2079TIP3    H127652   4.567   6.029  13.428 -0.3359 -0.1647 -0.5184
 2079TIP3    H227653   4.512   5.970  13.556  0.9400 -2.2621 -0.8915
 2080TIP3   OH227654   5.215   4.082   1.069 -0.3740  0.4710 -0.8646
 2080TIP3    H127655   5.128   4.074   1.107  0.2840 -3.0205  0.3250
 2080TIP3    H227656   5.199   4.109   0.978 -3.1987 -3.8311 -1.9690
 2081TIP3   OH227657   2.414   3.702   4.866 -0.3087 -0.0606  0.5588
 2081TIP3    H127658   2.496   3.751   4.862 -1.1952  1.4802 -3.9040
 2081TIP3    H227659   2.436   3.615   4.833 -0.3244  0.2031 -0.1700
 2082TIP3   OH227660   2.658   3.046  16.675  0.0349  0.0554 -0.0479
 2082TIP3    H127661   2.702   2.965  16.701 -2.4016 -1.8513 -1.3732
 2082TIP3    H227662   2.697   3.067  16.590 -1.2073 -1.4361 -1.0609
 2083TIP3   OH227663   4.342   1.047  14.912 -0.0603 -0.1276  0.1002
 2083TIP3    H127664   4.361   1.086  14.827 -0.8009  2.6993  1.1263
 2083TIP3    H227665   4.427   1.046  14.957  0.0294  0.0025 -0.0627
 2084TIP3   OH227666   5.509   0.109  16.237  0.3555  0.1093 -0.0284
 2084TIP3    H127667   5.543   0.158  16.311  1.2040  0.5363 -0.6935
 2084TIP3    H227668   5.574   0.041  16.221  0.9120  0.9064 -1.2789
 2085TIP3   OH227669   6.368   4.708   0.076 -0.2158 -0.3355 -0.3294
 2085TIP3    H127670   6.300   4.764   0.115  0.1892 -1.2669  1.8832
 2085TIP3    H227671   6.443   4.765   0.065  0.4715 -0.5063  2.7031
 2086TIP3   OH227672   1.177   3.469  13.210 -0.9261 -0.2354 -0.3830
 2086TIP3    H127673   1.195   3.391  13.159  0.9380  0.4550 -0.8815
 2086TIP3    H227674   1.087   3.492  13.189 -1.0693 -1.4998 -1.2328
 2087TIP3   OH227675   6.702   4.183  13.792  0.3318 -0.0856  0.1873
 2087TIP3    H127676   6.706   4.092  13.822  2.3921  0.4317  1.8008
 2087TIP3    H227677   6.612   4.196  13.765 -0.2963 -2.2931  0.9915
 2088TIP3   OH227678   0.098   5.582   3.517 -0.2363  0.1690  0.0035
 2088TIP3    H127679   0.178   5.563   3.566  0.0447  0.0333 -0.4965
 2088TIP3    H227680   0.055   5.652   3.566  0.7966  1.0931 -0.3790
 2089TIP3   OH227681   1.212   1.132   3.398  0.2389  0.3013 -0.1111
 2089TIP3    H127682   1.207   1.219   3.358  1.5617  0.3752 -0.1459
 2089TIP3    H227683   1.276   1.142   3.469  0.3157 -0.6173 -0.0436
 2090TIP3   OH227684   4.221   5.166  12.829 -0.3006 -0.2938 -0.2663
 2090TIP3    H127685   4.256   5.246  12.869 -0.3360 -0.3668 -0.0881
 2090TIP3    H227686   4.150   5.197  12.773  0.2312 -0.1199 -0.8500
 2091TIP3   OH227687   3.952   1.992   0.391  0.3894 -0.4424  0.0300
 2091TIP3    H127688   3.908   1.907   0.392 -0.5937 -0.0363  3.7658
 2091TIP3    H227689   4.045   1.970   0.389  0.1422 -1.5113 -0.6676
 2092TIP3   OH227690   4.377   2.598   5.128 -0.2576 -0.0556  0.3616
 2092TIP3    H127691   4.393   2.504   5.136 -2.4562 -0.5809 -0.7746
 2092TIP3    H227692   4.422   2.636   5.204 -0.7424 -2.1913  1.8029
 2093TIP3   OH227693   0.365   2.960  12.137  0.0502 -0.0319 -0.9107
 2093TIP3    H127694   0.388   2.887  12.195 -0.8993 -0.9231 -1.6204
 2093TIP3    H227695   0.296   3.007  12.184  1.1055  0.8186 -0.1641
 2094TIP3   OH227696   1.071   3.968  13.247 -0.1574  0.2100  0.1406
 2094TIP3    H127697   1.111   3.992  13.163  0.2258 -0.6348  0.0728
 2094TIP3    H227698   1.124   4.015  13.312  0.4593 -0.2782 -0.0004
 2095TIP3   OH227699   2.648   3.408   1.441 -0.1746  0.5813 -0.0097
 2095TIP3    H127700   2.630   3.488   1.391  1.2650  0.8126 -0.2248
 2095TIP3    H227701   2.668   3.439   1.530 -1.3330  0.2918  0.3683
 2096TIP3   OH227702   3.148   1.873   4.881 -0.7010  0.1481  0.5120
 2096TIP3    H127703   3.076   1.878   4.943 -0.4348  0.9158  0.7703
 2096TIP3    H227704   3.109   1.839   4.801 -1.4415  0.9588  0.5144
 2097TIP3   OH227705   6.677   2.699  13.026 -0.0195  0.1007  0.3223
 2097TIP3    H127706   6.606   2.755  12.994  1.0858  0.3487 -1.8796
 2097TIP3    H227707   6.633   2.619  13.055 -1.1843 -0.3504 -2.3225
 2098TIP3   OH227708   4.916   0.212  14.205 -0.0790 -0.1897 -0.6745
 2098TIP3    H127709   4.870   0.295  14.192  0.9716  0.6581  0.7543
 2098TIP3    H227710   4.848   0.146  14.193 -1.6568  1.0019  1.0251
 2099TIP3   OH227711   4.959   3.231   1.453 -0.3347  0.1072 -0.0557
 2099TIP3    H127712   4.888   3.253   1.392  1.2519  1.6085 -1.4494
 2099TIP3    H227713   5.024   3.300   1.440  0.4536  0.0061  2.7681
 2100TIP3   OH227714   5.765   4.174   5.351 -0.2631  0.6076 -0.3062
 2100TIP3    H127715   5.724   4.125   5.281 -0.7496  0.6400 -0.0505
 2100TIP3    H227716   5.724   4.261   5.348 -1.4960  0.1109  1.0434
 2101TIP3   OH227717   0.246   4.834   3.017 -0.0547 -0.5134  0.3208
 2101TIP3    H127718   0.174   4.825   2.955  0.6896  0.7328 -0.7702
 2101TIP3    H227719   0.202   4.850   3.101 -1.0775  0.9512 -0.4399
 2102TIP3   OH227720   3.717   4.988   3.592 -0.1755 -0.4810  0.0767
 2102TIP3    H127721   3.707   4.945   3.677  0.1151 -0.7048 -0.0026
 2102TIP3    H227722   3.793   5.046   3.604 -1.7612  1.5935  0.8369
 2103TIP3   OH227723   1.346   2.188   0.481 -0.4786 -0.4716  0.0446
 2103TIP3    H127724   1.296   2.189   0.563 -2.5089  2.8596 -1.0598
 2103TIP3    H227725   1.289   2.144   0.419 -1.3994  1.7946 -0.7999
 2104TIP3   OH227726   4.840   5.500  15.366  0.4138 -0.8603 -0.9679
 2104TIP3    H127727   4.766   5.445  15.394  1.7710 -2.5453 -0.5171
 2104TIP3    H227728   4.825   5.583  15.411 -1.2537 -1.1157 -0.9709
 2105TIP3   OH227729   4.515   1.581   3.509 -0.7505  0.7942  0.1391
 2105TIP3    H127730   4.593   1.525   3.503 -0.0225  1.4696  2.1501
 2105TIP3    H227731   4.447   1.524   3.546 -0.3668  0.8816  1.0175
 2106TIP3   OH227732   5.201   4.537  11.057  0.1915  0.8157 -0.2867
 2106TIP3    H127733   5.209   4.442  11.048  0.4877  0.8998 -0.9993
 2106TIP3    H227734   5.136   4.549  11.126 -0.4039  0.0940 -0.7028
 2107TIP3   OH227735   2.521   1.228  14.814 -0.1937  0.1448  0.6093
 2107TIP3    H127736   2.440   1.277  14.797  0.1582  0.9212  1.1048
 2107TIP3    H227737   2.501   1.175  14.892 -0.2649  0.2577  0.6689
 2108TIP3   OH227738   6.077   2.001   4.175 -0.0825 -0.1870  0.1331
 2108TIP3    H127739   5.992   2.041   4.192  0.1844 -0.3654  2.1553
 2108TIP3    H227740   6.081   1.990   4.080 -1.8851  0.7421 -0.0743
 2109TIP3   OH227741   3.137   1.532   6.204  0.3230 -0.3608  0.3129
 2109TIP3    H127742   3.148   1.513   6.297 -0.9738  1.9374  1.0027
 2109TIP3    H227743   3.043   1.524   6.189  0.4647 -0.2053 -0.6973
 2110TIP3   OH227744   5.264   1.242   2.920 -0.0597 -0.5308 -0.1329
 2110TIP3    H127745   5.207   1.166   2.931 -0.4390 -0.3871 -0.9859
 2110TIP3    H227746   5.325   1.238   2.994 -0.0906 -1.6498 -0.1576
 2111TIP3   OH227747   5.977   5.880   5.364 -0.4162  0.0685  0.4714
 2111TIP3    H127748   5.999   5.873   5.456 -0.1309 -0.3827  0.3759
 2111TIP3    H227749   6.000   5.969   5.340  0.3486 -0.0824  0.6253
 2112TIP3   OH227750   6.469   4.454   4.813  0.0000 -0.2980  0.0894
 2112TIP3    H127751   6.518   4.500   4.744 -2.1271  1.4016 -0.4075
 2112TIP3    H227752   6.396   4.412   4.767  0.0589 -1.4506  0.9954
 2113TIP3   OH227753   1.269   3.791   0.168  0.6078  0.2601  0.0687
 2113TIP3    H127754   1.283   3.877   0.128  3.0665 -0.3734 -0.5726
 2113TIP3    H227755   1.200   3.751   0.115  0.4924  1.2489 -0.5556
 2114TIP3   OH227756   2.283   0.844   5.741  0.6996  0.0427 -0.4062
 2114TIP3    H127757   2.290   0.927   5.693 -0.1226  0.2875 -0.1321
 2114TIP3    H227758   2.224   0.864   5.814  1.1832 -0.5658  0.1604
 2115TIP3   OH227759   2.665   6.093  10.430  0.2505  0.0108 -0.0484
 2115TIP3    H127760   2.685   6.005  10.462 -1.6368 -0.1246  0.8952
 2115TIP3    H227761   2.619   6.078  10.347 -0.2802  0.0872  0.2289
 2116TIP3   OH227762   3.736   1.368   3.232 -0.5813  0.3096 -0.3303
 2116TIP3    H127763   3.725   1.372   3.327 -1.0941 -0.5857 -0.3435
 2116TIP3    H227764   3.663   1.417   3.196 -0.3198  0.7501 -0.2608
 2117TIP3   OH227765   6.538   6.737  15.909 -0.7880 -0.1376  0.2233
 2117TIP3    H127766   6.508   6.791  15.982 -0.6593  0.5175 -0.1956
 2117TIP3    H227767   6.605   6.680  15.947 -0.3407  0.5661  0.5021
 2118TIP3   OH227768   3.323   0.751   3.253  0.0769 -0.2233  0.2134
 2118TIP3    H127769   3.382   0.813   3.296 -1.7865  0.2547  2.2429
 2118TIP3    H227770   3.380   0.679   3.225  1.5283 -0.1866  2.8111
 2119TIP3   OH227771   2.884   3.431  15.981 -0.2140  0.0902  0.0809
 2119TIP3    H127772   2.946   3.364  15.951  0.4601  0.7280  0.0303
 2119TIP3    H227773   2.938   3.495  16.027 -0.6852  1.2111 -0.8853
 2120TIP3   OH227774   4.690   4.596   4.443 -0.1525 -0.7353 -0.0355
 2120TIP3    H127775   4.711   4.668   4.383 -0.9663  0.1648  0.7195
 2120TIP3    H227776   4.594   4.594   4.445 -0.1539 -2.4184 -0.6924
 2121TIP3   OH227777   6.374   3.492  16.876 -0.6896  0.4809  0.1835
 2121TIP3    H127778   6.338   3.468  16.790 -1.2777 -1.7523  0.9887
 2121TIP3    H227779   6.365   3.587  16.880 -0.2183  0.7065 -2.4025
 2122TIP3   OH227780   3.118   0.106  14.338 -0.2098  0.4090  0.4101
 2122TIP3    H127781   3.126   0.177  14.275 -1.0645  0.0448 -0.1257
 2122TIP3    H227782   3.165   0.137  14.415  1.5378  0.5291 -0.6620
 2123TIP3   OH227783   2.980   3.319   2.493 -0.1669 -0.2320 -0.7104
 2123TIP3    H127784   3.004   3.354   2.408 -1.4719  2.0412 -0.2267
 2123TIP3    H227785   2.948   3.394   2.542  0.5014 -1.4655  1.8084
 2124TIP3   OH227786   0.267   0.603  13.649 -0.3022  0.4802 -0.1488
 2124TIP3    H127787   0.329   0.531  13.640 -0.1729  0.3619  1.3566
 2124TIP3    H227788   0.272   0.628  13.742 -2.3075  0.6299 -0.0244
 2125TIP3   OH227789   2.739   6.452  11.396 -0.1491 -0.3726 -0.6577
 2125TIP3    H127790   2.811   6.414  11.346 -0.5543 -0.6416 -1.0495
 2125TIP3    H227791   2.690   6.376  11.430  1.5917 -0.2981  2.4209
 2126TIP3   OH227792   3.255   6.693   2.309 -0.1697  0.2920  0.2628
 2126TIP3    H127793   3.341   6.734   2.306 -0.2665  0.4179 -1.2378
 2126TIP3    H227794   3.195   6.763   2.335  0.0111  0.4817  0.1646
 2127TIP3   OH227795   5.178   4.062   1.406  0.1719  0.1851 -0.2563
 2127TIP3    H127796   5.258   4.027   1.445  0.7745 -0.7083 -2.1539
 2127TIP3    H227797   5.126   3.985   1.384 -0.4509  0.6817 -0.5685
 2128TIP3   OH227798   3.189   1.335   6.017  0.2349  0.2284 -0.3327
 2128TIP3    H127799   3.256   1.272   6.040  0.3449  0.7133  0.7786
 2128TIP3    H227800   3.195   1.402   6.086 -0.4793  0.9682 -0.9686
 2129TIP3   OH227801   4.953   3.302  14.156 -0.0274  0.2221  0.5429
 2129TIP3    H127802   5.042   3.336  14.163  0.5178 -1.2111  0.7219
 2129TIP3    H227803   4.898   3.381  14.160  1.2848  1.4131 -1.9906
 2130TIP3   OH227804   3.881   0.169   5.776 -0.0313 -0.0368  0.6626
 2130TIP3    H127805   3.891   0.101   5.842 -3.2358  0.5132  1.9265
 2130TIP3    H227806   3.875   0.250   5.826  1.8171  1.0082 -0.6831
 2131TIP3   OH227807   4.069   4.073   2.177  0.1744 -0.2626 -0.3462
 2131TIP3    H127808   4.153   4.113   2.155 -0.6155  1.8688  0.2697
 2131TIP3    H227809   4.028   4.135   2.238 -1.4519 -1.6911  0.0887
 2132TIP3   OH227810   3.980   2.252   3.639  0.0676  0.8220  0.0781
 2132TIP3    H127811   3.970   2.159   3.663  1.1112  0.7599  0.3058
 2132TIP3    H227812   3.962   2.254   3.545 -0.5504  0.4916  0.1809
 2133TIP3   OH227813   4.307   1.581   2.689  0.3930  0.2877  0.3812
 2133TIP3    H127814   4.262   1.617   2.612 -0.8917  1.5169  1.6477
 2133TIP3    H227815   4.390   1.628   2.692  0.1821  0.6863  0.0909
 2134TIP3   OH227816   4.577   5.439  16.093  0.4818  0.4868 -0.1332
 2134TIP3    H127817   4.555   5.444  16.186  0.5537  0.1101 -0.0958
 2134TIP3    H227818   4.670   5.417  16.091 -0.2090 -2.9511 -0.2583
 2135TIP3   OH227819   3.510   5.013  12.809  0.6779  0.4416 -0.3850
 2135TIP3    H127820   3.552   5.094  12.840  0.0451  0.0126  1.7752
 2135TIP3    H227821   3.459   4.983  12.884 -1.4499 -0.4369 -2.0838
 2136TIP3   OH227822   0.131   1.145  12.857 -0.1865 -0.1594 -0.1607
 2136TIP3    H127823   0.178   1.190  12.927 -1.1536 -0.5551  0.7703
 2136TIP3    H227824   0.044   1.129  12.893 -0.9890  0.3595 -1.7454
 2137TIP3   OH227825   2.273   4.722   1.976 -0.0571  0.2552  0.3253
 2137TIP3    H127826   2.307   4.800   1.932 -1.0174 -0.3765 -1.6583
 2137TIP3    H227827   2.341   4.656   1.965 -0.6157 -0.1349 -1.0021
 2138TIP3   OH227828   1.094   0.680  14.923 -0.1805 -0.3194 -0.7427
 2138TIP3    H127829   1.038   0.649  14.851 -1.4085  1.1521 -0.4700
 2138TIP3    H227830   1.033   0.717  14.986  0.9029 -1.3900  0.9974
 2139TIP3   OH227831   5.835   2.647  12.442  0.3284 -0.2956 -0.8948
 2139TIP3    H127832   5.922   2.648  12.401 -0.1166  0.0303 -1.8685
 2139TIP3    H227833   5.774   2.649  12.368 -0.5427 -2.2107 -0.3126
 2140TIP3   OH227834   4.392   0.969  12.988 -0.1782  0.0073  0.0193
 2140TIP3    H127835   4.313   1.001  12.943 -1.6174 -2.2272  0.7868
 2140TIP3    H227836   4.364   0.889  13.032  2.4253 -0.5892  0.7773
 2141TIP3   OH227837   5.133   1.522   5.026  0.0697 -0.0386 -0.4974
 2141TIP3    H127838   5.068   1.499   4.960 -0.0697  0.7672 -0.6393
 2141TIP3    H227839   5.086   1.513   5.109  0.8359 -3.2474 -0.2834
 2142TIP3   OH227840   0.243   4.206   0.252  0.3266  0.4650  0.0112
 2142TIP3    H127841   0.229   4.165   0.338 -0.4903  0.2042 -0.2342
 2142TIP3    H227842   0.253   4.299   0.271  0.3480  0.3839  0.4099
 2143TIP3   OH227843   3.064   6.762  13.655  0.3263 -1.0255  0.3495
 2143TIP3    H127844   3.016   6.690  13.613  0.4143 -1.7466  1.4523
 2143TIP3    H227845   3.121   6.719  13.719  0.5647  0.0120  0.8613
 2144TIP3   OH227846   5.136   1.046  13.337  0.1288  0.2537  0.3730
 2144TIP3    H127847   5.229   1.035  13.359  0.1810 -0.2365 -0.0683
 2144TIP3    H227848   5.137   1.092  13.253  0.0619 -2.2870 -1.1046
 2145TIP3   OH227849   1.056   6.039   2.840 -0.5124  0.4057 -0.7086
 2145TIP3    H127850   1.035   6.124   2.880  2.2318  0.4545  0.8532
 2145TIP3    H227851   1.020   6.045   2.752 -0.7509  3.0410 -0.5163
 2146TIP3   OH227852   6.157   4.496   5.987  0.0423 -0.3017 -0.3132
 2146TIP3    H127853   6.139   4.589   5.972 -0.3961 -0.3447 -0.0608
 2146TIP3    H227854   6.248   4.485   5.959  0.0875  0.1963 -0.3781
 2147TIP3   OH227855   3.189   1.754   2.401 -0.2368 -0.0616  0.5054
 2147TIP3    H127856   3.162   1.767   2.492  1.2908  0.4304  0.9228
 2147TIP3    H227857   3.246   1.829   2.382  1.4365 -1.3980 -0.0504
 2148TIP3   OH227858   2.095   1.681  12.983  0.3248  0.1056 -0.8068
 2148TIP3    H127859   2.095   1.760  12.928  1.9014 -0.7164 -2.0686
 2148TIP3    H227860   2.187   1.662  12.997 -0.0459 -0.6360  0.8405
 2149TIP3   OH227861   0.047   5.318   2.529 -0.1361 -1.0221 -0.5665
 2149TIP3    H127862   0.004   5.371   2.596  1.6001 -0.2353 -0.0305
 2149TIP3    H227863   0.107   5.261   2.577  0.3679 -1.1878 -1.3721
 2150TIP3   OH227864   0.691   1.412   2.950 -0.3951 -0.2264 -0.1066
 2150TIP3    H127865   0.773   1.363   2.941 -1.0060 -1.1650 -0.7656
 2150TIP3    H227866   0.716   1.503   2.934  0.6431 -0.3958  0.4371
 2151TIP3   OH227867   1.463   3.879  11.901  0.2042 -0.3390  0.3662
 2151TIP3    H127868   1.547   3.869  11.946  0.3871 -1.0290 -0.1069
 2151TIP3    H227869   1.429   3.790  11.895  1.2872 -0.6577 -2.9434
 2152TIP3   OH227870   0.416   1.541  15.266 -0.1477 -0.2017 -0.3540
 2152TIP3    H127871   0.498   1.499  15.294  0.5908  1.2094 -0.3504
 2152TIP3    H227872   0.363   1.545  15.346  0.6202  0.7641  0.1220
 2153TIP3   OH227873   5.361   3.322  16.637  0.4948  0.7447 -0.3020
 2153TIP3    H127874   5.278   3.368  16.651  0.1001 -0.3161  1.0605
 2153TIP3    H227875   5.361   3.253  16.703  1.4042 -0.7386 -1.7891
 2154TIP3   OH227876   0.371   2.490   4.342  0.6225 -0.3684  0.3161
 2154TIP3    H127877   0.319   2.505   4.421  1.0399 -0.2720  0.5725
 2154TIP3    H227878   0.428   2.417   4.365  1.0709 -0.0380  0.2617
 2155TIP3   OH227879   1.520   3.532  15.820 -0.1731 -0.3499 -0.6066
 2155TIP3    H127880   1.474   3.610  15.788 -2.3155 -1.8597 -1.3571
 2155TIP3    H227881   1.535   3.550  15.913  0.7311  1.5425 -1.0479
 2156TIP3   OH227882   4.513   5.236   3.451  0.4110  0.3062  0.0034
 2156TIP3    H127883   4.553   5.316   3.485  0.1455  0.1379  0.7356
 2156TIP3    H227884   4.531   5.170   3.518  1.2284 -0.4186 -0.9150
 2157TIP3   OH227885   6.537   5.377  15.347  0.0439 -0.4945  0.5328
 2157TIP3    H127886   6.445   5.404  15.341  0.3264  0.4815  0.4071
 2157TIP3    H227887   6.586   5.455  15.319  0.8776 -1.3381 -0.4338
 2158TIP3   OH227888   5.616   0.168   1.016 -0.4589  0.4488  0.2850
 2158TIP3    H127889   5.620   0.073   1.011  0.1522  0.5091 -0.6766
 2158TIP3    H227890   5.543   0.187   1.075 -1.5915 -0.5990 -0.7454
 2159TIP3   OH227891   1.888   4.939  12.639  0.1308  0.7768  0.0792
 2159TIP3    H127892   1.947   4.916  12.567 -1.6800  2.2036 -1.9902
 2159TIP3    H227893   1.810   4.886  12.624 -0.9341  2.3159 -0.0374
 2160TIP3   OH227894   5.529   3.480   2.672  0.5273 -0.1549 -0.0739
 2160TIP3    H127895   5.507   3.518   2.587  0.8278 -0.1680 -0.1599
 2160TIP3    H227896   5.622   3.498   2.683  0.4246  0.1285  0.3978
 2161TIP3   OH227897   1.511   3.339  16.521 -0.1702 -0.1496  0.3839
 2161TIP3    H127898   1.463   3.397  16.462  1.5659  1.6374  0.6103
 2161TIP3    H227899   1.562   3.282  16.463 -0.4468 -0.1847  0.1701
 2162TIP3   OH227900   4.389   2.271   5.098  0.1449  0.2661 -0.5507
 2162TIP3    H127901   4.438   2.243   5.175 -0.6961 -0.4490 -0.2523
 2162TIP3    H227902   4.451   2.265   5.026  1.0850  1.3973  0.1218
 2163TIP3   OH227903   5.642   1.999   3.055 -0.6924  0.0586 -0.3203
 2163TIP3    H127904   5.698   1.935   3.009 -0.7635 -1.3247  1.4177
 2163TIP3    H227905   5.617   1.955   3.136 -0.6325  2.3838  1.0326
 2164TIP3   OH227906   4.555   3.134  10.967 -0.0748  0.4763 -0.4358
 2164TIP3    H127907   4.619   3.068  10.941 -0.2977  0.8644 -2.1320
 2164TIP3    H227908   4.531   3.177  10.885 -1.5033  1.2451  0.3414
 2165TIP3   OH227909   4.649   0.837  11.166 -0.6855 -0.0090 -0.0094
 2165TIP3    H127910   4.687   0.785  11.095 -2.9423  0.2837 -1.5427
 2165TIP3    H227911   4.625   0.772  11.233  0.2114 -0.4459 -0.0955
 2166TIP3   OH227912   2.665   5.215  15.799  0.2008  0.4891 -0.0923
 2166TIP3    H127913   2.659   5.252  15.711 -0.3877 -0.4995 -0.4855
 2166TIP3    H227914   2.577   5.224  15.835 -0.0675 -0.8413 -0.3481
 2167TIP3   OH227915   1.732   1.731   1.448  0.0551  0.4447  0.2821
 2167TIP3    H127916   1.662   1.665   1.443  1.5092 -1.1537 -0.0053
 2167TIP3    H227917   1.813   1.680   1.445  1.2576  2.2754  0.0740
 2168TIP3   OH227918   1.373   2.542  15.945  0.3690 -0.3541 -0.2524
 2168TIP3    H127919   1.298   2.482  15.937 -0.5496  0.7606 -0.2494
 2168TIP3    H227920   1.362   2.581  16.032  1.0050 -0.2322 -0.2244
 2169TIP3   OH227921   6.363   5.280  15.943 -0.0638  0.6141 -0.0660
 2169TIP3    H127922   6.292   5.288  16.007 -1.5627 -0.9300 -1.4105
 2169TIP3    H227923   6.318   5.276  15.859  1.6280 -0.4374 -0.9686
 2170TIP3   OH227924   4.696   3.229   4.161  0.8232 -0.4187 -0.5555
 2170TIP3    H127925   4.750   3.173   4.215  0.8644  0.3447  0.2078
 2170TIP3    H227926   4.614   3.180   4.149  0.0771  0.1487  1.7581
 2171TIP3   OH227927   1.787   1.550   3.322 -0.1047  0.5236  0.5201
 2171TIP3    H127928   1.708   1.603   3.314  0.2164  0.7754 -1.6674
 2171TIP3    H227929   1.755   1.465   3.354 -0.9297  1.2747  1.7773
 2172TIP3   OH227930   4.965   1.958  15.528 -0.3216  1.0906  0.6877
 2172TIP3    H127931   4.946   2.027  15.464 -0.0355 -1.6842 -2.6236
 2172TIP3    H227932   4.889   1.900  15.523  0.7098 -0.3349  1.2673
 2173TIP3   OH227933   3.961   3.626  12.223  0.0283  0.0001 -0.2221
 2173TIP3    H127934   3.933   3.595  12.309 -0.8519  0.6775 -0.2511
 2173TIP3    H227935   3.897   3.694  12.200 -0.1513 -0.6550 -1.7201
 2174TIP3   OH227936   0.463   4.688  12.561  0.3977 -0.0826  0.1719
 2174TIP3    H127937   0.509   4.739  12.629 -0.4333 -0.8851  1.3645
 2174TIP3    H227938   0.377   4.670  12.598 -0.1454 -0.3979 -1.1835
 2175TIP3   OH227939   4.656   2.014  15.879  0.0059  0.0885 -0.7145
 2175TIP3    H127940   4.642   1.934  15.931 -0.7818 -1.7568 -3.5676
 2175TIP3    H227941   4.596   2.078  15.919 -0.2799 -1.0863  0.8740
 2176TIP3   OH227942   2.687   4.702   0.476 -0.3046  0.5950  0.0330
 2176TIP3    H127943   2.701   4.785   0.430  0.0053  0.1701 -0.6503
 2176TIP3    H227944   2.594   4.704   0.501 -0.8443  0.2561 -1.7976
 2177TIP3   OH227945   5.482   5.884  15.965  0.1347 -0.2827 -0.6131
 2177TIP3    H127946   5.477   5.792  15.989 -2.4398 -0.0094  0.2326
 2177TIP3    H227947   5.503   5.929  16.048  0.9930 -0.0518 -0.9425
 2178TIP3   OH227948   2.497   2.767  11.522 -0.0199  0.5321 -0.4785
 2178TIP3    H127949   2.470   2.759  11.430 -1.5640 -1.9554  0.0965
 2178TIP3    H227950   2.452   2.845  11.553  0.4221  1.3416 -1.7812
 2179TIP3   OH227951   4.010   5.193   4.974  0.0677 -0.3406  0.1609
 2179TIP3    H127952   4.016   5.272   5.028 -0.9291 -0.4350  0.4377
 2179TIP3    H227953   3.934   5.209   4.917 -0.0756 -1.0440  0.1471
 2180TIP3   OH227954   4.473   2.522  14.980  0.2321 -0.1338 -0.2307
 2180TIP3    H127955   4.468   2.568  14.896  2.9101 -3.3727 -2.4298
 2180TIP3    H227956   4.400   2.460  14.978 -0.2123  0.3611  0.2759
 2181TIP3   OH227957   4.270   0.318   0.099 -0.3646 -0.4067  0.2650
 2181TIP3    H127958   4.294   0.288   0.187 -2.8061  1.4669  1.6781
 2181TIP3    H227959   4.251   0.411   0.110 -1.9612 -0.4065 -1.9795
 2182TIP3   OH227960   0.412   5.739   1.289 -0.6857  0.6839 -0.0612
 2182TIP3    H127961   0.453   5.824   1.278  0.7705  0.2047  1.4033
 2182TIP3    H227962   0.324   5.759   1.321 -0.2928  1.6407  0.4678
 2183TIP3   OH227963   4.698   4.724   4.952 -0.4831 -0.6238  0.3666
 2183TIP3    H127964   4.787   4.688   4.949 -0.4936 -0.6182 -0.1655
 2183TIP3    H227965   4.703   4.794   5.017  0.1516  0.0228 -0.3520
 2184TIP3   OH227966   2.147   1.975  15.151  0.2198  0.1440  0.1835
 2184TIP3    H127967   2.119   1.943  15.065  2.5946  0.5712 -0.8326
 2184TIP3    H227968   2.147   1.896  15.206 -0.6094 -0.2812 -0.3970
 2185TIP3   OH227969   0.721   2.056  13.050  0.4477  0.1818  0.0188
 2185TIP3    H127970   0.788   2.123  13.064  0.0893  0.4621  0.4309
 2185TIP3    H227971   0.698   2.028  13.139 -1.3969  1.5034  0.0040
 2186TIP3   OH227972   2.636   1.192   4.293  0.1176  0.4151 -0.1595
 2186TIP3    H127973   2.626   1.178   4.198 -0.2311 -2.3356  0.1857
 2186TIP3    H227974   2.705   1.130   4.318 -1.1523 -0.3378  1.6424
 2187TIP3   OH227975   0.148   4.943   3.249 -0.7084 -0.3369 -0.3842
 2187TIP3    H127976   0.238   4.966   3.227 -0.6187 -0.7417 -0.4504
 2187TIP3    H227977   0.102   5.027   3.256  0.0809 -0.0047  1.4261
 2188TIP3   OH227978   3.402   4.924  14.244 -0.0868  0.2826  0.5208
 2188TIP3    H127979   3.340   4.947  14.175 -0.6837 -0.5083  0.7726
 2188TIP3    H227980   3.485   4.911  14.199  0.2167  2.5487  0.3220
 2189TIP3   OH227981   4.447   1.848   1.424 -0.2870 -0.0720 -0.2187
 2189TIP3    H127982   4.511   1.802   1.369  0.6749  1.6499 -0.6261
 2189TIP3    H227983   4.465   1.816   1.513  0.2515 -0.5716 -0.4945
 2190TIP3   OH227984   0.255   3.922   3.637  0.7550 -0.1022  0.2283
 2190TIP3    H127985   0.237   3.836   3.675 -0.3963  0.1623  0.3228
 2190TIP3    H227986   0.234   3.912   3.544  1.8549 -0.2550 -0.0240
 2191TIP3   OH227987   6.218   1.543   1.085  0.1961 -0.0637 -0.2442
 2191TIP3    H127988   6.193   1.477   1.020 -0.3560  0.3138 -0.4139
 2191TIP3    H227989   6.261   1.611   1.034 -0.9630  0.6201 -0.3390
 2192TIP3   OH227990   0.281   3.196   3.616  0.4293  0.4976  0.2154
 2192TIP3    H127991   0.373   3.176   3.598 -0.1955 -3.1761  0.4254
 2192TIP3    H227992   0.250   3.238   3.536  1.3310 -2.1130 -1.6467
 2193TIP3   OH227993   1.568   2.710  12.024 -0.0212 -0.3130 -0.6015
 2193TIP3    H127994   1.587   2.617  12.020  1.5308 -0.0080 -0.9649
 2193TIP3    H227995   1.596   2.736  12.112  0.6983  0.0185 -0.9152
 2194TIP3   OH227996   3.678   6.006  12.348 -0.1192  0.3508  0.3169
 2194TIP3    H127997   3.747   5.954  12.307  0.6242  2.1354 -0.7935
 2194TIP3    H227998   3.683   5.982  12.441  1.9862  0.3968  0.2728
 2195TIP3   OH227999   1.313   0.242  14.450 -0.0723 -0.5312  0.0978
 2195TIP3    H128000   1.335   0.334  14.461  0.2182 -0.6731  0.7274
 2195TIP3    H228001   1.238   0.242  14.390  1.0009  0.0145 -1.3094
 2196TIP3   OH228002   5.980   5.428  17.039  0.3945 -0.0149  0.4852
 2196TIP3    H128003   5.922   5.504  17.025  0.2448  0.0435  1.3369
 2196TIP3    H228004   6.057   5.446  16.986 -0.1728  0.1319 -0.3025
 2197TIP3   OH228005   3.624   3.942   0.556  0.5182  0.4743  0.5848
 2197TIP3    H128006   3.653   3.905   0.472  1.2318  1.2219  0.4862
 2197TIP3    H228007   3.690   3.913   0.619  0.4075  0.5535  0.7383
 2198TIP3   OH228008   3.620   3.289   5.070  0.7163  0.1239  0.7168
 2198TIP3    H128009   3.607   3.319   5.160  1.9313  1.1583  0.5836
 2198TIP3    H228010   3.690   3.224   5.076  1.6090  1.0318  0.4068
 2199TIP3   OH228011   0.095   4.636   0.607  0.1933  0.0582 -0.6238
 2199TIP3    H128012   0.055   4.636   0.520 -1.2746 -0.1908  0.0257
 2199TIP3    H228013   0.064   4.717   0.648 -1.0289 -0.9171  0.4788
 2200TIP3   OH228014   3.969   6.782   4.692  0.6360 -0.4300  0.2375
 2200TIP3    H128015   3.996   6.701   4.649 -3.3050 -1.0281 -1.5813
 2200TIP3    H228016   4.003   6.851   4.636 -0.2028 -1.0769 -1.1360
 2201TIP3   OH228017   6.454   1.862   2.659 -0.0520  0.0956 -0.7089
 2201TIP3    H128018   6.465   1.901   2.746  1.1141 -1.5540 -0.0636
 2201TIP3    H228019   6.525   1.898   2.608  0.1289 -0.0377 -0.5529
 2202TIP3   OH228020   6.209   5.754   6.333  0.8436 -0.0785 -0.1765
 2202TIP3    H128021   6.280   5.767   6.270  2.8764 -0.0262  2.0121
 2202TIP3    H228022   6.202   5.837   6.379 -0.4776 -0.1781 -0.1690
 2203TIP3   OH228023   1.177   2.359  16.793 -0.1932 -0.5348 -0.1094
 2203TIP3    H128024   1.263   2.393  16.815 -0.2320 -1.1766  1.1150
 2203TIP3    H228025   1.180   2.267  16.819 -1.3369 -0.4934  0.2373
 2204TIP3   OH228026   1.450   1.126  15.488  0.2133  0.1688  0.0321
 2204TIP3    H128027   1.502   1.182  15.431 -1.9428 -0.1120 -2.3492
 2204TIP3    H228028   1.373   1.179  15.510 -0.4284 -0.8135  0.1994
 2205TIP3   OH228029   1.156   1.556   3.790  0.6030 -0.3866 -0.6840
 2205TIP3    H128030   1.206   1.611   3.850  2.3861  0.4102 -2.8126
 2205TIP3    H228031   1.141   1.611   3.713 -0.5357 -1.7898 -1.5176
 2206TIP3   OH228032   3.734   4.624  16.063 -0.1917 -0.1174  0.3763
 2206TIP3    H128033   3.717   4.713  16.094  2.4003  1.3741 -2.0318
 2206TIP3    H228034   3.780   4.582  16.136 -0.0939  1.0317  1.0004
 2207TIP3   OH228035   5.957   6.473   5.845  0.0779  0.8238  0.8024
 2207TIP3    H128036   5.880   6.495   5.898 -0.4776  0.9711 -0.0451
 2207TIP3    H228037   5.944   6.382   5.821 -0.0950  0.9901  0.2413
 2208TIP3   OH228038   0.202   1.153  14.297 -0.8745 -0.8772  0.3951
 2208TIP3    H128039   0.236   1.180  14.382  1.8950 -1.5594 -0.3866
 2208TIP3    H228040   0.128   1.212  14.280  1.4964  2.5956  1.1400
 2209TIP3   OH228041   6.361   4.067  12.620  0.0798  0.1088  0.0754
 2209TIP3    H128042   6.286   4.117  12.587 -0.8616 -0.9637  0.5105
 2209TIP3    H228043   6.437   4.121  12.599 -0.9249  1.9770  1.0049
 2210TIP3   OH228044   6.298   6.454  16.665  0.0773  0.2247  0.6160
 2210TIP3    H128045   6.377   6.497  16.697  1.8184 -1.9815 -0.4740
 2210TIP3    H228046   6.282   6.382  16.727  0.3465 -0.7849 -0.4535
 2211TIP3   OH228047   4.812   1.535  16.398  0.3700 -0.1991  0.5397
 2211TIP3    H128048   4.848   1.592  16.331  1.3658 -1.8756 -0.4280
 2211TIP3    H228049   4.767   1.465  16.349  1.7423 -1.8579  1.5394
 2212TIP3   OH228050   3.252   4.417   2.335 -0.9074 -0.1479 -0.2815
 2212TIP3    H128051   3.193   4.346   2.358 -1.3059  0.3632  0.3142
 2212TIP3    H228052   3.339   4.377   2.334 -0.9400 -0.3485  1.4986
 2213TIP3   OH228053   3.007   6.530   3.228  0.2810  0.0422 -0.0769
 2213TIP3    H128054   3.069   6.603   3.230 -0.4138  0.6965 -1.3670
 2213TIP3    H228055   3.046   6.464   3.286  1.4962  0.9732  0.2047
 2214TIP3   OH228056   1.523   3.613  11.981 -0.4083  0.2821  0.4546
 2214TIP3    H128057   1.602   3.635  11.932  1.0042 -0.9333  2.0512
 2214TIP3    H228058   1.472   3.558  11.922  0.0717  0.8278 -0.4910
 2215TIP3   OH228059   2.584   4.101  16.757 -0.7054  0.3415  0.6071
 2215TIP3    H128060   2.605   4.180  16.807 -1.0103  0.7069  0.1590
 2215TIP3    H228061   2.595   4.126  16.666  1.1611 -0.6859  0.4807
 2216TIP3   OH228062   1.009   0.359  16.915 -0.0594  0.1441 -0.0600
 2216TIP3    H128063   1.070   0.295  16.951 -0.5064  0.6298  1.6432
 2216TIP3    H228064   1.044   0.444  16.941 -0.9277  0.4720  0.0847
 2217TIP3   OH228065   5.691   5.287   4.910  0.2845  0.2820 -0.4958
 2217TIP3    H128066   5.644   5.291   4.826  0.2373  0.4748 -0.4619
 2217TIP3    H228067   5.670   5.370   4.952 -0.7935 -0.3750  0.3041
 2218TIP3   OH228068   4.538   4.686  13.290 -0.1126  0.6578  0.5605
 2218TIP3    H128069   4.528   4.664  13.198 -2.5090  0.2360  0.8486
 2218TIP3    H228070   4.523   4.780  13.295 -1.5880  0.4431  0.6590
 2219TIP3   OH228071   2.580   4.534  15.859  0.2188 -0.2640 -0.0268
 2219TIP3    H128072   2.574   4.511  15.767  0.2609  3.4953 -1.1302
 2219TIP3    H228073   2.502   4.587  15.876  1.9717  2.1929  0.9893
 2220TIP3   OH228074   2.194   0.535  15.212 -0.7069 -0.1077  0.1650
 2220TIP3    H128075   2.279   0.579  15.210 -1.3569  1.1810 -1.6667
 2220TIP3    H228076   2.185   0.504  15.302 -0.2962  3.7610  1.7124
 2221TIP3   OH228077   2.826   0.741  13.312 -0.3168 -0.1760  0.3696
 2221TIP3    H128078   2.875   0.659  13.301 -1.7072 -0.9855 -0.0194
 2221TIP3    H228079   2.813   0.773  13.223 -0.8638 -0.1981  0.4391
 2222TIP3   OH228080   1.461   6.637  12.371  0.1429 -0.1912  0.3975
 2222TIP3    H128081   1.415   6.634  12.455 -1.9865  1.5683 -0.6072
 2222TIP3    H228082   1.419   6.570  12.318 -0.3517  0.4953 -0.0933
 2223TIP3   OH228083   4.814   3.850   5.014 -0.1708  0.1024  0.0618
 2223TIP3    H128084   4.812   3.815   5.103 -0.2251  2.0388  0.8677
 2223TIP3    H228085   4.810   3.772   4.958 -3.3076 -1.1295  1.6868
 2224TIP3   OH228086   2.481   2.141   6.531  0.1356  0.9570 -0.2862
 2224TIP3    H128087   2.534   2.065   6.558 -2.5636 -0.6979  0.8230
 2224TIP3    H228088   2.458   2.122   6.440  0.7452  1.2766 -0.5141
 2225TIP3   OH228089   1.750   5.148   5.958  0.1637  0.3643  0.2626
 2225TIP3    H128090   1.770   5.099   6.038  0.6650 -0.4187 -0.3264
 2225TIP3    H228091   1.797   5.101   5.889 -1.0530  0.4446 -0.6433
 2226TIP3   OH228092   0.405   0.518   1.521  0.2490 -0.1591  0.2954
 2226TIP3    H128093   0.337   0.531   1.588 -1.3339 -0.8994 -1.0931
 2226TIP3    H228094   0.430   0.426   1.531  1.3303  0.1971  1.0192
 2227TIP3   OH228095   1.353   5.793   5.858  0.1101 -0.3601 -0.2114
 2227TIP3    H128096   1.290   5.839   5.802 -0.3227  0.6076  1.0260
 2227TIP3    H228097   1.308   5.713   5.884 -0.1893 -0.1882 -0.1990
 2228TIP3   OH228098   2.831   3.807  14.112 -0.4943  0.0295  0.4337
 2228TIP3    H128099   2.856   3.715  14.111 -2.4900 -0.6167  2.0968
 2228TIP3    H228100   2.738   3.807  14.090 -0.1677  1.8662 -1.2302
 2229TIP3   OH228101   5.182   6.215   2.422  0.0033  0.0712 -0.2839
 2229TIP3    H128102   5.195   6.236   2.515 -0.5939 -0.2182 -0.1277
 2229TIP3    H228103   5.233   6.281   2.375  2.7447 -1.4765  0.2905
 2230TIP3   OH228104   4.234   1.886   1.918  0.4621 -0.0782 -0.2084
 2230TIP3    H128105   4.230   1.966   1.970  2.2995 -0.4587  0.6020
 2230TIP3    H228106   4.304   1.903   1.854  0.5743 -0.8649 -0.3027
 2231TIP3   OH228107   0.469   4.000   0.141  0.0327 -0.1957 -0.5446
 2231TIP3    H128108   0.541   4.001   0.204  1.3019  2.0774 -1.9214
 2231TIP3    H228109   0.466   3.909   0.111  0.4145 -0.9874  1.5883
 2232TIP3   OH228110   3.125   5.611  11.317 -0.3319 -0.0503 -0.9801
 2232TIP3    H128111   3.195   5.674  11.335 -0.5347 -0.5146  1.9051
 2232TIP3    H228112   3.154   5.564  11.239  2.6464 -0.2567  0.1404
 2233TIP3   OH228113   5.644   4.806  13.091  0.3783  0.2447  0.5493
 2233TIP3    H128114   5.709   4.736  13.096 -1.5581 -1.9490 -1.9600
 2233TIP3    H228115   5.592   4.797  13.171 -0.1379 -1.5841  0.0470
 2234TIP3   OH228116   6.808   2.354   4.718  0.2060 -0.7292 -0.0171
 2234TIP3    H128117   6.732   2.361   4.660  1.0412 -0.5182 -1.1191
 2234TIP3    H228118   6.800   2.430   4.776 -1.0665 -1.3756  0.7172
 2235TIP3   OH228119   4.422   5.491  14.813 -0.0496  0.7349 -0.0196
 2235TIP3    H128120   4.468   5.460  14.735 -0.1025  0.8974 -0.1153
 2235TIP3    H228121   4.476   5.461  14.886  0.5184  1.4358 -0.1461
 2236TIP3   OH228122   2.585   4.167  12.493 -0.2833 -0.0004  0.4918
 2236TIP3    H128123   2.627   4.175  12.407 -2.3805  0.2192 -0.5708
 2236TIP3    H228124   2.537   4.085  12.489 -0.2118 -0.1114  1.5777
 2237TIP3   OH228125   3.974   0.062  14.360 -0.3345 -0.0962  0.0598
 2237TIP3    H128126   3.887   0.099  14.379 -0.3800  0.0546 -0.4168
 2237TIP3    H228127   4.021   0.133  14.317 -0.6626 -0.8026 -1.5280
 2238TIP3   OH228128   4.477   3.228  10.721  0.3454 -0.6042  0.1408
 2238TIP3    H128129   4.554   3.276  10.692 -0.6448  0.6890 -0.4434
 2238TIP3    H228130   4.403   3.284  10.697 -0.9008 -2.6298 -1.0059
 2239TIP3   OH228131   5.775   6.404   1.526  0.6190  0.2616 -0.1693
 2239TIP3    H128132   5.759   6.395   1.432 -1.6245 -1.7985  0.3162
 2239TIP3    H228133   5.735   6.487   1.549  0.7467  0.5492 -0.9433
 2240TIP3   OH228134   2.312   5.920  12.411 -0.3408  0.3610 -0.3184
 2240TIP3    H128135   2.358   5.882  12.485  0.5867  0.9315 -0.5866
 2240TIP3    H228136   2.327   6.014  12.419 -0.7918  0.4852 -0.8571
 2241TIP3   OH228137   2.328   0.488  10.445 -0.2314  0.0500 -0.2242
 2241TIP3    H128138   2.350   0.507  10.354  1.0761  3.4367  0.6444
 2241TIP3    H228139   2.401   0.435  10.477  0.8588  1.3953 -0.4166
 2242TIP3   OH228140   5.434   2.054  14.772 -0.5333  0.2334  0.1412
 2242TIP3    H128141   5.373   2.114  14.730  0.4270  1.2582  0.1552
 2242TIP3    H228142   5.519   2.078  14.737  0.0114 -0.3598  1.0093
 2243TIP3   OH228143   6.189   2.620  13.690 -0.2059  0.2833 -0.4943
 2243TIP3    H128144   6.278   2.648  13.671 -0.3067  1.2463  0.3507
 2243TIP3    H228145   6.176   2.542  13.636  0.9529  0.4443 -1.0333
 2244TIP3   OH228146   5.313   4.751  12.381  0.4015  0.1304  0.3020
 2244TIP3    H128147   5.355   4.758  12.295 -0.9190  2.8117 -0.2097
 2244TIP3    H228148   5.365   4.807  12.438  0.4877 -0.5993  0.9577
 2245TIP3   OH228149   6.349   6.164   5.275 -0.3782 -0.0044  0.4336
 2245TIP3    H128150   6.300   6.084   5.255 -1.4620  0.8147 -0.3007
 2245TIP3    H228151   6.318   6.190   5.362  0.3293 -0.6181  0.8853
 2246TIP3   OH228152   5.885   6.006  12.392 -0.8189 -1.0656 -0.1722
 2246TIP3    H128153   5.956   5.944  12.376  1.4191  1.3224 -0.1920
 2246TIP3    H228154   5.863   5.994  12.484  2.8936  1.0652  1.2358
 2247TIP3   OH228155   3.334   3.326   4.746 -0.3811 -0.3023 -0.5251
 2247TIP3    H128156   3.283   3.407   4.744 -0.5816 -0.4001 -3.0137
 2247TIP3    H228157   3.292   3.270   4.680 -0.6491 -2.7326  1.5504
 2248TIP3   OH228158   0.496   3.541  12.200 -0.1657 -0.1618 -0.6718
 2248TIP3    H128159   0.574   3.524  12.253 -1.1818 -1.7776  0.4035
 2248TIP3    H228160   0.486   3.464  12.145 -1.6861 -0.5750  0.1192
 2249TIP3   OH228161   2.137   3.539   1.778  0.7362  0.4406  0.0075
 2249TIP3    H128162   2.149   3.502   1.866  0.3583  1.5215  0.5271
 2249TIP3    H228163   2.139   3.634   1.791  0.6707  0.6142 -1.1545
 2250TIP3   OH228164   4.187   0.396  16.179 -0.1984  0.4043  0.1558
 2250TIP3    H128165   4.232   0.473  16.144  1.7319 -0.8109 -0.2000
 2250TIP3    H228166   4.202   0.328  16.113  1.4871 -1.2943  2.1480
 2251TIP3   OH228167   3.655   6.613   5.467 -0.4549 -0.2891 -0.1979
 2251TIP3    H128168   3.583   6.556   5.441  0.4134 -1.5155 -0.0077
 2251TIP3    H228169   3.622   6.701   5.452 -0.9222 -0.8485 -2.9600
 2252TIP3   OH228170   2.080   5.465   2.777  0.7562  0.5980  0.1663
 2252TIP3    H128171   2.132   5.492   2.853  1.1581 -0.3073  0.2206
 2252TIP3    H228172   2.068   5.546   2.727 -0.7269  1.4825  1.8868
 2253TIP3   OH228173   2.407   4.520   1.320 -0.1422 -0.1980 -0.7956
 2253TIP3    H128174   2.344   4.563   1.378  0.5940 -0.2189  0.0359
 2253TIP3    H228175   2.360   4.511   1.237 -0.2550  2.5476 -1.1462
 2254TIP3   OH228176   0.933   5.436  16.851 -0.0861  0.0850 -0.1451
 2254TIP3    H128177   0.978   5.434  16.936 -0.1708  0.6908 -0.0870
 2254TIP3    H228178   0.941   5.346  16.818  2.1238  0.4005 -0.6234
 2255TIP3   OH228179   0.426   4.626  16.996  0.7152 -0.0885  0.2268
 2255TIP3    H128180   0.520   4.636  17.009  0.7987  0.5487 -0.7625
 2255TIP3    H228181   0.418   4.586  16.909  0.0318  1.7877 -0.6343
 2256TIP3   OH228182   6.453   5.396   0.159  0.3496  0.0771 -0.0393
 2256TIP3    H128183   6.434   5.459   0.089 -1.3236  0.6184  0.8544
 2256TIP3    H228184   6.402   5.319   0.136  0.4662 -0.0580  0.1579
 2257TIP3   OH228185   3.068   4.742  10.728  0.3030  0.0179  0.4260
 2257TIP3    H128186   3.056   4.682  10.655  1.0312 -0.6510  0.8395
 2257TIP3    H228187   2.998   4.807  10.718 -0.5373 -0.9358  0.0024
 2258TIP3   OH228188   2.299   1.072   1.605 -0.2097  0.0052 -0.5093
 2258TIP3    H128189   2.337   1.058   1.519 -0.3008 -1.5991 -0.3290
 2258TIP3    H228190   2.229   1.007   1.611  0.1461 -0.2880  0.9644
 2259TIP3   OH228191   6.748   3.610   5.725  0.3523 -0.0329 -0.6379
 2259TIP3    H128192   6.722   3.591   5.815  0.0305  1.0412 -0.4961
 2259TIP3    H228193   6.825   3.555   5.710  0.4073 -0.2188  0.2813
 2260TIP3   OH228194   2.727   6.184   3.861  0.6937 -0.3303  0.3580
 2260TIP3    H128195   2.670   6.141   3.797  0.0994  0.2652  0.4762
 2260TIP3    H228196   2.808   6.134   3.858  1.4739  0.9217 -2.3903
 2261TIP3   OH228197   2.483   3.006  11.897  0.0129 -0.0592 -0.0662
 2261TIP3    H128198   2.539   2.944  11.851  1.7412  0.2309  1.5440
 2261TIP3    H228199   2.423   2.952  11.948  0.8619 -0.4213  0.5702
 2262TIP3   OH228200   5.503   2.607   0.117 -0.3622 -0.6224  0.5197
 2262TIP3    H128201   5.554   2.686   0.098 -1.0694 -0.0361  0.9883
 2262TIP3    H228202   5.518   2.590   0.210 -1.6022  0.0124  0.8627
 2263TIP3   OH228203   4.887   6.771  12.366  0.2921  0.4748  0.2661
 2263TIP3    H128204   4.804   6.724  12.363 -0.0511  1.0888 -0.3989
 2263TIP3    H228205   4.912   6.779  12.274 -0.0051  2.1548  0.3011
 2264TIP3   OH228206   1.404   3.151   1.248  0.3379  0.3214 -0.7187
 2264TIP3    H128207   1.406   3.220   1.314  1.6388 -0.3437 -0.0254
 2264TIP3    H228208   1.409   3.069   1.298  2.6094 -0.1719 -1.6408
 2265TIP3   OH228209   3.499   4.452  15.115  0.5315 -0.5146  0.6136
 2265TIP3    H128210   3.418   4.466  15.066  0.9235 -0.1137  0.0719
 2265TIP3    H228211   3.471   4.411  15.196 -0.1460 -1.0722  0.1108
 2266TIP3   OH228212   0.896   0.850  15.040 -0.1548 -0.1214  0.0100
 2266TIP3    H128213   0.804   0.869  15.054 -0.0583 -0.2370  0.8555
 2266TIP3    H228214   0.931   0.834  15.128  1.3295  2.8638  0.0931
 2267TIP3   OH228215   0.910   5.346  14.689 -0.3138 -0.0045  0.1111
 2267TIP3    H128216   0.940   5.319  14.776 -0.5913  1.6482  0.7709
 2267TIP3    H228217   0.983   5.326  14.631 -0.6582 -2.4579  0.4266
 2268TIP3   OH228218   4.718   2.447   0.788  0.9167  0.1785 -0.1387
 2268TIP3    H128219   4.714   2.500   0.708 -0.5796 -0.1052 -0.2835
 2268TIP3    H228220   4.809   2.454   0.817  1.4276  0.4792 -1.7293
 2269TIP3   OH228221   2.107   4.710  13.128  0.2488  0.1978 -0.4855
 2269TIP3    H128222   2.081   4.694  13.037 -0.7666 -0.4030 -0.0965
 2269TIP3    H228223   2.083   4.802  13.143  1.7344  0.7516 -1.2418
 2270TIP3   OH228224   5.916   0.421   4.729  0.2648 -0.0019 -0.4218
 2270TIP3    H128225   5.896   0.384   4.815  1.6081 -0.4885 -0.2969
 2270TIP3    H228226   5.937   0.512   4.746 -1.3771  0.4396 -0.5165
 2271TIP3   OH228227   2.953   5.792   2.027  0.0814 -0.3580  0.0510
 2271TIP3    H128228   2.966   5.732   2.100 -0.0547  1.6886  1.8600
 2271TIP3    H228229   3.017   5.862   2.041 -1.8302  1.5388 -0.1291
 2272TIP3   OH228230   6.032   5.895   0.941 -0.0724  0.2347  0.0350
 2272TIP3    H128231   6.106   5.867   0.995 -0.1514  0.2055  0.1296
 2272TIP3    H228232   6.007   5.816   0.893 -1.3675 -0.3318  1.5433
 2273TIP3   OH228233   1.274   0.561  13.500  0.5407  0.3627  0.2304
 2273TIP3    H128234   1.307   0.472  13.495 -0.4655  0.0254 -0.9793
 2273TIP3    H228235   1.199   0.562  13.441 -0.2944  1.6621  1.2621
 2274TIP3   OH228236   2.410   1.084  14.618  0.3831 -0.1228 -0.1858
 2274TIP3    H128237   2.465   1.101  14.694 -0.8984  1.2189  0.5027
 2274TIP3    H228238   2.434   1.152  14.555 -0.2161  0.2683 -0.0077
 2275TIP3   OH228239   0.004   2.127   3.405 -0.2180  0.4418  0.1063
 2275TIP3    H128240  -0.030   2.085   3.484 -3.1277  1.7928 -0.2943
 2275TIP3    H228241  -0.061   2.106   3.337  2.1044 -0.5395 -1.9647
 2276TIP3   OH228242   1.142   0.142  15.924 -0.2555 -0.6828 -0.4949
 2276TIP3    H128243   1.076   0.077  15.901 -1.0184  0.5410 -1.8687
 2276TIP3    H228244   1.223   0.110  15.883 -0.5053 -1.0145 -0.7297
 2277TIP3   OH228245   1.908   5.471  14.221 -0.0100 -0.5247  0.1064
 2277TIP3    H128246   1.825   5.520  14.224  0.4754  0.4699 -1.3506
 2277TIP3    H228247   1.964   5.515  14.286  0.2674  0.6164 -0.8670
 2278TIP3   OH228248   3.991   1.385  10.328  0.1688  0.2258  0.3899
 2278TIP3    H128249   3.981   1.408  10.236 -0.1513 -1.3326  0.0104
 2278TIP3    H228250   3.922   1.320  10.344  1.4148 -0.9410  1.2172
 2279TIP3   OH228251   4.061   1.774  16.304 -0.3966 -0.2228  0.3279
 2279TIP3    H128252   4.076   1.829  16.228  2.3696 -1.1167  0.0925
 2279TIP3    H228253   3.966   1.768  16.313 -0.7714  0.8321 -2.3381
 2280TIP3   OH228254   3.166   4.160  13.275  0.1164  0.1417 -0.4677
 2280TIP3    H128255   3.156   4.088  13.212 -4.3358  1.9005 -2.1917
 2280TIP3    H228256   3.129   4.126  13.356  0.4136 -0.3072 -0.5173
 2281TIP3   OH228257   1.660   0.659  10.913  0.1073  0.1486 -0.0665
 2281TIP3    H128258   1.742   0.640  10.867 -0.9111  0.7333 -2.2385
 2281TIP3    H228259   1.591   0.631  10.853 -1.3844 -1.7781  2.3230
 2282TIP3   OH228260   6.090   5.093  15.149 -0.7697 -0.4600  0.0223
 2282TIP3    H128261   6.097   5.171  15.093 -0.6918 -0.2670  0.2979
 2282TIP3    H228262   6.047   5.028  15.094 -0.8787 -0.2056 -0.1968
 2283TIP3   OH228263   4.079   1.788  15.235 -0.1768 -0.0087  0.2810
 2283TIP3    H128264   4.090   1.707  15.286  1.9351  0.0588  0.0231
 2283TIP3    H228265   4.088   1.761  15.144 -1.3648  0.2618  0.0686
 2284TIP3   OH228266   5.593   6.114  16.883 -0.4749 -0.6857  0.2819
 2284TIP3    H128267   5.625   6.094  16.971 -0.6003 -0.9859  0.2610
 2284TIP3    H228268   5.643   6.056  16.825 -1.0080 -1.1148  0.2426
 2285TIP3   OH228269   3.404   0.110   1.107 -0.1022  0.0113 -0.1548
 2285TIP3    H128270   3.320   0.118   1.062 -0.4193  2.1725  0.6790
 2285TIP3    H228271   3.400   0.026   1.152 -1.5572 -0.2129 -0.6595
 2286TIP3   OH228272   5.643   4.831  16.086 -0.0090  0.4688  0.1737
 2286TIP3    H128273   5.560   4.791  16.061  0.2950  0.6749 -1.2622
 2286TIP3    H228274   5.619   4.916  16.123 -0.4260  0.6799 -0.5629
 2287TIP3   OH228275   2.486   6.452   4.001 -0.1078 -0.5047  0.1855
 2287TIP3    H128276   2.444   6.461   4.087  1.6011 -1.5058  1.1949
 2287TIP3    H228277   2.539   6.373   4.009  0.7732 -0.1283 -1.5211
 2288TIP3   OH228278   6.440   5.891   2.048 -0.4198 -0.8388  0.3899
 2288TIP3    H128279   6.519   5.843   2.072 -0.2580 -0.9304 -0.3037
 2288TIP3    H228280   6.464   5.940   1.969 -0.6728  0.1677  0.9175
 2289TIP3   OH228281   4.948   5.807  11.619 -0.6079  0.2634 -0.1822
 2289TIP3    H128282   4.883   5.878  11.612 -1.9826 -0.8219  1.1152
 2289TIP3    H228283   4.898   5.727  11.602  0.0931 -0.7046  1.9653
 2290TIP3   OH228284   5.343   2.102  15.033  0.4337  0.0354 -0.0656
 2290TIP3    H128285   5.374   2.074  14.947 -2.8471  0.0066 -1.3758
 2290TIP3    H228286   5.328   2.196  15.023 -1.6014 -0.2601 -0.1510
 2291TIP3   OH228287   3.654   1.233  16.428  0.2753  0.3913 -0.5047
 2291TIP3    H128288   3.622   1.168  16.367  1.2270  0.0412 -0.6541
 2291TIP3    H228289   3.668   1.185  16.510  1.7194  0.1986 -0.8295
 2292TIP3   OH228290   3.883   4.686  12.047  0.1974 -0.0574  0.2211
 2292TIP3    H128291   3.865   4.681  12.141  1.9601  1.2087  0.6711
 2292TIP3    H228292   3.913   4.599  12.023  0.6100 -0.1379  1.0332
 2293TIP3   OH228293   3.323   4.743  13.557 -0.4685 -0.6412 -0.1295
 2293TIP3    H128294   3.293   4.699  13.478 -0.6052 -0.0906 -0.3954
 2293TIP3    H228295   3.322   4.836  13.534  2.1049 -0.6121 -0.3717
 2294TIP3   OH228296   3.152   1.087   5.306 -0.2883 -0.0854  1.1374
 2294TIP3    H128297   3.242   1.080   5.339  0.1869 -1.7845 -0.3631
 2294TIP3    H228298   3.097   1.070   5.382  0.6669  0.3235  1.9423
 2295TIP3   OH228299   4.378   2.082   2.801  0.1291 -0.5886  0.1480
 2295TIP3    H128300   4.441   2.143   2.839  1.0907 -1.0497 -0.6502
 2295TIP3    H228301   4.373   2.011   2.865 -0.6056  0.0731  0.8377
 2296TIP3   OH228302   1.888   2.411   6.862 -0.1736  0.4244  0.2173
 2296TIP3    H128303   1.945   2.479   6.898  0.4212 -0.6286  1.3124
 2296TIP3    H228304   1.827   2.390   6.933 -0.5873  0.0558 -0.2356
 2297TIP3   OH228305   1.874   6.120  15.670 -0.4127  0.7195  0.3559
 2297TIP3    H128306   1.803   6.057  15.682  0.4060 -0.5715 -1.2126
 2297TIP3    H228307   1.951   6.076  15.707  0.4471  0.1411 -1.9605
 2298TIP3   OH228308   4.747   2.079   5.663 -0.0888 -0.0970  0.4992
 2298TIP3    H128309   4.670   2.134   5.678 -0.7496 -0.8703  0.0763
 2298TIP3    H228310   4.767   2.090   5.570 -0.0096 -0.2935  0.4928
 2299TIP3   OH228311   3.782   3.723  15.392  0.1088  0.5585  0.4250
 2299TIP3    H128312   3.732   3.736  15.473  0.7793 -0.9245  1.1346
 2299TIP3    H228313   3.820   3.809  15.373 -0.3584  1.0202  1.4826
 2300TIP3   OH228314   6.057   2.960   2.005  0.0193  0.2064  0.2079
 2300TIP3    H128315   5.967   2.982   2.025  1.3152  3.9754  3.0421
 2300TIP3    H228316   6.075   2.882   2.058 -1.2186  0.2287  0.6784
 2301TIP3   OH228317   3.753   6.068   6.662 -0.0762  0.3173  0.5335
 2301TIP3    H128318   3.838   6.042   6.698  0.3070 -0.7302 -1.0211
 2301TIP3    H228319   3.774   6.136   6.598 -0.4463  0.2607  0.3519
 2302TIP3   OH228320   5.500   5.854  12.600 -0.2165  0.1635 -0.4872
 2302TIP3    H128321   5.410   5.848  12.632 -0.2609 -0.1381 -0.6599
 2302TIP3    H228322   5.493   5.838  12.506  0.2966 -2.5626 -0.1368
 2303TIP3   OH228323   2.273   4.176  17.072  0.0934 -0.6133  0.6972
 2303TIP3    H128324   2.289   4.122  17.150  0.7853 -1.9067 -0.2911
 2303TIP3    H228325   2.312   4.126  17.000  0.1790  0.9159 -0.3764
 2304TIP3   OH228326   4.000   0.045  12.251 -0.3170 -0.1237 -0.1264
 2304TIP3    H128327   4.069   0.029  12.187 -0.6314 -1.0821 -0.2399
 2304TIP3    H228328   4.046   0.052  12.334 -0.0420 -0.2800 -0.2629
 2305TIP3   OH228329   5.893   4.166   0.749 -0.2661  0.1714 -0.1360
 2305TIP3    H128330   5.899   4.076   0.716  3.3388 -1.3348  3.6920
 2305TIP3    H228331   5.942   4.217   0.685 -0.0045 -1.1152 -1.0179
 2306TIP3   OH228332   0.131   3.346  13.217 -0.8986  0.1754  0.0245
 2306TIP3    H128333   0.040   3.356  13.244 -1.3080  0.7452 -1.5290
 2306TIP3    H228334   0.162   3.271  13.268 -1.7152  0.9942  1.8210
 2307TIP3   OH228335   6.076   3.249  14.796 -0.5157  0.4164 -0.2012
 2307TIP3    H128336   6.013   3.254  14.868 -0.5586 -1.9855  0.0175
 2307TIP3    H228337   6.159   3.228  14.838 -0.2474  0.3479 -0.7568
 2308TIP3   OH228338   3.344   3.542  13.407  0.6304  0.0578 -0.5629
 2308TIP3    H128339   3.294   3.496  13.474 -3.3483  1.6104 -2.1666
 2308TIP3    H228340   3.408   3.594  13.456 -1.4937  0.4635  1.9942
 2309TIP3   OH228341   1.582   4.668   4.324  0.3296  0.0541 -0.3892
 2309TIP3    H128342   1.554   4.642   4.412  0.6944 -0.6562 -0.4770
 2309TIP3    H228343   1.541   4.604   4.266 -0.7198  1.0956 -0.8404
 2310TIP3   OH228344   0.554   4.323  12.216  0.1791  0.4998 -0.1535
 2310TIP3    H128345   0.538   4.347  12.307 -0.2923 -1.1829  0.2491
 2310TIP3    H228346   0.467   4.324  12.176  0.2158  0.0504 -0.2536
 2311TIP3   OH228347   0.388   4.426   1.132  0.6226  0.4776  0.1373
 2311TIP3    H128348   0.429   4.341   1.145  0.0961  0.0439 -0.8839
 2311TIP3    H228349   0.295   4.406   1.122  0.7154  0.9213 -2.1332
 2312TIP3   OH228350   4.026   3.243  14.601 -0.7141 -0.6130 -0.2059
 2312TIP3    H128351   3.990   3.212  14.684  0.5785 -0.5604  0.3997
 2312TIP3    H228352   4.083   3.316  14.625  0.0704 -0.9143 -1.0701
 2313TIP3   OH228353   1.869   4.462  11.557 -1.3055 -0.7659 -0.1404
 2313TIP3    H128354   1.949   4.409  11.563 -0.0379  1.1085  0.6411
 2313TIP3    H228355   1.895   4.538  11.506 -3.1065 -0.9019 -1.3199
 2314TIP3   OH228356   0.830   0.652  16.245  0.0974 -0.2013 -0.2275
 2314TIP3    H128357   0.848   0.612  16.160 -0.7692 -1.2363  0.0571
 2314TIP3    H228358   0.749   0.701  16.231  0.1706 -0.0430 -0.0993
 2315TIP3   OH228359   3.051   2.000  11.204  0.0152 -0.0131  0.1350
 2315TIP3    H128360   2.981   1.964  11.149 -1.3281  1.8678  0.5054
 2315TIP3    H228361   3.116   2.032  11.142 -0.0565 -0.6082 -0.2597
 2316TIP3   OH228362   1.323   0.235   0.341 -0.0595  0.1580 -0.5369
 2316TIP3    H128363   1.326   0.229   0.437  1.0948 -0.4545 -0.5940
 2316TIP3    H228364   1.248   0.291   0.323  0.0594  0.7635  0.7500
 2317TIP3   OH228365   0.906   1.470  15.808 -0.1706  0.3783  0.1745
 2317TIP3    H128366   0.946   1.518  15.735  0.3537 -0.4131 -0.0731
 2317TIP3    H228367   0.878   1.539  15.869 -0.2800  1.0346 -0.5918
 2318TIP3   OH228368   3.172   4.743   4.632  0.1240  0.3426  0.0448
 2318TIP3    H128369   3.103   4.805   4.608  2.1546  2.0320 -1.9313
 2318TIP3    H228370   3.176   4.682   4.557  1.0257  0.5464 -0.0905
 2319TIP3   OH228371   1.804   5.909   2.856 -0.0504  0.0725  0.5286
 2319TIP3    H128372   1.724   5.928   2.807  0.1157  0.8086  0.5323
 2319TIP3    H228373   1.780   5.838   2.915 -0.6934  0.2809  0.5216
 2320TIP3   OH228374   4.226   2.070  16.730  0.6395 -0.0460 -0.2564
 2320TIP3    H128375   4.294   2.136  16.720 -0.9553  1.5453 -1.2704
 2320TIP3    H228376   4.196   2.053  16.640 -0.4082 -0.5857  0.1757
 2321TIP3   OH228377   5.745   4.259  13.907  0.0752  0.9841  0.2114
 2321TIP3    H128378   5.661   4.213  13.906 -0.0367  1.2058 -0.5225
 2321TIP3    H228379   5.727   4.339  13.957  0.1710  0.4367  1.1427
 2322TIP3   OH228380   6.032   2.449   3.179  0.1951  0.0564  0.3878
 2322TIP3    H128381   5.985   2.478   3.257 -0.3806 -1.1512  0.5281
 2322TIP3    H228382   6.080   2.371   3.207  0.6115  0.0688 -0.2674
 2323TIP3   OH228383   0.383   3.771   4.361 -0.4199  0.6617  0.1194
 2323TIP3    H128384   0.346   3.683   4.360  2.1238 -0.5251  1.0040
 2323TIP3    H228385   0.458   3.766   4.301 -0.7329  2.5039 -0.4788
 2324TIP3   OH228386   4.240   3.766   2.528 -0.1021  0.5537 -0.4047
 2324TIP3    H128387   4.149   3.737   2.521 -0.2896  1.0472 -0.0877
 2324TIP3    H228388   4.286   3.692   2.568 -0.4612  0.4814 -0.1208
 2325TIP3   OH228389   5.205   1.740   6.484  0.6790 -0.3009 -0.4804
 2325TIP3    H128390   5.170   1.672   6.427 -1.7504  1.4902 -1.2974
 2325TIP3    H228391   5.294   1.754   6.452 -0.1865 -0.2112 -3.1158
 2326TIP3   OH228392   6.398   4.319   4.575 -0.5355  0.0237 -0.8720
 2326TIP3    H128393   6.465   4.274   4.523 -2.1627 -1.4156 -1.8289
 2326TIP3    H228394   6.325   4.257   4.578 -0.7449  0.2626  2.7264
 2327TIP3   OH228395   0.721   1.229   3.786 -0.1957 -0.0235 -0.0806
 2327TIP3    H128396   0.768   1.298   3.834 -0.3572  0.2971 -0.3770
 2327TIP3    H228397   0.790   1.176   3.748 -0.0653 -0.2777  0.4986
 2328TIP3   OH228398   1.480   1.338  12.624 -0.0516 -0.0465  0.8825
 2328TIP3    H128399   1.554   1.390  12.655  0.6079  0.2242 -1.0178
 2328TIP3    H228400   1.479   1.261  12.680  1.8791 -0.2137  0.7473
 2329TIP3   OH228401   3.228   1.432   0.056  0.5852  0.7669  0.1570
 2329TIP3    H128402   3.151   1.483   0.029  0.0102 -1.0984 -2.0490
 2329TIP3    H228403   3.220   1.425   0.151 -0.1220  3.4077  0.3813
 2330TIP3   OH228404   3.413   5.558   2.689  0.0862 -0.1382 -0.2772
 2330TIP3    H128405   3.402   5.497   2.763  2.8484 -1.1427 -0.5731
 2330TIP3    H228406   3.374   5.512   2.615 -1.3256  0.2095  0.2164
 2331TIP3   OH228407   3.254   4.735  12.960 -0.5293 -0.7223 -0.5993
 2331TIP3    H128408   3.225   4.646  12.944 -0.6060 -0.3013 -3.2429
 2331TIP3    H228409   3.347   4.727  12.982 -1.0829 -1.5772  1.7051
 2332TIP3   OH228410   3.510   2.392   3.522 -0.3297 -0.4714 -0.0263
 2332TIP3    H128411   3.521   2.470   3.467  0.9284  0.2761  1.2311
 2332TIP3    H228412   3.579   2.399   3.588 -2.4429 -0.7396  2.3742
 2333TIP3   OH228413   4.676   1.949   5.312 -0.2569  0.4495 -0.3736
 2333TIP3    H128414   4.758   1.943   5.264 -1.1483  0.1743 -1.9281
 2333TIP3    H228415   4.701   1.980   5.399  1.3980  1.1453 -1.0590
 2334TIP3   OH228416   6.149   4.907  11.269 -0.0554 -0.0788 -0.0156
 2334TIP3    H128417   6.237   4.921  11.236 -0.6747  0.6644 -1.4534
 2334TIP3    H228418   6.108   4.849  11.205 -0.2359 -1.4876  1.3262
 2335TIP3   OH228419   2.038   4.690   2.768 -0.1761  0.7511  0.0114
 2335TIP3    H128420   2.096   4.760   2.797  0.4842 -1.0684  3.6331
 2335TIP3    H228421   2.095   4.614   2.756 -1.4386 -0.5150  1.5064
 2336TIP3   OH228422   0.602   4.706   3.642  0.8663 -0.2866 -0.0322
 2336TIP3    H128423   0.531   4.648   3.669 -0.2698  0.1125 -1.9983
 2336TIP3    H228424   0.569   4.794   3.663  0.4495 -0.0543 -1.5136
 2337TIP3   OH228425   2.371   0.811  11.380  0.2813 -0.0550  0.9869
 2337TIP3    H128426   2.378   0.883  11.442  0.5824  0.2958  0.5451
 2337TIP3    H228427   2.456   0.768  11.382  0.7713  0.7907 -0.1874
 2338TIP3   OH228428   4.391   1.093   1.484  0.0886  0.1237  0.1111
 2338TIP3    H128429   4.302   1.072   1.512 -0.2251  0.8131 -0.3143
 2338TIP3    H228430   4.441   1.013   1.499 -0.7995 -0.5555 -0.4421
 2339TIP3   OH228431   3.118   1.344   3.789  0.2980 -0.3118 -0.3981
 2339TIP3    H128432   3.071   1.420   3.823 -1.7333 -2.2455  1.4678
 2339TIP3    H228433   3.051   1.296   3.739  0.9384 -1.8725  0.1832
 2340TIP3   OH228434   4.766   4.580  12.193 -0.1925  0.3385 -0.1636
 2340TIP3    H128435   4.769   4.550  12.284 -0.8695  0.1568 -0.1974
 2340TIP3    H228436   4.840   4.641  12.186 -0.6772  1.0643  0.7702
 2341TIP3   OH228437   0.336   3.230  14.634  0.3027  0.3391  0.2352
 2341TIP3    H128438   0.407   3.281  14.674 -0.2452  0.8302  0.6058
 2341TIP3    H228439   0.293   3.188  14.709 -0.2161  0.5933  0.0778
 2342TIP3   OH228440   2.870   0.808   2.650 -0.1596  0.0467 -0.3567
 2342TIP3    H128441   2.823   0.791   2.732 -2.3989 -0.3915 -1.6359
 2342TIP3    H228442   2.907   0.895   2.661 -0.3469 -0.0342  1.1524
 2343TIP3   OH228443   1.050   2.341  13.562 -0.0754  0.0193  0.3073
 2343TIP3    H128444   1.025   2.377  13.477 -0.1581 -0.5274  0.0991
 2343TIP3    H228445   1.005   2.398  13.626 -0.9368 -0.2604 -0.0378
 2344TIP3   OH228446   0.707   3.742  14.552 -0.0078 -0.9418 -0.1853
 2344TIP3    H128447   0.785   3.792  14.526  0.0946 -0.4970  0.8952
 2344TIP3    H228448   0.735   3.651  14.549 -0.4677 -1.0846 -3.1099
 2345TIP3   OH228449   5.798   2.593  14.842  0.2107  0.4825 -0.2349
 2345TIP3    H128450   5.822   2.647  14.918  0.5323 -1.4423  1.1290
 2345TIP3    H228451   5.880   2.578  14.796  0.3236  0.2368  0.0416
 2346TIP3   OH228452   3.710   4.089  16.656 -0.2449 -0.1685  0.1079
 2346TIP3    H128453   3.703   4.184  16.656 -0.2574 -0.1615  0.9459
 2346TIP3    H228454   3.786   4.071  16.712 -0.1846 -0.6489 -0.1216
 2347TIP3   OH228455   6.266   3.271  12.385 -0.0562 -0.0367  0.4035
 2347TIP3    H128456   6.352   3.239  12.360  0.2210 -0.7079  2.0892
 2347TIP3    H228457   6.241   3.331  12.315  1.5447 -0.2273 -0.3640
 2348TIP3   OH228458   6.073   4.975   4.019 -0.7945  0.2311 -0.7127
 2348TIP3    H128459   6.158   4.931   4.020 -0.7294  0.3306  0.7115
 2348TIP3    H228460   6.072   5.023   3.936  1.3328  1.6737  0.0025
 2349TIP3   OH228461   0.755   6.782   6.174  0.4297  0.1508 -0.7013
 2349TIP3    H128462   0.741   6.691   6.200 -0.0611  0.0747 -1.2244
 2349TIP3    H228463   0.847   6.799   6.197  0.1036  0.0096  0.8018
 2350TIP3   OH228464   6.220   2.349   3.625  0.6399  0.1281 -0.5403
 2350TIP3    H128465   6.182   2.330   3.710  0.2608 -0.3561 -0.8115
 2350TIP3    H228466   6.308   2.312   3.629  1.4242  1.9721  0.3804
 2351TIP3   OH228467   3.239   5.049  11.888  0.0036  0.0140  0.8059
 2351TIP3    H128468   3.151   5.088  11.880 -0.0107 -0.0440  0.6731
 2351TIP3    H228469   3.236   4.973  11.830  0.8752  1.3263 -1.0859
 2352TIP3   OH228470   0.555   1.421   1.387 -0.4484  0.2360 -0.0004
 2352TIP3    H128471   0.479   1.472   1.358  0.9752  1.8678 -1.1013
 2352TIP3    H228472   0.585   1.375   1.309 -1.5016 -2.1365  0.9067
 2353TIP3   OH228473   6.693   6.310  10.361 -0.3224 -0.1580  0.0022
 2353TIP3    H128474   6.752   6.316  10.286 -0.4405 -0.1593 -0.0921
 2353TIP3    H228475   6.680   6.217  10.374 -0.2526 -0.1588  0.0638
 2354TIP3   OH228476   6.119   2.022  13.259 -0.3450  0.1123  0.6464
 2354TIP3    H128477   6.076   1.998  13.341  1.0076 -2.0625  0.7829
 2354TIP3    H228478   6.096   2.114  13.247 -1.4215  0.2239  2.9118
 2355TIP3   OH228479   2.332   3.166   0.133  0.7808  0.0695  0.1920
 2355TIP3    H128480   2.330   3.261   0.143 -2.7626  0.0678  0.6724
 2355TIP3    H228481   2.347   3.133   0.222 -0.0523  0.1980  0.3875
 2356TIP3   OH228482   2.220   1.303   3.085  0.3609 -0.0788 -0.2423
 2356TIP3    H128483   2.269   1.222   3.073 -0.5630 -0.4789 -1.6374
 2356TIP3    H228484   2.240   1.355   3.007 -0.7505  0.0921 -0.4307
 2357TIP3   OH228485   3.028   1.424  12.222  0.4401 -0.1840 -0.6359
 2357TIP3    H128486   3.068   1.491  12.277  0.0735  0.1399 -0.7567
 2357TIP3    H228487   2.992   1.360  12.283  0.9134 -0.3431 -0.5233
 2358TIP3   OH228488   5.413   1.601  11.688  0.2318  0.4459  0.3819
 2358TIP3    H128489   5.374   1.537  11.748  2.1909 -1.8057 -0.5609
 2358TIP3    H228490   5.408   1.560  11.602  0.4204  2.1745 -0.5057
 2359TIP3   OH228491   6.260   0.203  13.401 -0.4634  0.0672  0.5112
 2359TIP3    H128492   6.333   0.152  13.367 -0.4855  0.4855 -0.1959
 2359TIP3    H228493   6.190   0.189  13.338 -0.7634  0.2345  0.8034
 2360TIP3   OH228494   4.114   2.359   2.434  0.0878  0.8351 -0.0411
 2360TIP3    H128495   4.051   2.429   2.455  0.4937  1.0202  0.5696
 2360TIP3    H228496   4.096   2.291   2.498  0.5802  0.9342  0.2056
 2361TIP3   OH228497   0.040   0.163   1.518 -0.5941  0.1689  0.5538
 2361TIP3    H128498   0.098   0.227   1.477  1.5749 -0.6503  2.1449
 2361TIP3    H228499   0.016   0.203   1.602 -1.8349  0.1944  0.2111
 2362TIP3   OH228500   5.003   3.584   2.603 -0.0535  0.2781  0.3011
 2362TIP3    H128501   4.998   3.500   2.559  1.2444  0.1429  0.3777
 2362TIP3    H228502   4.956   3.572   2.685  1.8923 -1.0629  1.3103
 2363TIP3   OH228503   4.280   4.176  16.383 -0.5497 -0.4566  0.0440
 2363TIP3    H128504   4.203   4.152  16.331 -0.1727 -0.9471 -0.2866
 2363TIP3    H228505   4.323   4.244  16.331 -1.1552  0.3622  0.5830
 2364TIP3   OH228506   4.870   6.121  15.270  0.4401 -0.2238  0.1768
 2364TIP3    H128507   4.819   6.045  15.299  0.5001 -0.3997 -0.1729
 2364TIP3    H228508   4.930   6.138  15.343  0.9044 -0.9549 -0.0157
 2365TIP3   OH228509   4.766   6.309   3.047  0.2150 -0.0273 -0.1973
 2365TIP3    H128510   4.687   6.258   3.060 -0.4991  1.7320  3.9464
 2365TIP3    H228511   4.832   6.267   3.103  1.1211  0.6822 -0.6973
 2366TIP3   OH228512   4.479   4.052  13.622 -0.1195 -0.2828 -0.4015
 2366TIP3    H128513   4.502   3.990  13.691  0.1715 -0.6939 -0.8693
 2366TIP3    H228514   4.483   4.001  13.541 -2.1034 -0.2511 -0.5712
 2367TIP3   OH228515   5.544   0.609  15.875  0.2180 -0.3390  0.0824
 2367TIP3    H128516   5.587   0.675  15.930 -1.2391  0.9067 -0.1923
 2367TIP3    H228517   5.614   0.548  15.852  1.9448  1.7710 -0.6415
 2368TIP3   OH228518   5.458   6.725   1.056  0.7854  0.1704  0.4931
 2368TIP3    H128519   5.399   6.654   1.032 -0.4336  1.4388 -0.4607
 2368TIP3    H228520   5.410   6.774   1.123  1.0803  0.7681  0.2768
 2369TIP3   OH228521   6.608   2.979  11.294  1.1610 -0.2471  0.1712
 2369TIP3    H128522   6.577   3.068  11.314  1.6612  0.2425 -1.1141
 2369TIP3    H228523   6.586   2.967  11.202  2.5423 -0.8536 -0.0889
 2370TIP3   OH228524   0.546   0.332   0.427 -0.3880  0.1407  0.2956
 2370TIP3    H128525   0.456   0.365   0.435 -0.0799  0.6758  1.9191
 2370TIP3    H228526   0.596   0.406   0.395 -0.1968  0.4549  1.2773
 2371TIP3   OH228527   0.189   5.786   2.971  0.0199 -0.0830 -0.5607
 2371TIP3    H128528   0.255   5.719   2.988  0.4086  0.3376 -0.3851
 2371TIP3    H228529   0.149   5.802   3.057 -1.4564 -1.4945 -0.9317
 2372TIP3   OH228530   4.080   4.188   1.498 -0.3401 -0.4939  0.1054
 2372TIP3    H128531   4.123   4.274   1.495 -1.7320  0.4969  3.4230
 2372TIP3    H228532   4.151   4.125   1.485  1.1285  1.1345 -0.1452
 2373TIP3   OH228533   5.659   1.158   4.335  0.7306 -0.2016 -0.0035
 2373TIP3    H128534   5.741   1.167   4.287  0.4818 -1.5937 -0.7405
 2373TIP3    H228535   5.641   1.064   4.336  0.4685 -0.1943  2.4189
 2374TIP3   OH228536   0.233   4.217  10.975  0.1857  0.3572 -0.2544
 2374TIP3    H128537   0.251   4.218  10.881 -0.4921 -1.5652 -0.4531
 2374TIP3    H228538   0.155   4.161  10.984  0.5324  0.0714  1.4894
 2375TIP3   OH228539   0.676   6.269   4.099 -0.1878 -0.1874  0.0970
 2375TIP3    H128540   0.731   6.192   4.080  0.8613  0.4101  0.6263
 2375TIP3    H228541   0.673   6.317   4.017 -0.5543 -0.6015 -0.1392
 2376TIP3   OH228542   3.417   4.630  15.558  0.4895 -0.4185  0.1469
 2376TIP3    H128543   3.384   4.645  15.470  0.2458 -0.3814  0.2423
 2376TIP3    H228544   3.415   4.534  15.569  0.0965 -0.4007  0.2674
 2377TIP3   OH228545   6.800   0.388   0.439  0.0652  0.2214  0.0167
 2377TIP3    H128546   6.873   0.390   0.377 -0.8141  0.8350 -1.0280
 2377TIP3    H228547   6.806   0.301   0.479  1.7425  0.4871  0.4369
 2378TIP3   OH228548   2.414   0.572  16.611 -0.4287 -0.5850  0.8475
 2378TIP3    H128549   2.464   0.641  16.568 -2.0971  0.9483  1.2830
 2378TIP3    H228550   2.456   0.491  16.582  0.1782  0.4964 -1.5289
 2379TIP3   OH228551   4.493   2.787  14.133  0.5951 -0.1817  0.1401
 2379TIP3    H128552   4.550   2.731  14.081 -0.9613 -1.1076 -0.6713
 2379TIP3    H228553   4.502   2.755  14.222  0.8044 -0.7906 -0.0969
 2380TIP3   OH228554   4.904   1.960   5.151  0.2477  0.1941 -0.3402
 2380TIP3    H128555   4.932   1.908   5.076  0.7273  1.4142 -1.0192
 2380TIP3    H228556   4.951   1.921   5.225  0.8852 -0.1067 -0.8899
 2381TIP3   OH228557   6.115   2.006  16.148 -0.1983  0.2829 -0.6835
 2381TIP3    H128558   6.186   2.063  16.175  0.4276 -0.8678  0.2265
 2381TIP3    H228559   6.142   1.974  16.062  1.5326 -1.8229  0.5298
 2382TIP3   OH228560   5.844   4.658  12.244  0.0270  0.4205 -0.0699
 2382TIP3    H128561   5.934   4.681  12.223  0.7078 -1.6835  0.3087
 2382TIP3    H228562   5.844   4.643  12.339 -0.9794  1.3507  0.1017
 2383TIP3   OH228563   2.340   4.474   0.590 -0.0947  0.7944  0.1629
 2383TIP3    H128564   2.305   4.522   0.515  3.4788  0.6146 -1.8561
 2383TIP3    H228565   2.272   4.411   0.612 -2.0797  2.1819 -1.6029
 2384TIP3   OH228566   4.682   6.290  11.952  0.1726 -0.1474 -0.2774
 2384TIP3    H128567   4.754   6.348  11.931  1.3147 -1.7296 -0.8974
 2384TIP3    H228568   4.685   6.222  11.885 -0.4852 -1.4667  0.9707
 2385TIP3   OH228569   1.324   3.393   3.678  0.4970 -0.1977 -0.0921
 2385TIP3    H128570   1.389   3.418   3.743 -1.3227  1.0126  1.3755
 2385TIP3    H228571   1.304   3.301   3.697  0.1611  0.0774  0.9479
 2386TIP3   OH228572   1.239   1.363   3.624 -0.1163 -0.5904  0.0557
 2386TIP3    H128573   1.314   1.419   3.604  0.5726 -1.7954 -0.8490
 2386TIP3    H228574   1.215   1.386   3.714  1.1946 -0.0186  0.2751
 2387TIP3   OH228575   6.300   4.848   4.156  0.3245 -0.5492  0.3057
 2387TIP3    H128576   6.383   4.808   4.130 -0.0275 -0.6741 -0.6607
 2387TIP3    H228577   6.244   4.773   4.179  1.0750 -0.4103  2.9640
 2388TIP3   OH228578   2.439   4.172   0.812 -0.2587 -0.6711 -0.5711
 2388TIP3    H128579   2.513   4.198   0.757 -0.2583  0.6332  0.0172
 2388TIP3    H228580   2.362   4.198   0.762 -0.2607  0.3485 -0.0618
 2389TIP3   OH228581   4.229   1.770   2.190 -0.5974  0.0562 -0.2908
 2389TIP3    H128582   4.229   1.807   2.102  2.4077  4.6679  1.2760
 2389TIP3    H228583   4.312   1.723   2.197 -0.4840  0.3209  0.2351
 2390TIP3   OH228584   0.474   5.790   1.880 -0.2905  0.3069  0.2309
 2390TIP3    H128585   0.428   5.867   1.914  0.3337  1.2560 -0.9748
 2390TIP3    H228586   0.516   5.751   1.958 -0.9540  0.9428  0.9251
 2391TIP3   OH228587   3.037   2.850  15.360 -0.2673  0.6348  0.3017
 2391TIP3    H128588   3.111   2.858  15.300 -2.4824  3.2348 -2.4414
 2391TIP3    H228589   2.998   2.766  15.338  1.5930 -0.6205  1.5640
 2392TIP3   OH228590   3.375   1.688  12.766  0.7122  0.4012  0.2725
 2392TIP3    H128591   3.335   1.678  12.679  0.4827  1.7418  0.1906
 2392TIP3    H228592   3.464   1.655  12.755  0.5122  0.0459 -0.3343
 2393TIP3   OH228593   3.562   4.715  16.307  0.2218 -0.6300  0.1983
 2393TIP3    H128594   3.610   4.640  16.341  0.7318 -0.7233 -0.6974
 2393TIP3    H228595   3.608   4.791  16.343  0.3976 -0.7343  0.1969
 2394TIP3   OH228596   1.734   0.082  13.486  0.4434  0.3810  0.2094
 2394TIP3    H128597   1.791   0.159  13.484 -1.1058  1.6122  0.6995
 2394TIP3    H228598   1.747   0.045  13.573  0.7065  0.4765  0.2118
 2395TIP3   OH228599   4.291   0.575   0.696  0.7297 -0.5620  0.2799
 2395TIP3    H128600   4.253   0.597   0.611  0.4868 -0.5706  0.3837
 2395TIP3    H228601   4.260   0.486   0.714  1.6224 -0.9592 -0.0912
 2396TIP3   OH228602   0.469   1.012  14.626  0.7763  0.4981 -0.5456
 2396TIP3    H128603   0.397   1.075  14.629 -0.1193 -0.5353  0.4529
 2396TIP3    H228604   0.544   1.060  14.661  0.6444  1.6266 -1.7033
 2397TIP3   OH228605   5.070   1.758   3.331 -0.1021 -0.2252  0.3495
 2397TIP3    H128606   5.078   1.711   3.413 -0.4827  0.1403  0.6025
 2397TIP3    H228607   5.009   1.706   3.279  0.5062 -0.7074  0.1092
 2398TIP3   OH228608   1.146   1.852  13.268  0.3438 -0.4058  0.0276
 2398TIP3    H128609   1.204   1.891  13.202 -0.3842 -0.8590 -0.9143
 2398TIP3    H228610   1.204   1.802  13.324  0.9448 -0.3396 -0.5172
 2399TIP3   OH228611   0.569   3.393  14.801  0.0924  0.6183  0.2476
 2399TIP3    H128612   0.515   3.432  14.869 -0.6810  0.6149 -0.3465
 2399TIP3    H228613   0.610   3.318  14.842  0.5460  1.2801  1.0288
 2400TIP3   OH228614   2.328   6.162  13.971  0.1959 -0.0930 -0.6340
 2400TIP3    H128615   2.397   6.096  13.981  0.9937  0.9314  1.0436
 2400TIP3    H228616   2.297   6.178  14.060 -3.4403 -1.6858 -1.4146
 2401TIP3   OH228617   0.632   0.594   0.728 -0.0656 -0.2899 -0.1468
 2401TIP3    H128618   0.653   0.600   0.635  0.7063 -1.1356 -0.0406
 2401TIP3    H228619   0.573   0.519   0.735 -0.2557 -0.1249  0.0188
 2402TIP3   OH228620   5.075   0.088   4.389 -0.3351 -0.1340  0.0528
 2402TIP3    H128621   5.150   0.039   4.356  0.2781  1.0855 -0.4350
 2402TIP3    H228622   5.102   0.118   4.475 -0.0582  0.7109 -0.3182
 2403TIP3   OH228623   2.010   5.353   3.876  0.6374  0.2107  0.2200
 2403TIP3    H128624   1.954   5.318   3.807 -0.8999  4.6828 -1.1891
 2403TIP3    H228625   1.953   5.360   3.952  0.9900 -0.4609  0.5534
 2404TIP3   OH228626   4.999   6.617   6.545 -0.1721 -0.0125  0.5036
 2404TIP3    H128627   5.003   6.713   6.551 -0.2319  0.1721 -1.5032
 2404TIP3    H228628   4.956   6.601   6.461 -1.0517 -1.8209  1.2577
 2405TIP3   OH228629   6.182   3.504  15.761 -0.3234  0.5573  0.3859
 2405TIP3    H128630   6.192   3.441  15.832 -1.7130  1.3119  1.2894
 2405TIP3    H228631   6.122   3.570  15.795 -1.2045  0.8384 -1.5553
 2406TIP3   OH228632   4.160   3.647   0.608  0.0648 -0.0220  0.0814
 2406TIP3    H128633   4.118   3.705   0.672  1.0202  0.0954  0.6134
 2406TIP3    H228634   4.245   3.687   0.590  1.4146 -1.9846  1.6159
 2407TIP3   OH228635   2.201   1.149  15.243 -0.1257 -0.5945  0.3254
 2407TIP3    H128636   2.218   1.059  15.214 -2.1431 -0.1907 -2.5307
 2407TIP3    H228637   2.134   1.141  15.310 -0.1776 -1.2384  0.2039
 2408TIP3   OH228638   3.658   3.830  13.930  0.5565 -0.0791 -0.5436
 2408TIP3    H128639   3.609   3.749  13.943  1.9458 -0.8156  0.3266
 2408TIP3    H228640   3.630   3.887  14.001  0.4914 -0.2565 -0.4260
 2409TIP3   OH228641   4.282   0.942  15.433 -0.2333 -0.0049 -0.4232
 2409TIP3    H128642   4.282   1.035  15.456  0.7560  0.1625 -1.0621
 2409TIP3    H228643   4.223   0.902  15.498 -0.0486  0.9395  0.3541
 2410TIP3   OH228644   6.559   4.550  15.778  0.6086 -0.0027  1.0859
 2410TIP3    H128645   6.595   4.636  15.800  1.9934 -0.1855 -0.2905
 2410TIP3    H228646   6.464   4.561  15.784  0.7799  1.5215  1.2772
 2411TIP3   OH228647   3.484   5.451  12.403 -0.5833 -0.2528  0.0258
 2411TIP3    H128648   3.436   5.412  12.329 -2.3092  1.4568  0.1792
 2411TIP3    H228649   3.570   5.409  12.400 -0.4329  0.0544 -3.2227
 2412TIP3   OH228650   1.026   2.783   3.430  0.0557  0.8711  0.0749
 2412TIP3    H128651   1.013   2.692   3.454  2.6245  0.9412  2.2817
 2412TIP3    H228652   0.938   2.818   3.417 -0.9970 -2.0549 -1.8089
 2413TIP3   OH228653   6.640   1.063   2.714  0.3262  0.3345 -0.1093
 2413TIP3    H128654   6.589   1.034   2.638  0.2634  0.7525 -0.2317
 2413TIP3    H228655   6.678   1.146   2.686  0.6691  0.2718  0.1612
 2414TIP3   OH228656   6.748   6.370   4.400  0.1199 -0.6147 -0.3310
 2414TIP3    H128657   6.678   6.306   4.388 -1.0993  0.7708 -0.9717
 2414TIP3    H228658   6.709   6.438   4.456  1.9366 -1.2119  1.8043
 2415TIP3   OH228659   0.095   6.049   4.714 -0.1301  0.3997 -0.6040
 2415TIP3    H128660   0.005   6.074   4.735 -0.8353 -1.5769 -1.1175
 2415TIP3    H228661   0.118   5.982   4.778  1.3761  1.5793  0.1549
 2416TIP3   OH228662   3.968   3.098   2.592 -0.1463  0.3606 -0.7440
 2416TIP3    H128663   3.882   3.062   2.569 -1.6529  1.7951  2.0065
 2416TIP3    H228664   3.969   3.096   2.688  2.8010  0.7185 -0.6882
 2417TIP3   OH228665   3.323   4.832   1.103 -0.5539  0.2418 -0.1526
 2417TIP3    H128666   3.280   4.884   1.171  1.5265  1.9147 -0.0086
 2417TIP3    H228667   3.368   4.897   1.049  0.8616 -1.3197 -0.9354
 2418TIP3   OH228668   1.015   6.488   3.205 -0.1760  0.3358 -0.6761
 2418TIP3    H128669   0.922   6.508   3.212 -0.1180  0.5803 -0.5689
 2418TIP3    H228670   1.058   6.562   3.248  0.0249 -0.3443  0.3319
 2419TIP3   OH228671   1.453   4.933   0.381 -0.6811 -0.0841 -0.4656
 2419TIP3    H128672   1.544   4.944   0.408  0.5217 -1.0152 -3.6345
 2419TIP3    H228673   1.445   4.839   0.365 -2.4052 -0.0906  0.2267
 2420TIP3   OH228674   0.813   0.511  15.129  0.2575 -0.3077  0.5693
 2420TIP3    H128675   0.777   0.521  15.041  0.4761  0.6420  0.5847
 2420TIP3    H228676   0.782   0.587  15.178  0.9603 -0.3090  1.0321
 2421TIP3   OH228677   5.461   0.841  15.640  0.2337  0.7528  0.0377
 2421TIP3    H128678   5.540   0.788  15.628 -0.5748 -0.1162 -1.8002
 2421TIP3    H228679   5.395   0.779  15.671  0.0244  1.3076  0.7440
 2422TIP3   OH228680   2.795   0.359  12.463 -0.5411  0.3106 -0.9546
 2422TIP3    H128681   2.804   0.267  12.438  2.1797 -0.1162  1.1204
 2422TIP3    H228682   2.792   0.406  12.380 -1.1671 -1.5828 -2.0661
 2423TIP3   OH228683   0.602   3.829   3.065 -0.8671  0.0306  0.2442
 2423TIP3    H128684   0.520   3.786   3.091 -0.2911 -0.1037  1.9531
 2423TIP3    H228685   0.581   3.923   3.067 -0.5780  0.1110  2.4255
 2424TIP3   OH228686   2.178   1.549  16.904  0.4281 -0.3510  0.4459
 2424TIP3    H128687   2.235   1.473  16.895  2.7931  1.4634 -1.1250
 2424TIP3    H228688   2.127   1.551  16.822  0.1318 -0.4129  0.6278
 2425TIP3   OH228689   1.198   4.756  12.197 -0.0828  0.2027 -0.6521
 2425TIP3    H128690   1.234   4.667  12.188  2.3905  1.1628 -1.2329
 2425TIP3    H228691   1.221   4.782  12.286 -3.2137 -0.6235  0.5104
 2426TIP3   OH228692   5.272   4.062   5.695  0.1455 -0.5683 -0.1838
 2426TIP3    H128693   5.296   3.984   5.644  2.1498 -0.5819  0.6908
 2426TIP3    H228694   5.249   4.028   5.781  2.0744 -0.1710  0.5357
 2427TIP3   OH228695   0.157   0.460  15.426 -0.4230  0.5344 -0.3760
 2427TIP3    H128696   0.102   0.492  15.497  0.4438 -0.2157  0.6756
 2427TIP3    H228697   0.234   0.424  15.470  1.2114  2.1002 -1.8342
 2428TIP3   OH228698   0.708   0.670  14.108 -0.0769 -0.4367 -0.4662
 2428TIP3    H128699   0.725   0.694  14.199  0.2881 -0.5811 -0.4931
 2428TIP3    H228700   0.616   0.692  14.094  0.2437  0.9271 -0.4942
 2429TIP3   OH228701   0.114   0.870  10.971 -0.0725  0.1546 -0.1948
 2429TIP3    H128702   0.039   0.813  10.987  0.2758 -0.2631 -0.0166
 2429TIP3    H228703   0.111   0.888  10.877 -0.6883  0.5644 -0.0998
 2430TIP3   OH228704   3.533   5.706   4.588 -0.1967  0.1183  0.2499
 2430TIP3    H128705   3.486   5.746   4.661  1.3384  1.2414  0.6936
 2430TIP3    H228706   3.615   5.674   4.627 -0.0025 -0.5894 -0.7092
 2431TIP3   OH228707   6.698   0.079   5.070 -0.1747 -0.3841  0.1223
 2431TIP3    H128708   6.641   0.155   5.086 -0.4669 -0.4299 -0.6322
 2431TIP3    H228709   6.787   0.112   5.083 -0.2051  0.4953 -1.6373
 2432TIP3   OH228710   6.530   3.114   2.392 -0.4992 -0.1376 -0.0670
 2432TIP3    H128711   6.544   3.114   2.298 -3.7583  1.0126 -0.6930
 2432TIP3    H228712   6.483   3.032   2.410  0.8139 -0.7452  0.7378
 2433TIP3   OH228713   6.150   1.721   1.591  0.0404  0.2775  0.5253
 2433TIP3    H128714   6.226   1.778   1.588  0.4053 -0.1201  1.6792
 2433TIP3    H228715   6.090   1.764   1.652 -0.9277  0.8838 -0.8096
 2434TIP3   OH228716   5.886   1.599   5.665 -0.4932 -0.2890  0.4189
 2434TIP3    H128717   5.873   1.533   5.734  1.4891 -0.9598  0.2049
 2434TIP3    H228718   5.950   1.659   5.701  0.7155 -0.7551 -0.8769
 2435TIP3   OH228719   5.127   6.343   5.143  0.1795 -0.5362  0.8417
 2435TIP3    H128720   5.148   6.427   5.185  1.1883 -1.0606  1.4223
 2435TIP3    H228721   5.171   6.278   5.198 -0.6522 -1.4519  0.4305
 2436TIP3   OH228722   5.583   1.408   5.354  0.7223  0.1369 -0.1113
 2436TIP3    H128723   5.596   1.485   5.409  1.3080  1.1643 -1.6229
 2436TIP3    H228724   5.624   1.336   5.403  1.8016  1.1416  0.4961
 2437TIP3   OH228725   2.770   0.057   4.170 -0.1614 -0.1343 -0.5511
 2437TIP3    H128726   2.789   0.132   4.115 -0.3911 -0.2429 -0.7779
 2437TIP3    H228727   2.754  -0.015   4.109 -4.6857  0.6350 -0.6154
 2438TIP3   OH228728   1.632   3.286  15.804  0.9616  0.5370  0.2455
 2438TIP3    H128729   1.591   3.369  15.780  0.1219  0.2952  0.7893
 2438TIP3    H228730   1.721   3.310  15.831  0.8432  1.2135  0.0571
 2439TIP3   OH228731   1.870   1.740   0.336  0.0820  0.3595  0.1422
 2439TIP3    H128732   1.780   1.733   0.369 -0.5744 -1.9910 -1.8344
 2439TIP3    H228733   1.876   1.672   0.269  2.9819  1.2909 -0.6812
 2440TIP3   OH228734   4.501   4.968  13.345  0.1372 -0.4203 -0.1767
 2440TIP3    H128735   4.458   5.008  13.269 -1.0291 -0.4340  0.4467
 2440TIP3    H228736   4.594   4.968  13.323 -0.3042 -2.1889 -2.4368
 2441TIP3   OH228737   3.826   4.973  12.467 -0.1091  0.3796 -0.1526
 2441TIP3    H128738   3.836   4.984  12.373 -2.9135  0.1203 -0.5865
 2441TIP3    H228739   3.837   4.879  12.482 -0.9035  0.2313 -0.4518
 2442TIP3   OH228740   5.412   3.548   2.194  0.0743 -0.1376 -0.2340
 2442TIP3    H128741   5.386   3.456   2.184 -1.7258  0.5484 -3.0052
 2442TIP3    H228742   5.428   3.578   2.104  1.5881  2.0422  0.6829
 2443TIP3   OH228743   6.690   4.872   1.466  0.2360 -0.0992 -0.8847
 2443TIP3    H128744   6.600   4.843   1.482  0.2166  1.3119  2.2479
 2443TIP3    H228745   6.745   4.810   1.514  0.8134  0.2384 -1.0976
 2444TIP3   OH228746   5.597   3.105   1.347  0.1501  0.9335  0.2242
 2444TIP3    H128747   5.589   3.165   1.422 -1.1571  1.1084 -0.0380
 2444TIP3    H228748   5.508   3.074   1.331  0.4803  0.5607 -0.9913
 2445TIP3   OH228749   4.443   1.297  12.390  0.0904  0.0567 -0.4446
 2445TIP3    H128750   4.368   1.273  12.444  1.4276 -0.6775  1.1704
 2445TIP3    H228751   4.411   1.371  12.336 -1.4035  0.5846  1.0708
 2446TIP3   OH228752   5.892   0.756   0.420 -0.0935  0.2869  0.3657
 2446TIP3    H128753   5.950   0.765   0.344  1.1077  0.0277  1.2125
 2446TIP3    H228754   5.943   0.792   0.492 -1.2089  0.5036  1.0604
 2447TIP3   OH228755   5.081   5.027  15.627 -0.1376 -0.6758  0.0542
 2447TIP3    H128756   4.989   5.004  15.613  0.3240 -1.1306 -2.5826
 2447TIP3    H228757   5.103   5.086  15.555  1.9121 -1.3664  0.0495
 2448TIP3   OH228758   6.420   3.144   1.849  0.6105  0.4058  0.5547
 2448TIP3    H128759   6.447   3.053   1.864  0.0249  0.2189  0.5150
 2448TIP3    H228760   6.499   3.195   1.864  1.3023 -0.2193 -0.7334
 2449TIP3   OH228761   0.256   0.524  14.433 -0.0032 -0.0663  0.0894
 2449TIP3    H128762   0.300   0.442  14.411  0.8116  0.6447 -1.0163
 2449TIP3    H228763   0.170   0.497  14.464 -0.1013 -1.2966 -1.1506
 2450TIP3   OH228764   1.128   3.272  11.178  0.1749  0.0749 -0.2685
 2450TIP3    H128765   1.048   3.221  11.174 -0.8300  1.6057 -3.7059
 2450TIP3    H228766   1.197   3.210  11.151 -0.3722 -0.4751 -0.4308
 2451TIP3   OH228767   0.401   3.930  16.172  0.4668 -0.0680  0.0667
 2451TIP3    H128768   0.449   4.010  16.192 -1.0986  0.8678  0.2943
 2451TIP3    H228769   0.350   3.952  16.094  1.1065 -1.3478 -0.7546
 2452TIP3   OH228770   2.459   2.601  13.966  0.1844 -0.3872  0.0154
 2452TIP3    H128771   2.514   2.583  14.042  2.0454 -3.5064 -1.8063
 2452TIP3    H228772   2.400   2.526  13.961 -0.9242  0.5068 -0.8174
 2453TIP3   OH228773   0.094   5.369   4.205  0.0184  0.2329  1.3421
 2453TIP3    H128774   0.094   5.370   4.301  1.6902 -0.4879  1.3855
 2453TIP3    H228775   0.186   5.383   4.181 -0.5483  1.6292 -0.2003
 2454TIP3   OH228776   4.898   1.143  15.429  0.1983  0.1469  0.3367
 2454TIP3    H128777   4.875   1.137  15.336  0.3656 -0.0349  0.3073
 2454TIP3    H228778   4.993   1.144  15.431  0.2344 -1.4622  0.5937
 2455TIP3   OH228779   2.830   6.417  11.787  0.0778 -0.0576  0.2369
 2455TIP3    H128780   2.795   6.334  11.818  2.0315 -1.1027 -0.1688
 2455TIP3    H228781   2.873   6.455  11.863 -0.4314  0.3819  0.3107
 2456TIP3   OH228782   4.362   5.320   5.399 -0.8319 -0.5325 -0.0532
 2456TIP3    H128783   4.345   5.245   5.456 -0.1785 -1.0287 -0.4915
 2456TIP3    H228784   4.407   5.283   5.323  1.2301  0.5131  0.5687
 2457TIP3   OH228785   6.401   5.665   1.255 -0.3621  0.1870  0.2088
 2457TIP3    H128786   6.429   5.579   1.287  0.3660  0.8995  1.5689
 2457TIP3    H228787   6.408   5.722   1.331 -2.0197  1.2075 -0.3600
 2458TIP3   OH228788   3.390   5.294  16.748 -0.2054  0.3733 -0.7078
 2458TIP3    H128789   3.434   5.310  16.832 -1.5365  1.9909 -0.2483
 2458TIP3    H228790   3.415   5.369  16.693 -0.9066  0.3651 -1.0506
 2459TIP3   OH228791   5.034   3.004  12.925 -0.0575 -0.0702 -0.3882
 2459TIP3    H128792   4.966   3.024  12.990  2.5026  0.3479  2.4324
 2459TIP3    H228793   5.062   2.915  12.947  0.6943 -0.0219 -1.1033
 2460TIP3   OH228794   4.026   3.599  14.408 -0.2008 -0.1420 -0.1080
 2460TIP3    H128795   4.084   3.675  14.413 -0.9936  0.5526 -1.0714
 2460TIP3    H228796   4.049   3.546  14.484 -0.4017  1.6246  1.2470
 2461TIP3   OH228797   2.361   2.545  14.326  0.0522 -0.4756  0.4570
 2461TIP3    H128798   2.412   2.464  14.322  1.7509  0.5310  0.3357
 2461TIP3    H228799   2.357   2.576  14.236 -0.5591 -0.4036  0.5051
 2462TIP3   OH228800   2.469   5.809  13.511  0.0246  0.4832 -0.2963
 2462TIP3    H128801   2.494   5.737  13.568  1.1432  2.0725  1.3073
 2462TIP3    H228802   2.381   5.786  13.481  0.5693 -1.7947 -0.3210
 2463TIP3   OH228803   3.246   3.321   5.014 -0.3676 -0.0495  0.5544
 2463TIP3    H128804   3.289   3.325   4.929 -0.0569  0.9564  0.7567
 2463TIP3    H228805   3.246   3.227   5.036  0.7106 -0.1797  0.0506
 2464TIP3   OH228806   5.101   4.480  16.369  0.7914 -0.3216 -0.3398
 2464TIP3    H128807   5.173   4.539  16.348  1.6077 -1.0500  0.2998
 2464TIP3    H228808   5.045   4.480  16.291  1.2368  0.6125 -0.6632
 2465TIP3   OH228809   3.253   4.621  12.557  0.5915  0.1788  0.5843
 2465TIP3    H128810   3.297   4.698  12.522 -0.5132  1.8643  2.6960
 2465TIP3    H228811   3.160   4.636  12.539  0.5143 -1.8596 -1.0875
 2466TIP3   OH228812   3.021   1.081  11.104 -0.3073  0.2166 -0.3602
 2466TIP3    H128813   2.932   1.100  11.076  0.1966  2.0860 -0.8467
 2466TIP3    H228814   3.074   1.148  11.061  0.8323  1.7045  3.0511
 2467TIP3   OH228815   1.522   2.841   6.406  0.1136 -0.0679 -0.0475
 2467TIP3    H128816   1.446   2.803   6.451 -0.0650  0.9548  0.5356
 2467TIP3    H228817   1.521   2.933   6.431  1.2292  0.0751 -0.4872
 2468TIP3   OH228818   0.277   1.287  12.114  0.2407  0.0324 -0.5627
 2468TIP3    H128819   0.366   1.320  12.127  0.0811  0.8279 -1.3975
 2468TIP3    H228820   0.273   1.207  12.167  2.1632 -1.2347 -2.1846
 2469TIP3   OH228821   6.506   6.679   5.422 -0.4322  0.5122 -0.2714
 2469TIP3    H128822   6.600   6.698   5.415 -0.6224  1.2717 -0.8747
 2469TIP3    H228823   6.474   6.744   5.485 -0.5316  0.1659  0.0368
 2470TIP3   OH228824   2.082   5.482  12.504  0.5629 -0.3729  0.2441
 2470TIP3    H128825   1.996   5.469  12.545  1.5677 -0.7665  2.3940
 2470TIP3    H228826   2.138   5.512  12.575  2.0207  0.7615 -1.3083
 2471TIP3   OH228827   2.281   0.041   3.007  0.1956 -0.1231  0.5200
 2471TIP3    H128828   2.221  -0.033   3.011 -0.9451  0.7329 -0.1889
 2471TIP3    H228829   2.231   0.115   3.043  0.3115  0.9125 -1.3061
 2472TIP3   OH228830   2.150   6.376  15.022  0.2502  0.0830  0.4671
 2472TIP3    H128831   2.060   6.350  15.045  0.2323  0.5775  0.9866
 2472TIP3    H228832   2.143   6.470  15.005  0.8726  0.3560  1.6301
 2473TIP3   OH228833   1.405   5.959  13.820 -0.1044  0.6517  0.1213
 2473TIP3    H128834   1.401   6.024  13.890 -1.8980  1.1427 -0.3743
 2473TIP3    H228835   1.315   5.954  13.787 -0.0785 -2.1718  0.2150
 2474TIP3   OH228836   1.971   5.604  12.291  0.8750  0.3523 -0.2375
 2474TIP3    H128837   2.034   5.674  12.309  1.9382 -0.0039 -2.2397
 2474TIP3    H228838   2.020   5.523  12.308 -0.0574  0.0516  1.1794
 2475TIP3   OH228839   3.628   6.585   6.504 -0.0954 -0.1375  0.4376
 2475TIP3    H128840   3.603   6.676   6.485  0.5714  0.3965  1.9686
 2475TIP3    H228841   3.575   6.561   6.580 -0.7658 -1.2836 -0.3739
 2476TIP3   OH228842   2.152   5.161   4.737  0.0219  0.0783  0.3899
 2476TIP3    H128843   2.155   5.126   4.648  1.9776  1.1060 -0.0037
 2476TIP3    H228844   2.239   5.199   4.750 -0.1612 -0.1940  2.8078
 2477TIP3   OH228845   1.271   1.076   3.014 -0.0502  0.2330  0.0824
 2477TIP3    H128846   1.280   1.169   3.035  2.9841  0.5962 -2.1420
 2477TIP3    H228847   1.306   1.030   3.091  0.2513  1.0040  0.4130
 2478TIP3   OH228848   2.998   5.445  11.725  0.2420  0.2674 -0.5456
 2478TIP3    H128849   3.037   5.468  11.809 -1.7966  1.1538  0.2220
 2478TIP3    H228850   2.984   5.528  11.681  0.7646 -0.1561 -1.5446
 2479TIP3   OH228851   6.172   4.591  14.761 -0.0693  0.4053  0.0903
 2479TIP3    H128852   6.262   4.613  14.783 -0.2538  0.8022  0.4729
 2479TIP3    H228853   6.142   4.537  14.834 -0.9961  2.5370  1.3858
 2480TIP3   OH228854   1.940   6.352   4.161 -0.0749 -0.3599  0.0477
 2480TIP3    H128855   1.907   6.318   4.244 -0.5045 -0.4013 -0.1337
 2480TIP3    H228856   1.867   6.405   4.127  0.4350  0.4059  0.1335
 2481TIP3   OH228857   5.873   1.081   5.039  0.6202  0.2161  0.0730
 2481TIP3    H128858   5.920   1.116   5.115 -1.4285  1.8390  0.6929
 2481TIP3    H228859   5.938   1.029   4.992  1.4326 -2.9562  4.1706
 2482TIP3   OH228860   3.624   0.183  15.741  0.4332  0.2295 -0.1063
 2482TIP3    H128861   3.674   0.263  15.761  0.5337  0.3215 -0.7289
 2482TIP3    H228862   3.533   0.206  15.761  0.6530 -0.0434  1.3659
 2483TIP3   OH228863   5.639   5.752   0.612 -0.4542  0.0321  0.4405
 2483TIP3    H128864   5.557   5.793   0.584 -0.6511 -0.4137  0.3562
 2483TIP3    H228865   5.620   5.717   0.699 -0.8263 -1.4107 -0.1978
 2484TIP3   OH228866   2.992   6.008  11.057 -0.0043 -0.4906  0.9688
 2484TIP3    H128867   2.940   5.930  11.039  0.0091 -0.3513  0.3031
 2484TIP3    H228868   3.083   5.977  11.058 -0.0919 -0.7686  2.3190
 2485TIP3   OH228869   5.163   2.765  15.209  0.0805 -0.4722  0.9150
 2485TIP3    H128870   5.068   2.776  15.213 -0.0674 -1.5099  0.6308
 2485TIP3    H228871   5.176   2.698  15.142  1.1293  0.9036 -0.3132
 2486TIP3   OH228872   4.803   3.255  11.460  0.2698  0.1976 -0.2367
 2486TIP3    H128873   4.894   3.262  11.490 -0.2874  1.9252  1.2551
 2486TIP3    H228874   4.769   3.344  11.466 -2.2295 -0.7706  1.6654
 2487TIP3   OH228875   1.080   5.369   4.419 -0.3009 -0.6868  0.1794
 2487TIP3    H128876   1.063   5.458   4.387 -0.5418 -1.1924 -1.1454
 2487TIP3    H228877   1.107   5.382   4.510 -1.7839  0.6160  0.4731
 2488TIP3   OH228878   2.799   2.988   5.402  0.2564 -0.5481 -0.4545
 2488TIP3    H128879   2.710   2.966   5.376  0.9588  0.0020 -3.7064
 2488TIP3    H228880   2.801   3.083   5.405  0.7257 -0.5567 -0.4154
 2489TIP3   OH228881   0.471   0.254   4.590  0.0321 -0.0671  0.3181
 2489TIP3    H128882   0.401   0.269   4.654  0.3684  3.0329  0.1414
 2489TIP3    H228883   0.431   0.273   4.506  0.2724 -1.5909 -0.1735
 2490TIP3   OH228884   0.857   4.519   5.172 -0.4732 -0.8803 -0.0904
 2490TIP3    H128885   0.798   4.550   5.241  1.9381  1.1576  1.2198
 2490TIP3    H228886   0.897   4.440   5.208  0.6689  0.0965  0.8846
 2491TIP3   OH228887   2.084   2.310   1.839  0.3474  0.3295 -0.2022
 2491TIP3    H128888   2.060   2.347   1.924  0.1296 -0.4432  0.0843
 2491TIP3    H228889   2.129   2.380   1.793 -0.3029  1.0319  0.2177
 2492TIP3   OH228890   6.496   1.618   0.499  0.2602  0.3988  0.4311
 2492TIP3    H128891   6.589   1.607   0.480  0.1325  0.1020 -0.0294
 2492TIP3    H228892   6.484   1.582   0.587  0.7901  1.4664  0.9649
 2493TIP3   OH228893   0.647   3.977   4.423  0.3064 -0.1433  0.1136
 2493TIP3    H128894   0.707   4.046   4.450 -0.2295 -0.3388  1.9415
 2493TIP3    H228895   0.560   4.018   4.425 -0.0412 -0.8821  1.4023
 2494TIP3   OH228896   3.358   0.833   0.601 -0.3550 -0.1554  0.0500
 2494TIP3    H128897   3.388   0.751   0.561  0.2933  0.5393 -0.9354
 2494TIP3    H228898   3.280   0.857   0.550 -0.0927  0.2323 -0.1728
 2495TIP3   OH228899   5.239   5.035   6.333  0.2474 -0.1345  0.0555
 2495TIP3    H128900   5.145   5.048   6.319 -0.3188 -1.6871  1.8791
 2495TIP3    H228901   5.277   5.122   6.327 -1.0890  0.3892 -1.9533
 2496TIP3   OH228902   2.042   2.495  11.721 -0.1507 -0.0441 -0.2163
 2496TIP3    H128903   1.949   2.500  11.744 -0.0266 -0.9220  0.5000
 2496TIP3    H228904   2.074   2.584  11.736 -1.1057  0.5706 -1.5614
 2497TIP3   OH228905   3.838   5.865   5.235  0.1092 -0.5011  0.1259
 2497TIP3    H128906   3.800   5.930   5.176 -2.3539 -0.8331  1.2330
 2497TIP3    H228907   3.861   5.791   5.179  0.0138  0.0991 -0.7194
 2498TIP3   OH228908   5.794   2.040  13.621  0.3278 -0.0789 -0.1461
 2498TIP3    H128909   5.831   2.035  13.710 -1.5561 -1.1056  0.6373
 2498TIP3    H228910   5.850   2.103  13.576  0.7447  1.2787  2.0776
 2499TIP3   OH228911   0.212   2.345   0.692 -0.6570 -0.3435  0.0555
 2499TIP3    H128912   0.144   2.361   0.757  0.2778 -0.7422  1.1544
 2499TIP3    H228913   0.197   2.254   0.665  0.5094 -1.0456  1.6351
 2500TIP3   OH228914   2.424   0.069  16.203 -0.6955  0.0401 -0.1141
 2500TIP3    H128915   2.367   0.017  16.146 -0.7964  0.2987 -0.2498
 2500TIP3    H228916   2.498   0.093  16.148 -1.1154  0.8595 -0.3406
 2501TIP3   OH228917   6.320   4.429   2.629  0.4699  0.1181  0.4852
 2501TIP3    H128918   6.324   4.338   2.659 -2.9368  0.1017  1.2889
 2501TIP3    H228919   6.303   4.480   2.709  1.2551  1.3914 -0.1090
 2502TIP3   OH228920   3.363   1.657   6.121  0.1240 -0.0955 -0.1669
 2502TIP3    H128921   3.278   1.620   6.147  0.6287 -0.4080  1.1264
 2502TIP3    H228922   3.345   1.703   6.039 -1.3978  0.2553  0.3326
 2503TIP3   OH228923   1.356   1.428   0.252 -0.1329 -0.2396  0.1441
 2503TIP3    H128924   1.357   1.488   0.177 -0.7949 -0.1463  0.2042
 2503TIP3    H228925   1.264   1.407   0.264 -0.0310 -0.2477  0.9378
 2504TIP3   OH228926   2.538   2.585   4.148 -0.1735  0.0304 -0.0267
 2504TIP3    H128927   2.628   2.602   4.121 -0.4219 -0.2420 -1.0473
 2504TIP3    H228928   2.546   2.515   4.213  0.3066 -0.3573 -0.4921
 2505TIP3   OH228929   1.841   5.940   1.872 -0.0527  0.3592  0.2030
 2505TIP3    H128930   1.879   6.028   1.881  0.5996 -0.0092  1.2535
 2505TIP3    H228931   1.752   5.948   1.906  0.3624  0.3857  1.3151
 2506TIP3   OH228932   3.426   4.767  14.837 -0.5855 -0.2483  0.3851
 2506TIP3    H128933   3.468   4.795  14.918 -2.1424  0.2584  1.0685
 2506TIP3    H228934   3.458   4.828  14.771  2.3481 -1.9294  0.0657
 2507TIP3   OH228935   4.851   0.572   1.900  0.0124 -0.1901 -0.4366
 2507TIP3    H128936   4.885   0.593   1.987 -0.2865 -1.5538  0.0286
 2507TIP3    H228937   4.922   0.524   1.857  0.5679  1.3970 -1.3689
 2508TIP3   OH228938   3.683   2.336  11.693 -0.4710  0.1583 -0.2064
 2508TIP3    H128939   3.668   2.360  11.785 -2.1345  0.1365 -0.4427
 2508TIP3    H228940   3.654   2.245  11.688  2.0159 -0.7027 -0.2197
 2509TIP3   OH228941   5.849   0.621  10.806 -0.1808  0.5322  0.0691
 2509TIP3    H128942   5.944   0.627  10.804 -0.0480 -0.4354  1.8189
 2509TIP3    H228943   5.830   0.527  10.810 -1.3104  0.6002 -2.1060
 2510TIP3   OH228944   2.426   5.542   2.019 -0.5671  0.0694  0.6580
 2510TIP3    H128945   2.522   5.534   2.018 -0.6054 -0.3819  0.1518
 2510TIP3    H228946   2.403   5.556   1.927 -0.9407  0.8222  0.8554
 2511TIP3   OH228947   4.579   0.026   0.138  0.2838 -0.4974 -0.4289
 2511TIP3    H128948   4.624   0.062   0.062 -1.5723  2.6680 -0.2239
 2511TIP3    H228949   4.627   0.060   0.214  0.0396 -0.6670 -0.1940
 2512TIP3   OH228950   2.297   3.201  16.331 -0.0931  0.0677 -0.5437
 2512TIP3    H128951   2.309   3.251  16.250 -0.3750  1.1261  0.0456
 2512TIP3    H228952   2.246   3.125  16.304  1.3552 -0.5533 -1.6814
 2513TIP3   OH228953   2.724   0.189   0.607  0.8512 -0.0542  0.2924
 2513TIP3    H128954   2.761   0.254   0.667  3.4043  0.4630 -1.6376
 2513TIP3    H228955   2.679   0.127   0.663 -0.5893  2.6254  2.3465
 2514TIP3   OH228956   5.586   1.119   0.745  0.2829  0.0449  0.8449
 2514TIP3    H128957   5.662   1.152   0.793  2.7151 -1.5098 -1.6390
 2514TIP3    H228958   5.583   1.173   0.665 -0.6390 -0.5544  0.4585
 2515TIP3   OH228959   3.388   0.488  12.121 -0.0187  0.1157  0.5807
 2515TIP3    H128960   3.388   0.502  12.216  1.2738  0.7138  0.5146
 2515TIP3    H228961   3.480   0.496  12.096 -0.0569 -1.9546 -0.4614
 2516TIP3   OH228962   4.504   5.031   4.900  0.1469 -0.3775  0.3368
 2516TIP3    H128963   4.501   4.979   4.980  0.0043  1.3871  1.5289
 2516TIP3    H228964   4.597   5.031   4.875  0.4171  0.1817  1.2867
 2517TIP3   OH228965   3.570   1.960   4.573  0.2428 -0.4450  0.1760
 2517TIP3    H128966   3.540   1.997   4.656  0.6748 -0.0418  0.1566
 2517TIP3    H228967   3.608   1.875   4.596 -0.4472 -0.7311  0.2685
 2518TIP3   OH228968   3.235   3.621   4.838 -0.8312 -0.2301  0.2541
 2518TIP3    H128969   3.208   3.656   4.922  0.7235  0.0488  0.6739
 2518TIP3    H228970   3.158   3.629   4.782 -0.8089  3.3216  0.4976
 2519TIP3   OH228971   1.678   3.112   4.688  0.4554  0.0418 -0.3869
 2519TIP3    H128972   1.668   3.125   4.783 -0.2502 -0.5358 -0.3684
 2519TIP3    H228973   1.768   3.082   4.677  0.3395 -0.5461  0.1915
 2520TIP3   OH228974   5.144   6.524  11.757  0.1484 -0.2187  0.3460
 2520TIP3    H128975   5.140   6.525  11.661 -1.5238 -0.2239  0.3870
 2520TIP3    H228976   5.189   6.442  11.778 -0.1071 -0.5676 -0.4276
 2521TIP3   OH228977   2.881   0.391   2.303  0.0724  0.2560 -0.2262
 2521TIP3    H128978   2.837   0.476   2.294  0.7954  0.4892 -1.9849
 2521TIP3    H228979   2.962   0.411   2.350  0.2570  0.5557 -0.6630
 2522TIP3   OH228980   3.299   0.673  16.304 -0.3446 -0.7619 -0.1592
 2522TIP3    H128981   3.291   0.651  16.397  1.0185 -0.4093  0.0711
 2522TIP3    H228982   3.261   0.760  16.297  0.4855 -0.3446  0.2953
 2523TIP3   OH228983   2.137   6.124   5.552  0.1669  0.6412 -0.2158
 2523TIP3    H128984   2.135   6.075   5.634  0.0988 -0.4852 -0.8694
 2523TIP3    H228985   2.053   6.169   5.549 -0.0677  0.2295  0.0688
 2524TIP3   OH228986   3.251   4.901   3.398 -0.3482 -0.4738  0.5195
 2524TIP3    H128987   3.211   4.931   3.316 -1.8276 -0.6898  1.1292
 2524TIP3    H228988   3.300   4.977   3.430 -1.6186  0.3718  0.5557
 2525TIP3   OH228989   6.288   4.740  12.691  0.5993 -0.0055 -0.5260
 2525TIP3    H128990   6.316   4.659  12.734  0.2841 -1.1996 -2.4690
 2525TIP3    H228991   6.213   4.769  12.742  1.6392 -0.0690  1.1139
 2526TIP3   OH228992   3.205   3.536   2.561  0.8200 -0.4617  0.6474
 2526TIP3    H128993   3.119   3.568   2.587  1.2598  2.0984 -0.7091
 2526TIP3    H228994   3.206   3.444   2.589 -2.4727 -0.7170  0.3630
 2527TIP3   OH228995   6.136   1.879   5.673 -0.4061 -0.5034  0.1219
 2527TIP3    H128996   6.109   1.937   5.744 -1.3718  0.2976 -0.8731
 2527TIP3    H228997   6.214   1.920   5.636 -1.5133  0.6274 -1.0662
 2528TIP3   OH228998   4.354   4.087   4.952  0.6250  0.6206 -0.3746
 2528TIP3    H128999   4.438   4.052   4.922  0.6115  1.3489 -1.3333
 2528TIP3    H229000   4.312   4.014   4.998  2.0118  0.4135  0.6238
 2529TIP3   OH229001   0.366   0.899  15.887 -0.3347 -0.0321  0.1299
 2529TIP3    H129002   0.411   0.840  15.948 -0.5061 -0.2492  0.0471
 2529TIP3    H229003   0.435   0.932  15.830 -0.2228 -0.0700  0.2434
 2530TIP3   OH229004   3.649   1.320   3.795 -0.2329  0.5718  0.3090
 2530TIP3    H129005   3.563   1.324   3.753  0.4464  0.3631 -1.1750
 2530TIP3    H229006   3.705   1.374   3.740  1.0345 -0.9287  0.0395
 2531TIP3   OH229007   2.567   1.280   4.007  0.1941  0.4867 -0.6955
 2531TIP3    H129008   2.486   1.307   4.051  1.3228  1.4700  0.8732
 2531TIP3    H229009   2.544   1.199   3.963 -1.4619  0.3498  0.3248
 2532TIP3   OH229010   0.630   3.011  11.630  0.4353 -0.1938  0.1927
 2532TIP3    H129011   0.584   3.022  11.547  0.3747 -2.6675 -0.1560
 2532TIP3    H229012   0.709   3.065  11.620  0.5738 -0.6583 -1.5885
 2533TIP3   OH229013   0.632   3.669   2.389 -0.0298 -0.1279  0.1564
 2533TIP3    H129014   0.652   3.602   2.324 -1.3422 -2.2452  1.8137
 2533TIP3    H229015   0.716   3.687   2.431  0.4221 -0.3431 -0.6224
 2534TIP3   OH229016   0.507   1.952   2.207 -0.4931  0.1180 -0.3144
 2534TIP3    H129017   0.501   1.904   2.125 -1.6438  0.8885 -0.7127
 2534TIP3    H229018   0.470   1.893   2.273  0.6178 -0.5797 -0.2974
 2535TIP3   OH229019   1.229   0.932   1.779 -0.4108  0.3240 -0.1580
 2535TIP3    H129020   1.305   0.895   1.825  0.9056  1.6690 -1.1578
 2535TIP3    H229021   1.158   0.927   1.842  0.7544 -0.0627  1.1721
 2536TIP3   OH229022   1.265   3.702   6.436  0.0190 -0.3577 -0.2903
 2536TIP3    H129023   1.318   3.779   6.417 -0.5599  0.0251 -0.3694
 2536TIP3    H229024   1.178   3.724   6.404 -0.3584 -0.7000  0.4711
 2537TIP3   OH229025   2.637   6.103  11.130 -0.5235  0.6802 -0.1675
 2537TIP3    H129026   2.677   6.165  11.068 -1.1719  1.1366 -0.1356
 2537TIP3    H229027   2.647   6.018  11.088 -0.4670  0.9217 -0.6502
 2538TIP3   OH229028   6.128   5.343  12.056 -0.3431  0.0303 -0.0908
 2538TIP3    H129029   6.175   5.405  12.001 -0.0656 -0.5933 -0.5615
 2538TIP3    H229030   6.195   5.307  12.114 -0.3307 -0.5013 -0.4343
 2539TIP3   OH229031   0.647   6.263  12.490  0.0688  0.5708 -0.0333
 2539TIP3    H129032   0.580   6.329  12.506  0.8147  1.0818  1.1592
 2539TIP3    H229033   0.730   6.309  12.501  0.6345 -0.0751 -1.3677
 2540TIP3   OH229034   1.083   6.795  14.471  0.3594 -0.4330  0.2204
 2540TIP3    H129035   1.113   6.760  14.387  0.8712 -1.4878  0.8202
 2540TIP3    H229036   1.134   6.747  14.536 -2.4088 -2.1716  1.2917
 2541TIP3   OH229037   3.700   6.555   1.239 -0.9285 -0.1097  0.1584
 2541TIP3    H129038   3.719   6.482   1.297 -0.9397  1.1500  1.8198
 2541TIP3    H229039   3.783   6.602   1.231 -0.6677 -0.7847 -1.6934
 2542TIP3   OH229040   6.329   5.704  12.150  0.1955  0.0997 -0.0398
 2542TIP3    H129041   6.296   5.772  12.208 -2.2150 -1.0673  0.0570
 2542TIP3    H229042   6.302   5.622  12.191 -1.9631 -0.7862 -2.8967
 2543TIP3   OH229043   1.298   2.091  16.183 -0.2121 -0.8151 -0.3541
 2543TIP3    H129044   1.256   2.077  16.099 -0.0971  0.6939 -0.7007
 2543TIP3    H229045   1.260   2.173  16.215  0.0992 -1.1179  0.8351
 2544TIP3   OH229046   2.060   2.643  12.383 -0.1307 -0.4079 -0.2840
 2544TIP3    H129047   2.155   2.649  12.373 -0.1626 -0.1267 -0.4443
 2544TIP3    H229048   2.037   2.558  12.347 -0.1058  0.1213 -1.5911
 2545TIP3   OH229049   5.780   4.511  13.181  0.0155 -0.3503 -0.4577
 2545TIP3    H129050   5.689   4.517  13.152  0.8225  1.9330 -2.8562
 2545TIP3    H229051   5.778   4.544  13.271 -1.4800  0.1317 -0.6406
 2546TIP3   OH229052   3.048   5.331  12.392 -0.8651 -0.0685  0.4879
 2546TIP3    H129053   3.073   5.268  12.324 -0.9641 -0.5305  0.8727
 2546TIP3    H229054   3.130   5.355  12.435 -0.8363  0.0032  0.3922
 2547TIP3   OH229055   2.299   6.491   4.762 -0.9132  0.3296  0.3835
 2547TIP3    H129056   2.324   6.544   4.686  1.1484 -1.8930 -0.6212
 2547TIP3    H229057   2.353   6.524   4.834  1.1002 -0.9268 -0.4726
 2548TIP3   OH229058   0.179   5.370   2.275 -0.3022  0.8256  0.4883
 2548TIP3    H129059   0.140   5.356   2.361 -0.7412 -0.5932  0.0976
 2548TIP3    H229060   0.185   5.282   2.237 -0.6654  1.4662 -1.1490
 2549TIP3   OH229061   0.464   0.035   0.886 -0.2054  0.1571 -0.5103
 2549TIP3    H129062   0.474   0.112   0.830 -2.4430  0.1587 -1.0047
 2549TIP3    H229063   0.513  -0.034   0.840  1.2062  1.0691 -0.4370
 2550TIP3   OH229064   2.479   5.512   5.249  0.5500 -0.5252  0.1744
 2550TIP3    H129065   2.546   5.468   5.302  0.5425  0.3402  0.9085
 2550TIP3    H229066   2.421   5.554   5.313 -1.5860 -2.4495 -0.3442
 2551TIP3   OH229067   6.373   5.771  13.304  0.6945  0.3064 -0.2699
 2551TIP3    H129068   6.442   5.775  13.237  0.1217 -0.5240 -0.9322
 2551TIP3    H229069   6.393   5.843  13.363  0.2962  2.1444 -2.2372
 2552TIP3   OH229070   2.110   5.454   4.614 -0.0862 -0.1489 -0.4785
 2552TIP3    H129071   2.149   5.373   4.647  0.9190  0.3438 -0.4010
 2552TIP3    H229072   2.160   5.472   4.534  0.2809  0.8338 -0.0437
 2553TIP3   OH229073   1.450   1.775   4.763  0.6554 -0.1945 -0.5540
 2553TIP3    H129074   1.397   1.703   4.800  0.6130  0.0665 -0.1018
 2553TIP3    H229075   1.475   1.744   4.676  0.8045 -0.8445 -0.2853
 2554TIP3   OH229076   3.752   1.919  12.112  0.0773  0.1684  0.1511
 2554TIP3    H129077   3.804   1.977  12.056  0.2799 -0.1146  0.0425
 2554TIP3    H229078   3.790   1.833  12.098 -1.2942 -0.2776 -0.9810
 2555TIP3   OH229079   3.593   6.064   3.120 -0.0446 -0.0243 -0.2605
 2555TIP3    H129080   3.604   6.095   3.210 -1.3513 -0.0151 -0.0948
 2555TIP3    H229081   3.611   6.140   3.066  0.3267  0.0781 -0.0009
 2556TIP3   OH229082   0.769   3.606   1.039 -0.1115 -0.2229  0.2371
 2556TIP3    H129083   0.718   3.647   0.969 -2.8323 -0.1798  2.0859
 2556TIP3    H229084   0.761   3.512   1.022 -0.7907 -0.2146  0.4975
 2557TIP3   OH229085   6.391   0.077   5.573  0.0672 -0.5047 -0.0077
 2557TIP3    H129086   6.304   0.098   5.608 -0.3187 -0.6831 -0.8337
 2557TIP3    H229087   6.448   0.144   5.611 -0.5149 -0.0909  0.1637
 2558TIP3   OH229088   6.132   0.330   1.977  0.1326  0.1230 -0.0989
 2558TIP3    H129089   6.065   0.393   1.948 -0.0653 -0.8838 -1.9798
 2558TIP3    H229090   6.082   0.253   2.002  0.5324 -0.6136 -1.4592
 2559TIP3   OH229091   6.231   0.228  16.022  0.4241 -0.0224  0.5722
 2559TIP3    H129092   6.292   0.165  16.060  0.5321 -0.6200 -0.5749
 2559TIP3    H229093   6.176   0.177  15.963 -0.9537  0.5684  1.2711
 2560TIP3   OH229094   5.816   4.594  12.505  0.3449 -0.3940 -0.3397
 2560TIP3    H129095   5.792   4.501  12.498  0.1920 -0.4711  1.0607
 2560TIP3    H229096   5.771   4.625  12.583  1.1760  0.6252 -0.2412
 2561TIP3   OH229097   0.545   1.241   2.751  0.1493 -0.1169 -0.0765
 2561TIP3    H129098   0.598   1.164   2.771 -0.1685 -0.1130  0.8100
 2561TIP3    H229099   0.597   1.315   2.785 -0.5681 -0.1430  1.1474
 2562TIP3   OH229100   4.455   2.466   5.370  0.4770  0.2216 -0.3093
 2562TIP3    H129101   4.536   2.454   5.420  0.4164  0.6764 -0.0935
 2562TIP3    H229102   4.445   2.385   5.321  1.2461  0.2927 -0.5975
 2563TIP3   OH229103   5.642   6.810  14.603  0.0308  0.5791  0.4425
 2563TIP3    H129104   5.581   6.857  14.660 -0.6965 -0.6925  0.7420
 2563TIP3    H229105   5.595   6.799  14.521  1.1086  2.4815 -0.4893
 2564TIP3   OH229106   3.056   0.532  16.800 -0.2990  0.3559 -0.4434
 2564TIP3    H129107   3.128   0.521  16.862 -0.7059 -0.9898 -0.1777
 2564TIP3    H229108   3.060   0.455  16.744 -0.6421  0.9940 -1.3782
 2565TIP3   OH229109   1.868   0.081   5.842 -0.2579  0.0313  0.3391
 2565TIP3    H129110   1.801   0.134   5.884 -0.7035 -0.5584  0.3860
 2565TIP3    H229111   1.826   0.045   5.764 -1.6006 -4.0512  2.6588
 2566TIP3   OH229112   1.378   0.562  12.630 -0.4965 -0.0261  0.0614
 2566TIP3    H129113   1.395   0.625  12.700 -0.6444 -0.4903  0.5159
 2566TIP3    H229114   1.360   0.617  12.553  1.4284  0.4945 -0.0649
 2567TIP3   OH229115   4.879   5.299   2.290 -0.1916 -0.3051  0.5708
 2567TIP3    H129116   4.906   5.361   2.222 -0.7527  0.5457  1.0952
 2567TIP3    H229117   4.960   5.276   2.335  0.4112 -1.9421 -1.1900
 2568TIP3   OH229118   5.232   3.565   3.716  0.5237  0.1396 -0.2052
 2568TIP3    H129119   5.292   3.539   3.786  1.1334 -1.3580 -1.2462
 2568TIP3    H229120   5.262   3.517   3.639 -1.7166 -0.2934 -0.8858
 2569TIP3   OH229121   0.363   3.936   2.807 -0.3350 -0.8332  0.2054
 2569TIP3    H129122   0.342   3.902   2.720  0.7546 -0.7182 -0.1244
 2569TIP3    H229123   0.418   3.868   2.846 -1.9594 -1.5432  1.3881
 2570TIP3   OH229124   3.584   3.935  14.762 -0.2338  0.9255 -0.2640
 2570TIP3    H129125   3.562   4.008  14.704 -0.4041  0.8040 -0.3546
 2570TIP3    H229126   3.646   3.971  14.824  2.4451  0.2937 -2.3909
 2571TIP3   OH229127   1.289   2.448   0.596 -0.5302  0.1311  0.1625
 2571TIP3    H129128   1.348   2.515   0.562 -3.3211  3.0433  0.5618
 2571TIP3    H229129   1.284   2.383   0.526  0.8843  1.2350 -1.0519
 2572TIP3   OH229130   5.517   0.631   5.011 -0.0875 -0.1841 -0.2211
 2572TIP3    H129131   5.562   0.710   4.982 -0.2954 -0.9387 -2.8165
 2572TIP3    H229132   5.451   0.614   4.944 -1.0606 -1.7551  1.0483
 2573TIP3   OH229133   5.417   1.298   5.152 -0.4630 -0.4915 -0.1347
 2573TIP3    H129134   5.454   1.328   5.235  0.1557  0.6219 -0.7850
 2573TIP3    H229135   5.337   1.251   5.176 -0.7735  0.5887  1.0409
 2574TIP3   OH229136   5.629   3.049   2.506 -0.2622 -0.2482  0.4021
 2574TIP3    H129137   5.693   3.078   2.571 -1.3082  0.6043  1.0887
 2574TIP3    H229138   5.546   3.048   2.553 -1.4624  2.5411 -1.3944
 2575TIP3   OH229139   2.147   0.934   0.487  0.5445 -0.0586 -0.1177
 2575TIP3    H129140   2.157   0.846   0.453 -0.0763 -0.4650  0.6967
 2575TIP3    H229141   2.216   0.943   0.552 -0.1101 -0.3945  0.6478
 2576TIP3   OH229142   0.195   5.183  10.949 -0.4609 -0.0987  0.2108
 2576TIP3    H129143   0.167   5.092  10.944  2.4596 -1.0506 -1.9425
 2576TIP3    H229144   0.163   5.214  11.033 -2.4473 -2.7534  0.5536
 2577TIP3   OH229145   6.117   2.335   3.895 -0.1998  0.1682  0.3278
 2577TIP3    H129146   6.179   2.395   3.937  2.7333 -1.3662 -1.4439
 2577TIP3    H229147   6.132   2.251   3.939  1.3676 -0.9473 -2.1084
 2578TIP3   OH229148   3.986   0.673   3.438  0.1347  0.1854 -0.4909
 2578TIP3    H129149   4.018   0.686   3.527  0.0819  0.9964 -0.5795
 2578TIP3    H229150   3.891   0.683   3.446 -0.0019 -1.0195 -0.4307
 2579TIP3   OH229151   1.743   2.046  17.023  0.2356  0.1998  0.3228
 2579TIP3    H129152   1.757   2.138  16.999  2.7991 -0.5179 -1.2865
 2579TIP3    H229153   1.704   2.007  16.944  2.0576 -0.6901 -0.1835
 2580TIP3   OH229154   0.396   5.303   3.881 -0.1173 -0.1779 -0.4693
 2580TIP3    H129155   0.481   5.259   3.874  0.4599  0.3089  2.3991
 2580TIP3    H229156   0.336   5.235   3.911  0.1325  0.2527  1.1048
 2581TIP3   OH229157   2.801   0.742   3.625  0.1351 -0.6505  0.6820
 2581TIP3    H129158   2.819   0.831   3.592  0.7398 -0.9498  0.1731
 2581TIP3    H229159   2.880   0.693   3.604  0.6846 -0.8069  2.8855
 2582TIP3   OH229160   2.658   6.108  13.177  0.1758 -0.1718 -0.1910
 2582TIP3    H129161   2.691   6.060  13.100  1.4202  0.9025 -0.3697
 2582TIP3    H229162   2.667   6.045  13.249  2.2068 -0.1309 -0.3365
 2583TIP3   OH229163   3.218   6.342  13.764 -0.4019  0.4769 -0.2964
 2583TIP3    H129164   3.232   6.323  13.671 -0.7788  0.3995 -0.3370
 2583TIP3    H229165   3.128   6.316  13.781 -0.2156  0.1283  0.1857
 2584TIP3   OH229166   3.368   2.192  16.119  0.4418 -0.4653  0.2040
 2584TIP3    H129167   3.272   2.187  16.123  0.5018 -1.8648  0.5683
 2584TIP3    H229168   3.388   2.186  16.026  0.2048 -1.6294  0.2087
 2585TIP3   OH229169   0.972   0.887   2.981  0.5149 -0.1525 -0.4729
 2585TIP3    H129170   0.962   0.796   3.006 -0.9905 -0.0480 -0.6269
 2585TIP3    H229171   1.047   0.918   3.033  0.8619 -1.3828 -0.2149
 2586TIP3   OH229172   2.182   5.095   6.345 -0.1256  0.2734  0.0967
 2586TIP3    H129173   2.120   5.031   6.310 -1.0123 -0.1967  2.3652
 2586TIP3    H229174   2.219   5.052   6.422  1.9415  1.1495 -0.3586
 2587TIP3   OH229175   5.601   5.679   0.099 -0.0356 -0.0862 -0.1833
 2587TIP3    H129176   5.563   5.701   0.185  1.2952 -0.2040  0.4558
 2587TIP3    H229177   5.580   5.586   0.088  0.2755 -0.2147  0.2772
 2588TIP3   OH229178   4.382   1.133   2.169 -0.0604  0.0307  0.9922
 2588TIP3    H129179   4.308   1.086   2.208 -0.3511 -0.7063 -0.3808
 2588TIP3    H229180   4.342   1.194   2.108  0.4478 -0.0461  0.5771
 2589TIP3   OH229181   1.496   4.834   3.146  0.1931  0.1833  0.0089
 2589TIP3    H129182   1.469   4.912   3.098  1.3647  1.1788  0.9078
 2589TIP3    H229183   1.544   4.781   3.082 -0.2283  0.3900 -0.4865
 2590TIP3   OH229184   4.930   0.065  16.919  0.2482 -0.0737 -0.2748
 2590TIP3    H129185   4.871   0.137  16.941  0.5405 -0.0900  0.6004
 2590TIP3    H229186   5.005   0.107  16.877 -0.0019  0.0313 -0.6196
 2591TIP3   OH229187   2.916   3.784  14.761  0.5281  0.1041  0.1117
 2591TIP3    H129188   2.901   3.860  14.817  1.2891  0.6301 -0.3723
 2591TIP3    H229189   2.995   3.743  14.796  0.4987 -0.0738 -0.0273
 2592TIP3   OH229190   0.367   0.895  13.073  0.7114  0.0773  0.5022
 2592TIP3    H129191   0.371   0.863  12.983  3.1845 -1.2112  0.9811
 2592TIP3    H229192   0.456   0.927  13.091  0.3669  0.0255  2.5534
 2593TIP3   OH229193   2.458   1.075   3.821  0.0513  0.2324 -0.4727
 2593TIP3    H129194   2.363   1.086   3.817  0.0676  0.0641 -3.2194
 2593TIP3    H229195   2.473   0.984   3.796  0.9451  0.1749  0.1901
 2594TIP3   OH229196   3.292   4.649  14.197  0.1969 -0.3268  0.2257
 2594TIP3    H129197   3.275   4.719  14.260 -0.9770 -0.6597  0.3000
 2594TIP3    H229198   3.302   4.694  14.113  1.6277  0.1042  0.5956
 2595TIP3   OH229199   5.232   4.262  15.557  0.1267 -0.1854 -0.3651
 2595TIP3    H129200   5.146   4.247  15.519  0.1182  0.5342 -0.6318
 2595TIP3    H229201   5.283   4.304  15.488  0.5099 -0.0608 -0.0160
 2596TIP3   OH229202   5.385   2.010   1.851  0.2786 -0.1171  0.1986
 2596TIP3    H129203   5.307   1.955   1.855  0.2653 -0.0230  1.4144
 2596TIP3    H229204   5.436   1.986   1.928 -0.2084  2.2675  1.3421
 2597TIP3   OH229205   4.638   3.856  15.123  0.1262  0.4555 -0.4125
 2597TIP3    H129206   4.554   3.812  15.109  0.3874  0.0511 -0.7148
 2597TIP3    H229207   4.698   3.815  15.061  0.4542  1.0198 -0.4783
 2598TIP3   OH229208   4.962   4.560  11.221 -0.2570  0.3016 -0.2003
 2598TIP3    H129209   4.926   4.648  11.232 -2.9793 -0.9007  1.5670
 2598TIP3    H229210   4.927   4.530  11.136 -0.4560  0.4447 -0.1691
 2599TIP3   OH229211   5.675   2.372   1.204 -0.3864  0.5651 -0.2351
 2599TIP3    H129212   5.723   2.356   1.123 -3.4491  0.6461 -2.2592
 2599TIP3    H229213   5.657   2.466   1.204 -1.0551  0.4486  0.1178
 2600TIP3   OH229214   4.286   0.394   4.269 -0.0589 -0.1713  0.1937
 2600TIP3    H129215   4.342   0.469   4.287 -1.3111  0.7898  0.2794
 2600TIP3    H229216   4.335   0.319   4.301  2.3886  0.2274 -2.1943
 2601TIP3   OH229217   2.412   6.397  14.357  0.6480 -0.4623  0.2683
 2601TIP3    H129218   2.382   6.309  14.380 -0.1325 -0.4407 -0.6210
 2601TIP3    H229219   2.385   6.452  14.430 -1.8047 -0.3912 -0.6016
 2602TIP3   OH229220   0.887   3.364  15.671  0.2972  0.3324 -0.4788
 2602TIP3    H129221   0.856   3.338  15.584 -1.3617 -0.3775  0.2865
 2602TIP3    H229222   0.899   3.282  15.718  0.7632  0.7316  0.1169
 2603TIP3   OH229223   3.788   4.178   3.458  0.1426  0.3157  0.4235
 2603TIP3    H129224   3.704   4.190   3.500  0.9037  1.2382  1.7679
 2603TIP3    H229225   3.773   4.203   3.367 -1.1741 -0.1832  0.4838
 2604TIP3   OH229226   1.599   0.305   1.685 -0.0201 -0.3342 -0.6123
 2604TIP3    H129227   1.683   0.270   1.713 -0.5686 -1.2118 -0.0075
 2604TIP3    H229228   1.594   0.285   1.592 -0.0227 -1.2876 -0.4213
 2605TIP3   OH229229   6.594   4.411  16.398 -0.7143  0.7549 -0.4598
 2605TIP3    H129230   6.640   4.383  16.320  0.0036 -0.2681  0.3009
 2605TIP3    H229231   6.602   4.506  16.398  1.1916  0.6247 -0.4912
 2606TIP3   OH229232   1.307   6.647  13.675  0.0350 -0.6124 -0.2822
 2606TIP3    H129233   1.294   6.713  13.607 -1.1945 -0.3243  0.1998
 2606TIP3    H229234   1.290   6.564  13.633  3.3939 -0.8954 -1.3950
 2607TIP3   OH229235   3.767   1.609  15.092 -0.2352 -0.2780  0.0779
 2607TIP3    H129236   3.728   1.687  15.132  1.0722 -0.8621  2.7606
 2607TIP3    H229237   3.832   1.643  15.031 -1.0403  0.7117 -0.2555
 2608TIP3   OH229238   6.732   6.509  15.136  0.2056  0.6284 -0.1740
 2608TIP3    H129239   6.788   6.434  15.114  0.6894  1.7378 -3.1866
 2608TIP3    H229240   6.759   6.534  15.224  2.0578 -0.9511 -0.2284
 2609TIP3   OH229241   0.903   5.190   2.998 -0.3347 -0.2707  0.3366
 2609TIP3    H129242   0.924   5.266   3.053 -0.4288 -0.6307  0.8769
 2609TIP3    H229243   0.933   5.215   2.911 -1.9412  1.1022  0.1240
 2610TIP3   OH229244   0.811   2.389  12.499  0.5023  0.4803 -0.3919
 2610TIP3    H129245   0.740   2.396  12.562  0.1983  1.0580 -0.7893
 2610TIP3    H229246   0.869   2.463  12.519  0.4317  0.6357 -0.7545
 2611TIP3   OH229247   4.903   5.595  12.008 -0.5018  0.5116 -0.3371
 2611TIP3    H129248   4.920   5.688  11.992 -2.2678  0.9916  0.4017
 2611TIP3    H229249   4.845   5.567  11.938 -1.1276  0.3491  0.2302
 2612TIP3   OH229250   6.433   6.734   4.084 -0.3074 -0.5985 -0.1621
 2612TIP3    H129251   6.501   6.678   4.121  0.6781  1.3673  1.2026
 2612TIP3    H229252   6.351   6.696   4.115  0.2630 -1.7523  0.0034
 2613TIP3   OH229253   0.585   5.114  15.944 -0.2720  0.4602  0.2105
 2613TIP3    H129254   0.543   5.114  16.030 -1.2009 -1.1169 -0.2118
 2613TIP3    H229255   0.679   5.119  15.964 -0.5256  1.5713  1.2487
 2614TIP3   OH229256   2.444   3.950   3.206  0.2333  0.2843  0.0224
 2614TIP3    H129257   2.490   3.891   3.266  0.8955  0.7307 -0.0361
 2614TIP3    H229258   2.514   4.002   3.166 -0.2072 -0.0312 -1.1642
 2615TIP3   OH229259   4.905   5.284   3.085 -0.2331 -0.1269 -0.1801
 2615TIP3    H129260   4.994   5.252   3.098  0.0851  0.1493 -1.5350
 2615TIP3    H229261   4.868   5.226   3.018  0.2516  2.0484 -2.4794
 2616TIP3   OH229262   6.396   4.461  12.646 -0.4023  0.1459 -0.4854
 2616TIP3    H129263   6.427   4.434  12.733 -3.4741  0.2165  0.7475
 2616TIP3    H229264   6.474   4.456  12.591  1.7429  0.2980  2.2818
 2617TIP3   OH229265   5.838   1.580  11.125  0.1117  0.1820 -0.5978
 2617TIP3    H129266   5.780   1.506  11.105 -0.1639 -0.0607  0.9678
 2617TIP3    H229267   5.837   1.633  11.045 -1.3833 -0.4026 -1.0045
 2618TIP3   OH229268   1.383   4.661  14.281 -0.5415  0.1647  0.0416
 2618TIP3    H129269   1.469   4.648  14.320 -0.9277 -0.2399  0.7653
 2618TIP3    H229270   1.376   4.592  14.215 -0.7178 -0.4419  0.6871
 2619TIP3   OH229271   1.289   5.732  10.756 -0.4350 -0.2040 -0.2067
 2619TIP3    H129272   1.258   5.785  10.683 -0.3513 -1.5852 -1.2983
 2619TIP3    H229273   1.377   5.764  10.774  0.2388 -1.0052 -1.9278
 2620TIP3   OH229274   1.729   6.312   3.468 -0.1360 -0.5174 -0.4895
 2620TIP3    H129275   1.804   6.257   3.491  1.4911  2.4783  2.0278
 2620TIP3    H229276   1.669   6.304   3.542 -0.6622 -0.1736 -0.8654
 2621TIP3   OH229277   2.259   2.017   2.557  0.0301 -0.0381  0.2380
 2621TIP3    H129278   2.237   1.953   2.625  0.5189  0.8001  1.2016
 2621TIP3    H229279   2.349   1.997   2.534  0.2820  0.4912  0.7565
 2622TIP3   OH229280   4.857   2.952   2.017  0.2097 -0.0741 -0.4712
 2622TIP3    H129281   4.770   2.933   1.982 -0.6710 -0.8314  1.9325
 2622TIP3    H229282   4.904   2.869   2.010  0.0487 -0.2134  0.0323
 2623TIP3   OH229283   6.659   5.591  11.603 -0.1867 -0.0509  0.0691
 2623TIP3    H129284   6.583   5.649  11.600 -0.1602 -0.0416 -0.9012
 2623TIP3    H229285   6.671   5.563  11.512 -0.4867 -1.9552  0.5672
 2624TIP3   OH229286   1.437   2.457  13.899  0.0096  0.1766  0.7203
 2624TIP3    H129287   1.525   2.469  13.934  1.1123 -0.1430 -1.6736
 2624TIP3    H229288   1.389   2.535  13.925  2.4222  2.6804 -1.6857
 2625TIP3   OH229289   0.998   0.150   0.526 -0.1595  0.0186 -0.4713
 2625TIP3    H129290   0.990   0.245   0.537  0.4470  0.1172 -0.8009
 2625TIP3    H229291   1.090   0.133   0.545 -0.7578 -0.8454  1.9791
 2626TIP3   OH229292   4.870   0.820  11.888 -0.1549 -0.7869 -0.6452
 2626TIP3    H129293   4.807   0.870  11.938 -1.3023 -0.0188 -2.7419
 2626TIP3    H229294   4.940   0.883  11.867  0.7581 -1.3273  0.6606
 2627TIP3   OH229295   1.713   6.090  16.319  0.0564 -0.3166  0.7935
 2627TIP3    H129296   1.806   6.097  16.339  0.0189 -2.1131  1.8481
 2627TIP3    H229297   1.687   6.006  16.356 -1.9330  0.0125  0.2683
 2628TIP3   OH229298   3.211   5.969  12.126 -0.3002  0.5656 -0.1379
 2628TIP3    H129299   3.196   6.063  12.140  1.7916  0.6583  1.9847
 2628TIP3    H229300   3.275   5.944  12.192  0.8407 -1.9272 -2.0188
 2629TIP3   OH229301   6.572   0.886   3.248 -0.0986  0.1144 -0.2277
 2629TIP3    H129302   6.648   0.915   3.298  0.1465 -1.1267  0.1343
 2629TIP3    H229303   6.576   0.937   3.167  0.9434  0.2736 -0.0856
 2630TIP3   OH229304   0.499   1.423   4.067  0.2819 -0.2332 -0.1804
 2630TIP3    H129305   0.452   1.355   4.018  2.3980 -1.4214 -0.6529
 2630TIP3    H229306   0.590   1.414   4.040  0.8277  2.0585  0.6353
 2631TIP3   OH229307   4.678   3.247   3.790 -0.1820 -0.7896 -0.0095
 2631TIP3    H129308   4.747   3.306   3.761 -0.3547 -0.4605  0.2379
 2631TIP3    H229309   4.724   3.171   3.827  0.0579 -0.2756  0.7718
 2632TIP3   OH229310   1.532   1.159  14.723  0.0414  0.3620  0.3361
 2632TIP3    H129311   1.471   1.200  14.662 -1.6145  0.5789  2.0460
 2632TIP3    H229312   1.510   1.066  14.719  2.0757 -0.1204 -1.6472
 2633TIP3   OH229313   6.665   6.495   2.881  0.2740 -0.2201 -0.0855
 2633TIP3    H129314   6.711   6.442   2.816  1.5996 -0.4897  1.0215
 2633TIP3    H229315   6.732   6.555   2.914 -0.1459 -0.6196  1.5790
 2634TIP3   OH229316   2.953   4.569   3.994  0.3896  0.0403 -0.8740
 2634TIP3    H129317   2.907   4.652   4.001  0.0550 -0.0972 -1.3792
 2634TIP3    H229318   2.955   4.551   3.900  1.0286 -0.2072 -0.8201
 2635TIP3   OH229319   5.592   4.510  14.468  0.2075 -0.0350 -0.2929
 2635TIP3    H129320   5.558   4.555  14.545  1.6430  0.4892  0.0665
 2635TIP3    H229321   5.642   4.436  14.503  2.6677  1.4081 -0.5338
 2636TIP3   OH229322   4.779   3.803  11.401  0.3934  0.1507  0.6021
 2636TIP3    H129323   4.797   3.719  11.444  0.9843  0.7368  1.5283
 2636TIP3    H229324   4.863   3.849  11.400 -0.4144  1.8086  2.5056
 2637TIP3   OH229325   1.271   5.557   1.762  0.7656 -0.1079 -0.3874
 2637TIP3    H129326   1.195   5.558   1.704  0.5046  2.5233 -0.1232
 2637TIP3    H229327   1.339   5.512   1.712 -0.4520 -1.0286 -1.2777
 2638TIP3   OH229328   0.673   1.471   5.891 -0.5638  0.0402  0.4117
 2638TIP3    H129329   0.708   1.540   5.947  0.0021 -1.4442  1.9915
 2638TIP3    H229330   0.730   1.396   5.907 -0.5397 -0.5529 -2.0030
 2639TIP3   OH229331   5.744   6.240  14.331 -0.0124 -0.4356 -0.3874
 2639TIP3    H129332   5.728   6.333  14.347 -1.7229 -0.9691  1.2049
 2639TIP3    H229333   5.720   6.228  14.239 -1.4126  0.3647 -0.1496
 2640TIP3   OH229334   3.527   4.716  13.118 -0.2609 -0.9779  0.0694
 2640TIP3    H129335   3.482   4.635  13.140  1.2181 -1.8715 -0.0389
 2640TIP3    H229336   3.579   4.736  13.196 -1.5746  0.5796  0.5807
 2641TIP3   OH229337   5.775   3.784  12.638  0.3035 -0.4587  0.2506
 2641TIP3    H129338   5.866   3.781  12.668  0.7175  1.5579 -0.5729
 2641TIP3    H229339   5.723   3.789  12.718  1.1582  1.4314  0.7436
 2642TIP3   OH229340   4.312   5.090   5.574 -0.1576  0.0487 -0.4214
 2642TIP3    H129341   4.218   5.080   5.563 -0.5865  2.3209  0.4820
 2642TIP3    H229342   4.332   5.045   5.656 -0.6487  0.3122 -0.1513
 2643TIP3   OH229343   5.608   1.504  16.442 -0.3990  0.0775  0.1073
 2643TIP3    H129344   5.622   1.451  16.521  0.1985  0.9382  0.6010
 2643TIP3    H229345   5.673   1.471  16.380 -0.1745  0.0885  0.3353
 2644TIP3   OH229346   0.196   4.436  16.779  0.6057  0.5349 -0.3222
 2644TIP3    H129347   0.265   4.495  16.748  1.5093  0.3027  1.1523
 2644TIP3    H229348   0.190   4.369  16.710  1.6712  0.7092 -0.6098
 2645TIP3   OH229349   3.639   4.034   0.005 -0.5751 -0.1418 -0.3753
 2645TIP3    H129350   3.582   4.036   0.082 -1.2129 -2.1474 -0.7340
 2645TIP3    H229351   3.581   4.008  -0.066  0.6849 -1.8776 -0.8207
 2646TIP3   OH229352   0.537   5.104  13.238  0.1885  0.3120 -0.2103
 2646TIP3    H129353   0.539   5.156  13.157 -0.4566  0.0804 -0.3828
 2646TIP3    H229354   0.473   5.149  13.293  1.0712  0.8248  0.4307
 2647TIP3   OH229355   6.752   3.280   3.266 -0.4613  0.1813 -0.1938
 2647TIP3    H129356   6.817   3.349   3.252 -1.4740  1.1929 -0.0370
 2647TIP3    H229357   6.758   3.260   3.359  1.6221 -1.8096 -0.6853
 2648TIP3   OH229358   3.712   5.273   3.563 -0.0057  0.0008 -0.0471
 2648TIP3    H129359   3.646   5.264   3.632 -1.1357  0.1672 -1.0799
 2648TIP3    H229360   3.665   5.253   3.482  1.4635 -0.8962 -0.7234
 2649TIP3   OH229361   5.520   0.427   1.763  0.5622  0.5166  0.2947
 2649TIP3    H129362   5.574   0.397   1.690 -0.0882 -0.5300  0.2164
 2649TIP3    H229363   5.485   0.347   1.801 -2.7149  1.1335 -1.0552
 2650TIP3   OH229364   1.475   3.161  13.630 -0.0986  0.0878  0.0460
 2650TIP3    H129365   1.493   3.110  13.551  1.6316 -1.0063  1.0905
 2650TIP3    H229366   1.559   3.197  13.656 -0.9055  1.6607  0.5878
 2651TIP3   OH229367   4.522   2.604  13.060  0.1625  0.2235 -0.4658
 2651TIP3    H129368   4.565   2.658  12.994 -0.1230 -0.1155 -0.9404
 2651TIP3    H229369   4.539   2.514  13.032 -0.2459  0.0787 -0.2680
 2652TIP3   OH229370   6.014   5.960   0.342 -0.2156 -0.2782 -0.3178
 2652TIP3    H129371   6.105   5.980   0.364  0.0912  0.3221 -2.0137
 2652TIP3    H229372   5.974   6.045   0.324 -1.0543 -0.5635  0.1242
 2653TIP3   OH229373   4.001   3.147   5.691  0.1988  0.1293  0.1649
 2653TIP3    H129374   4.004   3.179   5.601 -0.4356  0.9381  0.4196
 2653TIP3    H229375   4.050   3.212   5.741  1.4162 -0.8338  0.2722
 2654TIP3   OH229376   3.751   2.567   0.736  0.1872 -0.1287  0.5841
 2654TIP3    H129377   3.660   2.571   0.710  0.6592  0.1026 -1.1353
 2654TIP3    H229378   3.767   2.651   0.780 -0.0101  0.5494 -0.6073
 2655TIP3   OH229379   4.716   1.628   4.188 -0.3669 -0.3840 -0.2756
 2655TIP3    H129380   4.624   1.635   4.215 -0.0650 -1.1444  1.0453
 2655TIP3    H229381   4.719   1.551   4.132 -0.3696 -1.0172  0.5661
 2656TIP3   OH229382   6.324   2.975  12.082  0.6323  0.1371  0.1203
 2656TIP3    H129383   6.414   2.996  12.060  1.0088  0.0293  1.4796
 2656TIP3    H229384   6.329   2.898  12.139 -0.4810 -1.2882 -1.6159
 2657TIP3   OH229385   4.902   1.736  16.215 -0.1606  0.3289 -0.4511
 2657TIP3    H129386   4.956   1.668  16.174  1.0173  1.5134 -0.9200
 2657TIP3    H229387   4.832   1.751  16.152 -1.3751 -1.5320  0.3565
 2658TIP3   OH229388   1.253   2.673   4.830  0.3735 -0.8550 -0.2615
 2658TIP3    H129389   1.225   2.591   4.871  0.5117 -1.0334 -0.5253
 2658TIP3    H229390   1.336   2.652   4.788 -0.6887 -1.1940 -2.2965
 2659TIP3   OH229391   0.140   2.724  13.052  0.2478 -0.1755 -0.0602
 2659TIP3    H129392   0.047   2.714  13.032  0.8886 -1.4068 -3.0127
 2659TIP3    H229393   0.183   2.662  12.993  2.9232 -0.0954  1.6684
 2660TIP3   OH229394   1.872   3.929  12.624 -0.4786 -0.9328  0.2667
 2660TIP3    H129395   1.846   3.846  12.665 -0.0028 -1.0959  0.2413
 2660TIP3    H229396   1.843   3.996  12.686  0.5926 -1.1956  1.0875
 2661TIP3   OH229397   5.392   6.581  13.470  0.0816  0.0607 -0.1446
 2661TIP3    H129398   5.372   6.493  13.440 -0.2989 -0.1903  0.8039
 2661TIP3    H229399   5.382   6.636  13.392 -0.7442 -0.5815 -0.5125
 2662TIP3   OH229400   4.561   6.657  11.581  0.4586 -0.1834  0.0357
 2662TIP3    H129401   4.473   6.643  11.614  1.1279 -1.2057  1.4408
 2662TIP3    H229402   4.597   6.570  11.568  1.6474  0.2018  0.5431
 2663TIP3   OH229403   5.069   2.604  12.104  0.2456  0.1309 -0.2468
 2663TIP3    H129404   5.018   2.678  12.135 -0.3213 -0.1210 -0.5527
 2663TIP3    H229405   5.160   2.628  12.120  0.0521  0.7854 -0.1232
 2664TIP3   OH229406   5.018   2.272   1.404  0.0978 -0.0322 -0.7937
 2664TIP3    H129407   5.047   2.354   1.364 -0.3289  0.3096 -0.4196
 2664TIP3    H229408   4.951   2.299   1.467  0.1448 -0.6441 -0.4753
 2665TIP3   OH229409   1.654   0.563   5.119 -0.0847 -0.1250 -0.3428
 2665TIP3    H129410   1.631   0.615   5.042  0.6042 -0.4674 -0.7877
 2665TIP3    H229411   1.749   0.555   5.115  0.0870  0.7973  1.1629
 2666TIP3   OH229412   2.790   4.362  16.335  0.4662  0.0516 -0.0679
 2666TIP3    H129413   2.871   4.311  16.325 -0.0525 -0.8928  0.4893
 2666TIP3    H229414   2.791   4.422  16.260  1.4680 -0.2429 -0.3118
 2667TIP3   OH229415   2.881   3.742  11.124 -0.3697 -0.1024 -0.1259
 2667TIP3    H129416   2.850   3.671  11.180  0.6286  0.4073  1.1101
 2667TIP3    H229417   2.851   3.821  11.167  2.0106  0.3869  0.7642
 2668TIP3   OH229418   5.360   5.197   5.405 -0.2332  0.6201  0.2399
 2668TIP3    H129419   5.379   5.196   5.499  0.6090  0.6806  0.0760
 2668TIP3    H229420   5.353   5.290   5.384 -1.8166  0.5907  0.4979
 2669TIP3   OH229421   6.021   6.392   2.013  0.0910 -0.7554  0.3134
 2669TIP3    H129422   6.106   6.352   1.996 -0.0172 -1.9747  2.2206
 2669TIP3    H229423   5.963   6.317   2.032 -0.5378  0.1710  2.3735
 2670TIP3   OH229424   3.624   1.720  11.025 -0.3766  0.2917 -0.1249
 2670TIP3    H129425   3.553   1.779  10.999 -0.3453  0.6272  0.5188
 2670TIP3    H229426   3.674   1.704  10.945 -0.7215  0.6877 -0.4186
 2671TIP3   OH229427   2.996   6.477  12.010 -0.5059  0.0240 -0.1846
 2671TIP3    H129428   3.056   6.549  12.028 -0.9311  0.4821 -0.5810
 2671TIP3    H229429   3.043   6.399  12.039  1.3465  0.0622 -2.7074
 2672TIP3   OH229430   5.845   4.060  12.975  0.0960 -0.0043 -0.1580
 2672TIP3    H129431   5.886   4.131  12.925  0.4646 -0.5819 -0.6921
 2672TIP3    H229432   5.770   4.101  13.017 -0.6758  0.3423 -1.7877
 2673TIP3   OH229433   5.566   1.265  14.696  0.6739  0.3514  0.1611
 2673TIP3    H129434   5.520   1.256  14.612 -0.0287  0.2540  0.5557
 2673TIP3    H229435   5.587   1.175  14.721  2.3538  0.4618 -0.7038
 2674TIP3   OH229436   4.241   0.042  16.427  0.2608  0.1566 -0.2095
 2674TIP3    H129437   4.275   0.053  16.516  3.2226 -0.1893 -1.1938
 2674TIP3    H229438   4.185  -0.036  16.432  0.8805 -0.2261  1.2054
 2675TIP3   OH229439   4.107   4.476  14.278  0.3309  0.4598  0.4936
 2675TIP3    H129440   4.148   4.419  14.344 -1.5123 -0.2702  1.0760
 2675TIP3    H229441   4.017   4.484  14.307  0.4004  3.3392  0.1381
 2676TIP3   OH229442   4.232   0.093  14.738  0.6187  0.2186 -0.1700
 2676TIP3    H129443   4.193   0.048  14.664 -0.2347 -0.2840  0.5602
 2676TIP3    H229444   4.302   0.034  14.767 -0.1964 -0.4386  0.4985
 2677TIP3   OH229445   3.971   3.980   4.253  0.2947 -0.3937 -0.8619
 2677TIP3    H129446   4.006   3.942   4.172  0.8569 -1.2729 -0.2197
 2677TIP3    H229447   4.044   4.031   4.289  0.1652 -0.3018 -0.7292
 2678TIP3   OH229448   3.568   0.299  16.852 -0.1858 -0.0774 -0.5241
 2678TIP3    H129449   3.555   0.210  16.883  0.4696 -0.4711 -1.3500
 2678TIP3    H229450   3.502   0.351  16.898 -0.2256 -0.8945  0.3584
 2679TIP3   OH229451   5.416   4.051   4.014 -0.2401 -0.2432 -0.4971
 2679TIP3    H129452   5.334   4.069   3.967 -0.4830 -0.3122 -0.1008
 2679TIP3    H229453   5.465   4.133   4.007  0.4571 -0.7694 -2.3291
 2680TIP3   OH229454   3.756   1.345  14.001 -0.4485 -0.2313  0.6814
 2680TIP3    H129455   3.767   1.340  14.096  1.4813  0.8133  0.5501
 2680TIP3    H229456   3.768   1.437  13.979  1.9823 -0.8029 -0.8397
 2681TIP3   OH229457   0.598   0.154  12.395  0.2776 -0.2207  0.8895
 2681TIP3    H129458   0.620   0.242  12.365  2.0459 -0.9206  0.0325
 2681TIP3    H229459   0.668   0.131  12.456  0.2479 -1.3392  0.5216
 2682TIP3   OH229460   2.255   0.590  15.792  0.2101  0.0733 -0.2310
 2682TIP3    H129461   2.233   0.541  15.872 -0.6657 -1.6215 -1.4466
 2682TIP3    H229462   2.348   0.574  15.780  0.6362  1.3588  1.0770
 2683TIP3   OH229463   6.801   0.447   2.152 -0.1367  0.2992 -0.4252
 2683TIP3    H129464   6.769   0.406   2.232  0.8475  0.1019 -0.1261
 2683TIP3    H229465   6.734   0.512   2.130  0.5954  1.9091  1.7634
 2684TIP3   OH229466   5.092   2.359  12.012 -0.5479 -0.9942  0.6917
 2684TIP3    H129467   5.170   2.328  12.060  0.2080  0.2878  0.3321
 2684TIP3    H229468   5.079   2.449  12.042  0.7926  0.3912 -2.4159
 2685TIP3   OH229469   0.370   5.828   3.730 -0.4059  0.5141 -0.5729
 2685TIP3    H129470   0.398   5.765   3.664 -0.8878  0.7574 -1.0135
 2685TIP3    H229471   0.299   5.784   3.776  0.7698 -0.1727  0.6591
 2686TIP3   OH229472   2.362   4.247   2.893  0.1352  0.1754  0.1533
 2686TIP3    H129473   2.402   4.227   2.978  1.4263  0.6639 -0.3090
 2686TIP3    H229474   2.270   4.221   2.902  0.1488  0.6412  1.8388
 2687TIP3   OH229475   5.403   2.034  12.881 -0.0311  0.1484 -0.1503
 2687TIP3    H129476   5.481   2.049  12.828  0.8067  0.9486  1.2403
 2687TIP3    H229477   5.345   2.107  12.859 -0.1660 -0.1396 -0.7756
 2688TIP3   OH229478   3.923   6.316   5.130  0.0606 -0.1690  0.1247
 2688TIP3    H129479   3.951   6.231   5.097  0.9250  0.4919 -0.8987
 2688TIP3    H229480   3.999   6.373   5.117 -0.2742  0.6183  1.3886
 2689TIP3   OH229481   6.634   0.905   5.430 -0.2610  0.1926 -0.2095
 2689TIP3    H129482   6.682   0.848   5.370 -0.6789 -0.2963 -0.0788
 2689TIP3    H229483   6.656   0.873   5.517 -0.9350 -0.1212 -0.1549
 2690TIP3   OH229484   6.635   2.827  14.991 -0.2379  0.0711 -0.3306
 2690TIP3    H129485   6.718   2.792  15.023  0.9068  1.4757 -1.6322
 2690TIP3    H229486   6.639   2.921  15.011 -1.4170  0.2044 -0.6177
 2691TIP3   OH229487   0.297   0.721  13.911 -0.4078  0.2705  0.3143
 2691TIP3    H129488   0.381   0.679  13.895 -0.6196  0.2254 -0.7555
 2691TIP3    H229489   0.307   0.762  13.997  1.9407  3.1840 -1.1436
 2692TIP3   OH229490   5.474   2.111   5.655 -0.2183 -0.1869  0.4752
 2692TIP3    H129491   5.496   2.196   5.693 -2.0112  0.6972 -0.3356
 2692TIP3    H229492   5.462   2.053   5.730 -2.0415  1.0985  1.2710
 2693TIP3   OH229493   4.753   3.381   4.903 -0.3605 -0.3387  0.1641
 2693TIP3    H129494   4.743   3.387   4.998  1.0321  1.6339  0.2515
 2693TIP3    H229495   4.740   3.471   4.872 -2.0410 -1.1510 -1.6789
 2694TIP3   OH229496   6.660   0.549   5.108  0.0199 -0.1350  0.1498
 2694TIP3    H129497   6.682   0.456   5.114 -0.2594 -0.2066  0.1068
 2694TIP3    H229498   6.567   0.553   5.130  0.3353  0.3082  1.5077
 2695TIP3   OH229499   1.598   0.948   3.709  0.1032 -0.0937  0.6729
 2695TIP3    H129500   1.575   0.998   3.631  2.8426  0.4020  0.0928
 2695TIP3    H229501   1.517   0.903   3.733 -0.7810 -0.5200 -2.6442
 2696TIP3   OH229502   6.651   0.157   6.269  0.5406  0.0189 -0.3871
 2696TIP3    H129503   6.675   0.074   6.309  0.3433  0.5623  0.9327
 2696TIP3    H229504   6.585   0.194   6.329 -1.0392  0.1156 -2.0949
 2697TIP3   OH229505   3.204   3.234  17.016  0.0400 -0.6288  0.2902
 2697TIP3    H129506   3.177   3.275  17.098  0.8829 -1.8061  1.1890
 2697TIP3    H229507   3.136   3.259  16.953 -0.8671 -0.0826  1.4507
 2698TIP3   OH229508   1.309   1.544  14.489  0.0647  0.4601 -0.3413
 2698TIP3    H129509   1.297   1.583  14.402  1.5728  1.4072 -0.1559
 2698TIP3    H229510   1.329   1.452  14.472 -0.9838  0.3281 -0.9177
 2699TIP3   OH229511   4.379   5.898   5.032  0.1688  0.3723  0.1776
 2699TIP3    H129512   4.309   5.850   5.077 -0.7472  0.6412 -0.9207
 2699TIP3    H229513   4.400   5.843   4.957  3.1620 -1.1447  1.9278
 2700TIP3   OH229514   2.564   6.069   5.648 -0.4183  0.0459  0.1223
 2700TIP3    H129515   2.493   6.004   5.655  0.8324 -1.3400  0.5176
 2700TIP3    H229516   2.525   6.151   5.679 -1.3293 -1.0774  2.1524
 2701TIP3   OH229517   4.113   2.291  11.763 -0.1331  0.1803  0.0864
 2701TIP3    H129518   4.146   2.215  11.811 -2.3980 -0.5733  0.5567
 2701TIP3    H229519   4.119   2.266  11.671  1.2669  0.3835  0.0975
 2702TIP3   OH229520   3.338   5.222   0.399  0.3180 -0.3164 -0.0141
 2702TIP3    H129521   3.243   5.237   0.404  0.7028  2.5252  0.5721
 2702TIP3    H229522   3.361   5.186   0.485 -0.3366 -2.3104 -0.6067
 2703TIP3   OH229523   4.296   1.630   0.962  0.4840 -0.0153  0.1380
 2703TIP3    H129524   4.232   1.701   0.965  0.1704 -0.2925  2.8411
 2703TIP3    H229525   4.375   1.670   0.926 -0.3403  1.0921 -0.5000
 2704TIP3   OH229526   3.779   2.810   0.832 -0.1481 -0.5873 -0.6259
 2704TIP3    H129527   3.835   2.839   0.760 -0.1302  2.6714  0.5327
 2704TIP3    H229528   3.840   2.786   0.902  0.0865  3.3936  0.7994
 2705TIP3   OH229529   6.370   1.990   5.538 -0.5661 -0.0772  0.3805
 2705TIP3    H129530   6.406   2.049   5.472 -0.3694 -0.1206  0.4480
 2705TIP3    H229531   6.418   1.908   5.526 -1.1934 -0.3863 -0.0454
 2706TIP3   OH229532   1.119   6.472  12.183 -0.1732 -0.2887  0.0217
 2706TIP3    H129533   1.087   6.428  12.104 -1.8749 -0.1041  0.5733
 2706TIP3    H229534   1.177   6.540  12.150 -0.8264 -0.2382 -1.0888
 2707TIP3   OH229535   0.159   3.529   4.941  0.3202  0.7401 -0.3022
 2707TIP3    H129536   0.244   3.492   4.964 -0.3503 -0.3991  0.4331
 2707TIP3    H229537   0.157   3.614   4.984  1.5002  1.2687 -1.2200
 2708TIP3   OH229538   1.412   5.732  11.991 -0.5246  0.0234 -0.0024
 2708TIP3    H129539   1.504   5.723  11.966  0.1115 -1.7798  2.5632
 2708TIP3    H229540   1.408   5.819  12.032  0.3685 -0.3519  0.9392
 2709TIP3   OH229541   5.707   5.450  12.567  0.3193 -0.5025  0.3502
 2709TIP3    H129542   5.784   5.431  12.621  0.6247  0.9399  0.4597
 2709TIP3    H229543   5.710   5.385  12.497  2.1312  0.0536 -0.1344
 2710TIP3   OH229544   1.663   5.167   4.984  0.6343  0.3276  0.2803
 2710TIP3    H129545   1.664   5.255   5.023 -0.1817  1.1333 -1.4237
 2710TIP3    H229546   1.643   5.182   4.892 -1.7988 -1.7902  0.3422
 2711TIP3   OH229547   2.491   2.276   4.734  0.2622 -0.2746  0.6415
 2711TIP3    H129548   2.457   2.349   4.682  0.2710 -0.8670 -0.2020
 2711TIP3    H229549   2.423   2.259   4.799  0.4049  0.7014  1.0640
 2712TIP3   OH229550   3.205   2.951  15.580 -0.3831 -0.3103 -0.3824
 2712TIP3    H129551   3.166   2.882  15.526 -0.9402  0.3728 -0.8722
 2712TIP3    H229552   3.275   2.907  15.629 -0.2881 -1.0778 -1.1878
 2713TIP3   OH229553   5.630   4.049  12.122  0.4928 -0.1956 -0.2076
 2713TIP3    H129554   5.608   4.078  12.211  0.3428  0.2835 -0.3967
 2713TIP3    H229555   5.724   4.030  12.125  1.0561  2.2418 -0.5766
 2714TIP3   OH229556   1.668   6.797   5.334  0.0140 -0.2529  0.3190
 2714TIP3    H129557   1.708   6.710   5.340 -0.4664 -0.4857  0.1787
 2714TIP3    H229558   1.574   6.780   5.337 -0.0722  0.3305  1.1929
 2715TIP3   OH229559   5.265   2.023   5.508 -0.0065  0.0229  0.0432
 2715TIP3    H129560   5.325   2.053   5.576  1.5204 -1.8046 -0.4096
 2715TIP3    H229561   5.204   1.966   5.554 -1.2227  1.5745  0.4356
 2716TIP3   OH229562   6.062   0.640   4.072  0.2489  0.2147 -0.0683
 2716TIP3    H129563   6.019   0.557   4.052 -0.9282  0.8482 -0.2352
 2716TIP3    H229564   6.106   0.664   3.991 -0.9356  0.6429 -0.6124
 2717TIP3   OH229565   5.072   3.086   5.379  0.1083 -0.2291 -0.1977
 2717TIP3    H129566   5.011   3.153   5.411  1.4843  0.7751  0.4117
 2717TIP3    H229567   5.154   3.105   5.423  0.7220 -1.9635 -0.4931
 2718TIP3   OH229568   4.644   2.914   0.863 -0.3528  0.3781 -0.4883
 2718TIP3    H129569   4.703   2.870   0.924 -0.8565  0.5380  0.1188
 2718TIP3    H229570   4.701   2.941   0.790 -0.0223 -1.2384 -0.8748
 2719TIP3   OH229571   6.404   6.453  11.602 -0.8342 -0.3483 -0.0122
 2719TIP3    H129572   6.373   6.539  11.572  0.7066 -0.2090 -1.3236
 2719TIP3    H229573   6.494   6.469  11.630 -0.7109 -1.4507  0.2557
 2720TIP3   OH229574   6.594   2.308   0.056  0.0532 -0.4286 -0.4116
 2720TIP3    H129575   6.680   2.273   0.077  0.6200  0.6372 -0.9003
 2720TIP3    H229576   6.562   2.345   0.138 -0.0257 -0.9934 -0.1855
 2721TIP3   OH229577   6.697   3.571  14.606  0.2509  0.6271  0.5101
 2721TIP3    H129578   6.650   3.621  14.673 -0.7373 -2.6265  2.4484
 2721TIP3    H229579   6.781   3.550  14.646  1.6839  2.6149 -1.2293
 2722TIP3   OH229580   4.203   3.675   2.858 -0.0283  0.2901 -0.2027
 2722TIP3    H129581   4.277   3.675   2.798  1.0661 -2.3344  0.9996
 2722TIP3    H229582   4.185   3.582   2.875 -1.4325  0.8914  2.1110
 2723TIP3   OH229583   1.804   5.889  12.413  0.7066  0.3784 -0.2120
 2723TIP3    H129584   1.810   5.916  12.322  1.8154 -3.0038 -1.2849
 2723TIP3    H229585   1.893   5.864  12.437 -0.3069 -3.8565 -0.0717
 2724TIP3   OH229586   3.468   5.268  12.181  0.1052  0.0470 -0.0058
 2724TIP3    H129587   3.538   5.202  12.182 -0.1676 -0.2450 -0.0659
 2724TIP3    H229588   3.467   5.300  12.090 -3.0148 -3.3952 -1.4671
 2725TIP3   OH229589   5.662   0.820   1.944  0.2159 -0.3006  0.1675
 2725TIP3    H129590   5.602   0.804   2.017 -0.5680 -1.0699 -0.6349
 2725TIP3    H229591   5.635   0.905   1.909 -0.6796 -0.8302 -0.4460
 2726TIP3   OH229592   2.375   2.454   2.407  0.2588 -0.4196  0.0052
 2726TIP3    H129593   2.280   2.441   2.409  0.1994  0.0924  0.7826
 2726TIP3    H229594   2.410   2.387   2.465  0.2715  0.1720  0.6939
 2727TIP3   OH229595   0.815   6.129   1.007 -0.5583  0.3193 -0.0245
 2727TIP3    H129596   0.849   6.214   0.979  0.4233 -0.3226 -0.8694
 2727TIP3    H229597   0.881   6.096   1.068 -0.4768 -0.2202 -0.3972
 2728TIP3   OH229598   1.572   4.299  16.513  0.4106 -0.0814  0.2146
 2728TIP3    H129599   1.476   4.296  16.509  0.3704  1.4596 -0.2370
 2728TIP3    H229600   1.599   4.216  16.474 -0.6966  0.8684 -2.8632
 2729TIP3   OH229601   2.479   1.489   4.704 -0.2264  0.0224  0.1851
 2729TIP3    H129602   2.545   1.469   4.637 -1.0314  1.4645 -1.0952
 2729TIP3    H229603   2.419   1.414   4.701 -0.9955  0.6589 -1.7008
 2730TIP3   OH229604   2.576   2.240  13.124  0.3898  0.5529 -0.1721
 2730TIP3    H129605   2.624   2.322  13.133  1.2411  0.1109 -0.5654
 2730TIP3    H229606   2.624   2.178  13.179  0.0125  0.2085 -0.2248
 2731TIP3   OH229607   6.782   2.763   3.577 -0.0220 -0.1365 -0.1210
 2731TIP3    H129608   6.762   2.669   3.577 -1.1740  0.0773 -1.6675
 2731TIP3    H229609   6.850   2.772   3.511  1.3503 -0.0716  1.2309
 2732TIP3   OH229610   5.729   0.810  12.906  0.4314 -0.5385  0.5271
 2732TIP3    H129611   5.694   0.851  12.985 -0.0553 -1.4553  0.8134
 2732TIP3    H229612   5.673   0.733  12.893 -1.0232  0.8136 -2.0439
 2733TIP3   OH229613   1.990   0.723  15.074  0.2214  0.1980 -0.6918
 2733TIP3    H129614   2.034   0.640  15.090 -0.1416 -0.3301 -2.2724
 2733TIP3    H229615   1.985   0.730  14.978 -0.9764  1.3826 -0.5807
 2734TIP3   OH229616   5.309   0.538   1.539 -0.3323  0.3000  0.1842
 2734TIP3    H129617   5.264   0.588   1.608  0.6522 -0.2565  1.2662
 2734TIP3    H229618   5.270   0.451   1.544  0.2781  0.0435  0.5775
 2735TIP3   OH229619   6.319   0.782   3.360 -0.0136  0.0058 -0.3666
 2735TIP3    H129620   6.319   0.777   3.456  1.7653 -0.9509 -0.3762
 2735TIP3    H229621   6.394   0.837   3.339  1.4319 -2.1640 -1.2334
 2736TIP3   OH229622   0.808   2.963  13.832  0.1859  0.1087 -0.4162
 2736TIP3    H129623   0.766   2.964  13.918 -2.2528  1.1069 -1.5319
 2736TIP3    H229624   0.889   3.013  13.845  1.7358 -2.6576  2.0156
 2737TIP3   OH229625   0.992   2.232   2.851  0.5141  0.0143 -0.6003
 2737TIP3    H129626   1.034   2.162   2.800 -0.8948 -0.7572 -0.7442
 2737TIP3    H229627   0.928   2.270   2.791  0.0107  0.2226  0.0545
 2738TIP3   OH229628   4.298   6.790  11.454 -0.0612  0.4427 -0.3975
 2738TIP3    H129629   4.325   6.851  11.385  1.4180  1.7470  1.2272
 2738TIP3    H229630   4.300   6.843  11.534 -3.2346 -0.6138  0.5047
 2739TIP3   OH229631   1.638   4.071  16.398 -0.2232  0.2886  0.1406
 2739TIP3    H129632   1.573   4.005  16.420 -0.5889 -0.0529 -1.7565
 2739TIP3    H229633   1.644   4.068  16.302  2.7370  0.1523  0.2263
 2740TIP3   OH229634   1.333   0.216   1.857 -0.6721  0.0977  0.0837
 2740TIP3    H129635   1.414   0.264   1.838  0.5743 -1.0910  2.0636
 2740TIP3    H229636   1.341   0.135   1.806  0.5646 -1.0819  2.0490
 2741TIP3   OH229637   1.330   2.767  13.117  0.2407  0.1808  0.0528
 2741TIP3    H129638   1.261   2.736  13.059  0.7350  1.7470 -1.4435
 2741TIP3    H229639   1.409   2.764  13.063  0.7732  1.4014  0.7394
 2742TIP3   OH229640   5.293   6.101   2.165 -0.2849 -0.4234 -0.6748
 2742TIP3    H129641   5.293   6.064   2.253 -1.5376  0.7308 -0.1605
 2742TIP3    H229642   5.354   6.046   2.116  0.5775 -0.9692  0.9462
 2743TIP3   OH229643   5.565   2.202  13.816 -0.0492 -0.2080  0.4701
 2743TIP3    H129644   5.513   2.207  13.735  1.0868 -1.1259 -0.3493
 2743TIP3    H229645   5.654   2.183  13.786  0.8014  1.3103  1.8269
 2744TIP3   OH229646   2.900   6.694  11.255  0.2673  0.3675  0.2221
 2744TIP3    H129647   2.814   6.664  11.226  0.2200 -0.0870  0.8255
 2744TIP3    H229648   2.949   6.614  11.276 -0.1275  0.6668  2.5874
 2745TIP3   OH229649   4.356   4.741   2.418  0.2637 -0.7906 -0.1222
 2745TIP3    H129650   4.300   4.713   2.345  0.1701 -0.8297 -0.0352
 2745TIP3    H229651   4.336   4.833   2.431  0.3286 -0.7672 -0.1898
 2746TIP3   OH229652   5.133   0.266   1.569 -0.1382  0.3604  0.4255
 2746TIP3    H129653   5.086   0.263   1.653  1.5621  0.9116  1.4456
 2746TIP3    H229654   5.166   0.177   1.557  1.1902  0.7088  1.3141
 2747TIP3   OH229655   5.320   0.596  15.704  0.4206 -0.5479 -0.1816
 2747TIP3    H129656   5.386   0.606  15.773 -0.7262 -0.9995  1.0394
 2747TIP3    H229657   5.323   0.504  15.681 -0.8041 -0.9289  1.0142
 2748TIP3   OH229658   5.366   4.126  14.307 -0.1891  0.1832 -0.3560
 2748TIP3    H129659   5.365   4.037  14.342 -2.9970  0.1538 -0.2428
 2748TIP3    H229660   5.317   4.119  14.225 -0.7087  1.6635 -0.1881
 2749TIP3   OH229661   3.774   1.424  11.141 -0.1562  0.1508  0.4484
 2749TIP3    H129662   3.802   1.485  11.073 -1.4519  0.8321  0.4960
 2749TIP3    H229663   3.733   1.351  11.093 -3.0628  1.6334  0.4631
 2750TIP3   OH229664   0.496   4.004  14.903  0.3211  0.0133 -0.0361
 2750TIP3    H129665   0.411   4.030  14.939  0.0002  0.6580 -1.2262
 2750TIP3    H229666   0.480   3.917  14.865  0.1610  0.1731 -0.3416
 2751TIP3   OH229667   3.405   4.144   4.553 -0.0110  0.0258 -0.5260
 2751TIP3    H129668   3.481   4.121   4.499 -0.6638  0.9267 -1.8777
 2751TIP3    H229669   3.427   4.230   4.589  0.7306 -0.8727  1.2991
 2752TIP3   OH229670   6.756   0.428  14.926 -0.4863  0.5507  0.0028
 2752TIP3    H129671   6.803   0.436  15.009 -0.3410 -0.3450  0.0126
 2752TIP3    H229672   6.707   0.510  14.919  0.9782  1.4555  0.0465
 2753TIP3   OH229673   2.325   2.628  12.312  0.9375 -0.2090 -0.0497
 2753TIP3    H129674   2.272   2.576  12.252  1.1821 -1.9365  1.1572
 2753TIP3    H229675   2.394   2.665  12.258 -0.6026  0.8829 -1.3757
 2754TIP3   OH229676   6.335   3.988  15.885  0.1263 -0.5305  0.2918
 2754TIP3    H129677   6.243   4.002  15.864  0.1889  1.2355  1.0027
 2754TIP3    H229678   6.335   3.918  15.951 -0.4467 -2.4044 -1.5915
 2755TIP3   OH229679   5.893   1.889   5.549 -0.1603 -0.2361  0.1969
 2755TIP3    H129680   5.980   1.868   5.581 -0.2902  1.3278  1.7120
 2755TIP3    H229681   5.837   1.886   5.627 -1.2725 -0.2195 -0.5722
 2756TIP3   OH229682   0.780   4.404  13.594 -0.4363 -0.4335 -0.2522
 2756TIP3    H129683   0.790   4.379  13.685  0.5771  0.6648 -0.0347
 2756TIP3    H229684   0.817   4.331  13.544 -0.1277 -0.6212  0.2504
 2757TIP3   OH229685   1.556   5.868  16.709 -0.0789  0.6324  0.3846
 2757TIP3    H129686   1.652   5.865  16.715  0.0391  1.2558 -0.8693
 2757TIP3    H229687   1.527   5.860  16.799  1.0815 -1.5989  0.6449
 2758TIP3   OH229688   1.430   4.143  16.960 -0.0747  0.6663 -0.6770
 2758TIP3    H129689   1.394   4.211  16.902 -1.9968 -0.3107 -0.6926
 2758TIP3    H229690   1.406   4.060  16.917  1.3415 -0.0520 -0.1399
 2759TIP3   OH229691   1.552   2.845  16.727  0.1949 -0.4293 -0.0206
 2759TIP3    H129692   1.644   2.872  16.723  0.1986 -0.4953 -0.4474
 2759TIP3    H229693   1.553   2.762  16.774  0.7604 -2.1085 -2.7605
 2760TIP3   OH229694   2.317   5.122   3.440  0.3504 -0.1967  0.1434
 2760TIP3    H129695   2.395   5.073   3.412 -0.0188 -0.8014  0.1425
 2760TIP3    H229696   2.344   5.214   3.437  1.1405 -0.4133  0.4020
 2761TIP3   OH229697   0.060   3.491   2.612  0.0761 -0.0653 -0.4504
 2761TIP3    H129698  -0.016   3.434   2.617  0.2227 -0.1607  0.8198
 2761TIP3    H229699   0.134   3.435   2.634  0.1340  0.7575  1.6245
 2762TIP3   OH229700   0.699   1.937   5.215 -0.5207 -0.2194  0.0567
 2762TIP3    H129701   0.652   1.997   5.157 -0.6011 -0.7506 -0.4366
 2762TIP3    H229702   0.699   1.981   5.300  1.6589  1.6824 -0.8138
 2763TIP3   OH229703   2.622   3.665  13.806  0.0585 -0.0884 -0.0835
 2763TIP3    H129704   2.569   3.716  13.867  0.4338 -0.1440  0.2936
 2763TIP3    H229705   2.609   3.574  13.833  0.4618 -0.0925  0.1088
 2764TIP3   OH229706   4.519   4.514  15.995 -0.2795 -0.3302 -0.1999
 2764TIP3    H129707   4.593   4.468  15.956 -0.1220  0.1619 -0.4893
 2764TIP3    H229708   4.442   4.474  15.954 -0.0891  1.5157 -2.6022
 2765TIP3   OH229709   1.254   5.533   2.900  0.3268  0.2950 -0.4916
 2765TIP3    H129710   1.339   5.499   2.928 -0.3624 -2.5519 -1.5047
 2765TIP3    H229711   1.254   5.521   2.805 -1.4286 -0.3082 -0.4355
 2766TIP3   OH229712   3.797   1.998  14.777  0.5721  0.1692 -0.2840
 2766TIP3    H129713   3.879   1.955  14.755  0.7229  0.1735  0.2659
 2766TIP3    H229714   3.736   1.925  14.795  0.1283  0.1280 -1.7787
 2767TIP3   OH229715   4.475   2.188   3.741 -0.1680  0.1440 -0.3173
 2767TIP3    H129716   4.503   2.279   3.741  1.6637 -0.3695 -0.4571
 2767TIP3    H229717   4.389   2.189   3.783  0.1208  1.8424  0.3093
 2768TIP3   OH229718   3.674   4.527   3.102 -0.0833 -0.2352 -0.3010
 2768TIP3    H129719   3.579   4.517   3.101 -0.2571  0.9908  0.9530
 2768TIP3    H229720   3.689   4.620   3.081  0.9512 -0.7685 -2.2105
 2769TIP3   OH229721   6.561   2.339   1.860 -0.7632  0.3061 -0.1179
 2769TIP3    H129722   6.644   2.386   1.861  0.0257 -1.0246 -0.1277
 2769TIP3    H229723   6.497   2.402   1.895 -0.1120  1.9369 -1.7215
 2770TIP3   OH229724   6.331   2.020   2.400  0.6244 -0.0003  0.7991
 2770TIP3    H129725   6.394   1.952   2.377 -1.1692 -0.9496 -1.8148
 2770TIP3    H229726   6.355   2.095   2.345 -1.9430 -1.2930 -2.4406
 2771TIP3   OH229727   1.910   6.687   3.664 -0.3978 -0.4108 -0.1329
 2771TIP3    H129728   1.831   6.632   3.666 -1.1325  0.5973 -0.4970
 2771TIP3    H229729   1.927   6.708   3.755 -1.6322  0.8264 -0.1545
 2772TIP3   OH229730   2.990   0.983  15.137 -0.3074 -0.2426 -0.3769
 2772TIP3    H129731   3.073   1.029  15.151 -0.9233  0.5521  0.8506
 2772TIP3    H229732   3.009   0.920  15.068  0.9787  0.8075 -1.0408
 2773TIP3   OH229733   4.778   6.616   4.570 -0.3289 -0.0959 -0.6113
 2773TIP3    H129734   4.722   6.559   4.622 -1.2890  0.8190 -0.6128
 2773TIP3    H229735   4.867   6.589   4.592 -0.6899  0.4810  1.8037
 2774TIP3   OH229736   5.142   0.072  14.680  0.5930 -0.2781  0.5576
 2774TIP3    H129737   5.058   0.058  14.723  0.9071 -1.5897  0.7763
 2774TIP3    H229738   5.158   0.166  14.688 -2.0840  0.5096 -1.7731
 2775TIP3   OH229739   2.127   1.102  16.704  0.1256 -0.4731 -0.0239
 2775TIP3    H129740   2.111   1.036  16.773  0.6527  0.9421  1.5198
 2775TIP3    H229741   2.217   1.086  16.676 -0.4599 -1.7930 -1.2613
 2776TIP3   OH229742   2.116   1.943  13.271 -0.0838  0.0703 -0.0942
 2776TIP3    H129743   2.158   1.914  13.352  1.5726 -1.1142 -1.3151
 2776TIP3    H229744   2.187   1.948  13.207 -1.5650 -0.5909 -1.8997
 2777TIP3   OH229745   6.042   5.480   3.612  0.0529  0.1181  0.2833
 2777TIP3    H129746   5.975   5.424   3.571 -0.3832 -0.2207  1.4245
 2777TIP3    H229747   6.125   5.443   3.582 -0.2266 -1.2942  1.1770
 2778TIP3   OH229748   4.176   2.503   5.423 -0.2748 -0.0913  0.4169
 2778TIP3    H129749   4.138   2.591   5.424  0.6303  0.3157 -0.2170
 2778TIP3    H229750   4.266   2.515   5.394  0.5456 -0.9814  2.3744
 2779TIP3   OH229751   4.087   2.100  12.356 -0.4425  0.0746 -0.6115
 2779TIP3    H129752   4.063   2.189  12.331  0.8416  0.4050 -0.7409
 2779TIP3    H229753   4.114   2.059  12.274  2.0950  0.6149 -0.1386
 2780TIP3   OH229754   6.041   3.797   4.551  0.5963  0.7164  0.0065
 2780TIP3    H129755   5.978   3.735   4.588  1.8156  0.7344  2.3449
 2780TIP3    H229756   6.110   3.741   4.513  1.3766  0.5724  1.5429
 2781TIP3   OH229757   2.921   4.013   4.175  0.7498 -0.1991  0.0733
 2781TIP3    H129758   2.988   4.073   4.209  1.7164 -1.6705  0.8603
 2781TIP3    H229759   2.963   3.973   4.099  0.0400  0.2426 -0.5558
 2782TIP3   OH229760   0.317   4.040  16.914  0.5415  0.9709  0.5300
 2782TIP3    H129761   0.287   4.092  16.840  1.7267  2.9087  1.3239
 2782TIP3    H229762   0.279   3.953  16.900  0.2384  1.4360 -1.9960
 2783TIP3   OH229763   2.607   6.312   4.829 -0.9753  0.0276 -0.5013
 2783TIP3    H129764   2.612   6.251   4.903 -1.0751 -0.4225 -0.8628
 2783TIP3    H229765   2.642   6.394   4.864  0.2586 -0.5458 -0.3439
 2784TIP3   OH229766   1.269   2.677   1.410  0.0846 -0.1452  0.3439
 2784TIP3    H129767   1.277   2.676   1.505 -0.5922  0.0300  0.4082
 2784TIP3    H229768   1.192   2.622   1.391 -0.7798  1.1141  0.0231
 2785TIP3   OH229769   3.926   3.070   0.765 -0.2756  0.3762 -0.6090
 2785TIP3    H129770   4.016   3.100   0.774 -0.8504  2.0794 -0.2901
 2785TIP3    H229771   3.895   3.059   0.855 -0.1132 -1.2120 -0.7029
 2786TIP3   OH229772   3.020   1.105  13.818 -0.2856  0.2875 -0.1700
 2786TIP3    H129773   3.083   1.033  13.816  0.0641  0.5949 -0.1496
 2786TIP3    H229774   3.003   1.125  13.726  3.1681  3.2821 -0.3753
 2787TIP3   OH229775   5.872   6.446   6.274  0.7714 -0.4110 -0.9193
 2787TIP3    H129776   5.807   6.448   6.344  1.6105 -1.5193 -0.0858
 2787TIP3    H229777   5.839   6.510   6.210 -0.2164  0.3350  0.2798
 2788TIP3   OH229778   2.544   4.401  11.441  0.2980 -0.4595 -0.3774
 2788TIP3    H129779   2.563   4.369  11.352  2.1347 -2.2082  0.5514
 2788TIP3    H229780   2.485   4.336  11.478  0.5499 -0.4361  0.0769
 2789TIP3   OH229781   4.915   4.007   2.994 -0.1632 -0.1198 -0.0414
 2789TIP3    H129782   4.825   3.976   3.001  0.6040 -2.3353  0.7420
 2789TIP3    H229783   4.932   4.052   3.077  0.1810 -1.8558  0.8662
 2790TIP3   OH229784   1.789   3.739  15.516  0.1731  0.0399  0.0578
 2790TIP3    H129785   1.820   3.830  15.518  0.7794 -0.0866 -1.8795
 2790TIP3    H229786   1.696   3.745  15.536  0.5622  0.8645  1.8229
 2791TIP3   OH229787   6.782   2.843  15.768  0.6456  0.4837 -0.8780
 2791TIP3    H129788   6.736   2.855  15.685  0.9489 -0.8125 -1.2530
 2791TIP3    H229789   6.745   2.763  15.805  0.9815  0.6910 -0.0826
 2792TIP3   OH229790   0.486   2.208   3.356  0.0477  0.1785  0.0376
 2792TIP3    H129791   0.413   2.147   3.341 -0.9158  0.9310  1.4765
 2792TIP3    H229792   0.501   2.248   3.270  0.0195 -1.3185 -0.7018
 2793TIP3   OH229793   1.653   2.454  12.014  0.0178 -0.1915  0.0230
 2793TIP3    H129794   1.696   2.381  11.968 -0.1629 -0.4705  0.2888
 2793TIP3    H229795   1.636   2.420  12.101  3.9357  1.5796  1.7145
 2794TIP3   OH229796   2.467   5.578  12.010 -0.1274 -0.2417 -0.9018
 2794TIP3    H129797   2.421   5.662  11.999 -1.0618 -0.8709 -2.0656
 2794TIP3    H229798   2.548   5.589  11.960 -0.1036  0.0603 -0.8036
 2795TIP3   OH229799   2.664   5.824   2.190 -0.1414  0.0825  0.0586
 2795TIP3    H129800   2.574   5.854   2.178  0.5924  1.7452 -1.9682
 2795TIP3    H229801   2.707   5.845   2.108  2.5627  1.0637  1.5998
 2796TIP3   OH229802   5.955   0.605   3.253 -0.4398  0.2728  0.4033
 2796TIP3    H129803   5.971   0.694   3.284  2.2467  0.6708 -1.8259
 2796TIP3    H229804   5.902   0.616   3.174  1.7250  0.1822 -1.1544
 2797TIP3   OH229805   1.445   0.746  16.477  0.5328 -0.1283 -0.8340
 2797TIP3    H129806   1.437   0.797  16.397 -0.3406  0.9464 -0.0829
 2797TIP3    H229807   1.376   0.680  16.472  0.5267 -0.1074 -0.9972
 2798TIP3   OH229808   1.264   2.104  15.109  0.5177 -0.1570  0.4042
 2798TIP3    H129809   1.251   2.192  15.144 -0.9267 -0.0078 -0.4282
 2798TIP3    H229810   1.312   2.117  15.027 -0.6406 -0.0192 -0.2727
 2799TIP3   OH229811   1.595   1.291   0.313  0.5401  0.1256  0.1147
 2799TIP3    H129812   1.574   1.198   0.300 -1.9300  0.6356 -0.0559
 2799TIP3    H229813   1.527   1.338   0.266  2.3389  2.0885 -0.7011
 2800TIP3   OH229814   2.545   1.733  14.144 -0.1047 -0.5811 -0.1816
 2800TIP3    H129815   2.471   1.790  14.123 -1.3268 -2.0140  0.0114
 2800TIP3    H229816   2.593   1.724  14.061 -1.7937 -1.8602 -1.0969
 2801TIP3   OH229817   6.228   5.247  12.637 -0.5534  0.2338 -0.0942
 2801TIP3    H129818   6.151   5.224  12.585 -0.8863 -0.7318  0.7815
 2801TIP3    H229819   6.254   5.165  12.679  1.4675  0.3488 -0.9977
 2802TIP3   OH229820   6.065   5.478   2.772  0.0977  0.1886 -0.0983
 2802TIP3    H129821   6.098   5.568   2.763 -0.9131  0.6047  0.3050
 2802TIP3    H229822   5.997   5.483   2.839  0.3383 -0.9689  0.2623
 2803TIP3   OH229823   4.702   1.813  13.841  0.0242  0.4387 -0.2118
 2803TIP3    H129824   4.613   1.839  13.819 -0.1998 -0.6533 -0.6531
 2803TIP3    H229825   4.693   1.764  13.923  0.6215  2.8819  1.4315
 2804TIP3   OH229826   4.010   1.110   4.624  0.1737 -0.0078 -0.2530
 2804TIP3    H129827   4.101   1.082   4.613 -0.0348 -0.3297 -1.2746
 2804TIP3    H229828   4.013   1.171   4.698  1.2388  0.0815 -0.3447
 2805TIP3   OH229829   4.805   0.200   4.385  0.0289  0.5008  0.7760
 2805TIP3    H129830   4.855   0.278   4.359  0.6976 -0.0232  0.4622
 2805TIP3    H229831   4.851   0.127   4.344 -2.5611  0.1974 -1.9176
 2806TIP3   OH229832   1.031   0.596   3.304 -0.3259  0.1858 -0.0741
 2806TIP3    H129833   1.124   0.582   3.288  0.1062  1.4677  1.1125
 2806TIP3    H229834   1.015   0.554   3.388 -0.8422 -0.0945 -0.3107
 2807TIP3   OH229835   0.910   2.861  15.739  0.1045  0.9892  0.1157
 2807TIP3    H129836   0.940   2.829  15.824 -1.1747 -1.1770 -0.1707
 2807TIP3    H229837   0.947   2.799  15.676 -0.4830  1.4893 -0.7387
 2808TIP3   OH229838   2.534   0.765  16.189 -0.1273  0.3850  0.4238
 2808TIP3    H129839   2.589   0.741  16.115  2.1174 -1.1588  2.4417
 2808TIP3    H229840   2.446   0.734  16.166  0.7933 -1.2873 -1.0251
 2809TIP3   OH229841   2.985   6.071  11.432 -0.2319  0.6532 -0.2791
 2809TIP3    H129842   2.899   6.113  11.428 -0.5079  0.3258  1.5393
 2809TIP3    H229843   2.992   6.039  11.522  0.7180 -1.6287 -1.1095
 2810TIP3   OH229844   4.258   1.108  12.503 -0.7387  0.6534  0.8430
 2810TIP3    H129845   4.273   1.122  12.597 -1.1369  0.3866  0.9500
 2810TIP3    H229846   4.163   1.099  12.496 -0.6159 -0.6346  0.5921
 2811TIP3   OH229847   5.189   3.602  13.730 -0.1107  0.3967  0.0212
 2811TIP3    H129848   5.207   3.546  13.805  0.6278 -0.9392 -1.0915
 2811TIP3    H229849   5.094   3.600  13.721 -0.0687 -1.2950 -0.3910
 2812TIP3   OH229850   2.278   2.124  12.086  0.9104  0.6563 -0.1043
 2812TIP3    H129851   2.298   2.055  12.149 -0.3160 -0.6130 -1.0278
 2812TIP3    H229852   2.258   2.200  12.140 -0.9703 -0.6167  1.1617
 2813TIP3   OH229853   2.754   4.607  12.536 -0.9985  0.3328  0.5192
 2813TIP3    H129854   2.777   4.588  12.445 -0.2098 -3.4260  1.3320
 2813TIP3    H229855   2.659   4.614  12.536 -1.6957 -4.9750 -0.0744
 2814TIP3   OH229856   2.180   5.853   3.725  0.2270 -0.1959  0.0593
 2814TIP3    H129857   2.101   5.907   3.719 -0.6610 -1.4276  0.3889
 2814TIP3    H229858   2.251   5.915   3.709 -0.7571  1.0586  0.2921
 2815TIP3   OH229859   3.555   6.380  13.699  0.9395  0.2229 -0.1034
 2815TIP3    H129860   3.644   6.344  13.702  0.5779 -0.7279 -0.3258
 2815TIP3    H229861   3.498   6.303  13.706  0.1384  0.7546 -0.5981
 2816TIP3   OH229862   3.172   4.868   2.815 -0.3734 -0.2662 -0.5342
 2816TIP3    H129863   3.095   4.914   2.847  0.3052  0.3449  0.2699
 2816TIP3    H229864   3.137   4.789   2.773 -1.4293 -0.0177 -0.1585
 2817TIP3   OH229865   5.222   6.435  12.274  0.0687 -0.2347 -0.5612
 2817TIP3    H129866   5.230   6.515  12.326  1.6171 -0.6787 -0.0409
 2817TIP3    H229867   5.156   6.455  12.208 -0.2304  1.1484  0.1250
 2818TIP3   OH229868   4.580   6.097  15.784 -0.0832  0.0417  0.6091
 2818TIP3    H129869   4.524   6.022  15.805  0.8228 -1.2344 -1.1865
 2818TIP3    H229870   4.537   6.172  15.824 -2.0012 -1.1756  0.9557
 2819TIP3   OH229871   4.621   4.526  11.340 -0.4338 -0.1749  0.1260
 2819TIP3    H129872   4.529   4.552  11.343 -0.6378 -0.7704 -0.6266
 2819TIP3    H229873   4.666   4.600  11.299  0.0277  1.6347  3.5250
 2820TIP3   OH229874   4.207   5.224  14.058  0.3355  0.4722 -0.6992
 2820TIP3    H129875   4.118   5.192  14.067  0.7943 -0.4414  0.9575
 2820TIP3    H229876   4.241   5.179  13.980 -0.9198  1.6183 -1.9667
 2821TIP3   OH229877   1.605   4.300   1.509 -0.3656 -0.1930 -0.2090
 2821TIP3    H129878   1.629   4.208   1.505 -0.2331 -0.2102  0.8239
 2821TIP3    H229879   1.511   4.300   1.523 -0.2408 -0.1919  0.6775
 2822TIP3   OH229880   2.601   4.442   2.589 -0.2933  0.0980 -0.2567
 2822TIP3    H129881   2.521   4.390   2.582 -1.5332  1.7835  0.7989
 2822TIP3    H229882   2.594   4.506   2.518 -0.3003  0.7860  0.3634
 2823TIP3   OH229883   6.049   4.286  10.819 -0.9263  0.1425  0.2696
 2823TIP3    H129884   5.961   4.321  10.806 -0.1050  1.5888 -1.8882
 2823TIP3    H229885   6.094   4.353  10.869  0.0134  1.2601 -1.9664
 2824TIP3   OH229886   3.425   1.347   6.170 -0.3709 -0.8045  0.0806
 2824TIP3    H129887   3.404   1.345   6.264 -2.4532 -0.8143 -0.3403
 2824TIP3    H229888   3.443   1.439   6.152 -0.0008 -0.7954  0.4634
 2825TIP3   OH229889   3.528   4.590   4.319  0.9099 -0.2339  0.4288
 2825TIP3    H129890   3.452   4.532   4.315  1.5482 -1.0672 -0.1158
 2825TIP3    H229891   3.603   4.531   4.316  1.6097  0.4885  2.2177
 2826TIP3   OH229892   2.435   6.247  13.421  0.1723  0.3989  0.1321
 2826TIP3    H129893   2.366   6.186  13.395  0.1696  0.8819 -1.0651
 2826TIP3    H229894   2.388   6.324  13.454  0.1581  0.3749  0.1692
 2827TIP3   OH229895   2.796   0.878   5.562 -0.3839  0.2412  0.5311
 2827TIP3    H129896   2.822   0.809   5.500  2.8599  1.3749  0.4170
 2827TIP3    H229897   2.858   0.949   5.545 -0.6325  1.3600  3.7360
 2828TIP3   OH229898   5.839   4.590  15.438  0.2820 -0.5713 -0.3965
 2828TIP3    H129899   5.842   4.674  15.485 -0.6469  0.8562 -2.7031
 2828TIP3    H229900   5.749   4.559  15.451  0.2013 -0.4774 -0.7284
 2829TIP3   OH229901   0.937   2.785  16.020  0.2167  0.5982 -0.4305
 2829TIP3    H129902   0.910   2.876  16.022 -0.5976  0.3676 -0.7186
 2829TIP3    H229903   0.956   2.763  16.111 -2.8498  0.0992  0.1786
 2830TIP3   OH229904   3.710   3.474  16.994  0.0782 -0.0996  0.1240
 2830TIP3    H129905   3.619   3.445  16.993 -0.1169  0.5075 -0.9493
 2830TIP3    H229906   3.705   3.570  16.999  0.6827 -0.1104  1.2964
 2831TIP3   OH229907   3.223   4.188  15.041 -0.1068 -0.4796 -0.2263
 2831TIP3    H129908   3.251   4.133  14.968 -3.7433 -1.0445 -1.3659
 2831TIP3    H229909   3.224   4.277  15.005  1.4759 -0.2806  0.2247
 2832TIP3   OH229910   1.895   1.792  13.239 -0.9193 -0.3056 -0.6933
 2832TIP3    H129911   1.858   1.835  13.161 -1.2579  2.7211  0.9960
 2832TIP3    H229912   1.949   1.859  13.280  1.0197 -2.5048  0.6098
 2833TIP3   OH229913   1.439   5.911  16.456 -0.4798 -0.2998  0.0974
 2833TIP3    H129914   1.483   5.924  16.540  1.5701  0.4907 -0.9943
 2833TIP3    H229915   1.479   5.832  16.420 -1.2742 -0.5817 -0.1753
 2834TIP3   OH229916   4.132   5.858   3.205  0.2766  0.0743  0.0239
 2834TIP3    H129917   4.174   5.809   3.275  1.5292  0.6855 -0.2636
 2834TIP3    H229918   4.163   5.817   3.124 -1.6803 -1.0545 -0.2166
 2835TIP3   OH229919   1.861   6.716  16.053  0.4156  0.3095 -0.2752
 2835TIP3    H129920   1.864   6.633  16.102 -1.4689  0.7673  0.6973
 2835TIP3    H229921   1.863   6.689  15.961 -3.1112 -1.1033 -0.0779
 2836TIP3   OH229922   5.297   2.260   4.183  0.2646 -0.6658 -0.4103
 2836TIP3    H129923   5.359   2.187   4.182  0.5833 -0.3989 -1.0348
 2836TIP3    H229924   5.211   2.219   4.186  0.4474 -1.0346  2.4050
 2837TIP3   OH229925   3.428   5.639  16.483  0.2471  0.2018 -0.0643
 2837TIP3    H129926   3.505   5.646  16.426 -1.0316  0.9718 -1.7726
 2837TIP3    H229927   3.384   5.559  16.453  0.7215 -0.6592  1.4118
 2838TIP3   OH229928   2.169   6.215  12.968  0.8508 -0.4684 -0.2646
 2838TIP3    H129929   2.257   6.216  13.006 -0.0858  1.4566  2.0980
 2838TIP3    H229930   2.149   6.307  12.953 -0.7136 -0.8938 -0.9252
 2839TIP3   OH229931   2.796   2.811   3.294  0.4371 -0.2055 -0.5626
 2839TIP3    H129932   2.715   2.852   3.323  0.1157  1.3157 -3.2464
 2839TIP3    H229933   2.859   2.883   3.292  1.5311 -1.1137  0.2400
 2840TIP3   OH229934   6.101   0.417  16.871 -0.2046  0.2997 -0.3656
 2840TIP3    H129935   6.170   0.351  16.877  1.7474  2.2980  1.0291
 2840TIP3    H229936   6.148   0.500  16.866 -2.5508  1.6596 -1.4548
 2841TIP3   OH229937   1.012   4.217   2.096 -0.7994 -0.5278 -0.4203
 2841TIP3    H129938   0.948   4.285   2.074 -0.6282 -0.5202 -0.9084
 2841TIP3    H229939   1.095   4.264   2.105 -1.3547  0.0010  3.4613
 2842TIP3   OH229940   5.155   6.330  12.824  0.1535 -0.0606 -0.1476
 2842TIP3    H129941   5.147   6.425  12.821  0.1575 -0.0866 -1.0205
 2842TIP3    H229942   5.241   6.314  12.865 -0.0925  0.2936  0.5249
 2843TIP3   OH229943   2.966   3.871   4.939 -0.4750  0.1821 -0.6066
 2843TIP3    H129944   2.940   3.882   4.847 -4.0594  1.5415  0.4199
 2843TIP3    H229945   2.959   3.777   4.955  1.3936 -0.2541 -1.9384
 2844TIP3   OH229946   0.396   2.807  15.659 -0.1102  0.1590 -0.3980
 2844TIP3    H129947   0.310   2.783  15.694 -0.6155 -1.4650 -2.5952
 2844TIP3    H229948   0.384   2.897  15.627 -0.6113  0.3906  0.4075
 2845TIP3   OH229949   4.823   6.036  16.136  0.2730 -0.2247 -0.4013
 2845TIP3    H129950   4.734   6.047  16.103  0.3021  0.5656 -0.2258
 2845TIP3    H229951   4.816   5.965  16.200 -0.0311 -0.8525 -1.1195
 2846TIP3   OH229952   1.877   5.663   3.343 -0.5910 -0.4273 -0.3469
 2846TIP3    H129953   1.897   5.650   3.436 -0.1479  1.3157 -0.1620
 2846TIP3    H229954   1.962   5.670   3.301 -0.7490  1.5539 -0.4230
 2847TIP3   OH229955   0.464   6.350   6.018 -0.0209  0.2032 -0.6278
 2847TIP3    H129956   0.421   6.272   5.982  0.4616 -0.3994  0.0511
 2847TIP3    H229957   0.394   6.398   6.063 -0.7476  1.2591 -2.7789
 2848TIP3   OH229958   4.775   1.985  12.993 -0.7482 -0.3594  0.0228
 2848TIP3    H129959   4.827   2.045  12.939 -0.8323 -0.5555 -0.2801
 2848TIP3    H229960   4.702   2.038  13.025 -0.3107 -0.0566  0.5343
 2849TIP3   OH229961   4.250   2.233   5.496 -0.1020 -0.1473  0.1724
 2849TIP3    H129962   4.187   2.207   5.563 -0.0136 -0.6725  0.0563
 2849TIP3    H229963   4.237   2.327   5.486 -3.2547 -0.7047 -2.2628
 2850TIP3   OH229964   0.099   5.390   5.144 -0.0609 -0.0627 -0.1510
 2850TIP3    H129965   0.017   5.400   5.192  0.0916 -0.5090  0.2046
 2850TIP3    H229966   0.121   5.479   5.115 -0.5260  0.0987 -0.0129
 2851TIP3   OH229967   5.457   6.211  11.017  0.2200 -0.5144 -0.2113
 2851TIP3    H129968   5.444   6.128  11.062  0.9938 -0.0512  0.9204
 2851TIP3    H229969   5.416   6.276  11.074  2.4223  0.2546  0.6370
 2852TIP3   OH229970   6.702   6.476  11.389  0.2505  0.0127 -0.0683
 2852TIP3    H129971   6.738   6.453  11.475 -1.3548 -1.4614  0.2792
 2852TIP3    H229972   6.765   6.441  11.326 -0.7018 -3.0294  0.5017
 2853TIP3   OH229973   3.899   4.711  12.430  0.2565  0.2412 -0.5748
 2853TIP3    H129974   3.844   4.654  12.375 -0.3611  0.1503  0.1100
 2853TIP3    H229975   3.987   4.698  12.396  0.2696 -1.7783  0.0706
 2854TIP3   OH229976   4.247   3.809  14.660  0.4043  0.3148 -0.3024
 2854TIP3    H129977   4.329   3.760  14.660 -0.5753 -1.4543  1.5995
 2854TIP3    H229978   4.218   3.806  14.569  1.2723 -1.0921 -0.5598
 2855TIP3   OH229979   4.232   1.806  13.192  0.6965 -0.0702 -0.2195
 2855TIP3    H129980   4.262   1.849  13.271  2.3749 -2.1922  0.3865
 2855TIP3    H229981   4.138   1.823  13.189  0.8020  0.9945  1.5972
 2856TIP3   OH229982   5.685   3.770   1.407  0.5131 -0.5362 -0.0585
 2856TIP3    H129983   5.693   3.704   1.337  1.9511 -1.7186  1.1335
 2856TIP3    H229984   5.701   3.721   1.487  0.9404  1.1707  0.9434
 2857TIP3   OH229985   3.003   1.431   5.646  0.0893  0.2800  0.1870
 2857TIP3    H129986   2.940   1.477   5.702  2.1867  0.6754  2.3628
 2857TIP3    H229987   3.086   1.439   5.692  1.2729 -2.4484 -1.2734
 2858TIP3   OH229988   4.754   0.801   0.759 -0.6989 -0.7567 -0.1570
 2858TIP3    H129989   4.718   0.717   0.787 -0.0889 -1.0327 -0.1881
 2858TIP3    H229990   4.844   0.782   0.733  0.3027  0.3361  2.1954
 2859TIP3   OH229991   1.401   1.483  15.826 -0.4932 -0.0089 -0.2621
 2859TIP3    H129992   1.438   1.467  15.913  0.7767 -1.0358 -0.9615
 2859TIP3    H229993   1.371   1.574  15.829  1.8242  0.8073  0.4716
 2860TIP3   OH229994   5.531   4.166  16.057 -0.2939  0.4122  0.4741
 2860TIP3    H129995   5.447   4.210  16.070 -0.0217  0.8923  0.6800
 2860TIP3    H229996   5.564   4.202  15.975 -1.0347 -1.0166 -0.4742
 2861TIP3   OH229997   2.346   3.607  15.152 -0.5079  0.3656  0.3201
 2861TIP3    H129998   2.304   3.547  15.214  0.6175 -0.9287 -0.1220
 2861TIP3    H229999   2.429   3.630  15.192 -0.4598  0.7721 -0.0024
 2862TIP3   OH230000   3.327   0.439  14.693  1.0128  0.1194 -0.8134
 2862TIP3    H130001   3.295   0.482  14.772 -0.4774 -0.8470 -0.8518
 2862TIP3    H230002   3.422   0.453  14.694  0.6573  2.9421 -0.5954
 2863TIP3   OH230003   3.212   4.793   0.519 -0.3553 -0.0956  0.2262
 2863TIP3    H130004   3.158   4.749   0.584 -0.5302  1.5415  1.2486
 2863TIP3    H230005   3.150   4.843   0.466 -0.0552 -0.0586 -0.0952
 2864TIP3   OH230006   4.276   1.450   3.608 -0.0901 -0.1081  0.1931
 2864TIP3    H130007   4.228   1.410   3.536  0.0526  1.4841 -0.8170
 2864TIP3    H230008   4.209   1.466   3.675 -0.4320 -0.4946 -0.0463
 2865TIP3   OH230009   0.264   4.190   2.618 -0.5463 -0.0693 -0.1222
 2865TIP3    H130010   0.172   4.165   2.623 -0.6520  0.2554 -0.3850
 2865TIP3    H230011   0.263   4.276   2.576 -0.1745  0.2538  0.5066
 2866TIP3   OH230012   5.631   3.895   4.021  0.0060 -0.7160 -0.2946
 2866TIP3    H130013   5.551   3.943   3.999 -0.0402 -0.2629  0.7979
 2866TIP3    H230014   5.683   3.958   4.070  0.9732 -1.0654 -0.8454
 2867TIP3   OH230015   4.277   4.787  15.686  0.4009 -0.0280 -0.5473
 2867TIP3    H130016   4.369   4.760  15.684  0.4991  0.3166 -0.7199
 2867TIP3    H230017   4.235   4.732  15.620  0.1355 -1.4190  0.7328
 2868TIP3   OH230018   2.032   4.851  14.100  0.3594 -0.1540 -0.1394
 2868TIP3    H130019   2.087   4.777  14.127  0.8944 -0.4098 -1.7658
 2868TIP3    H230020   2.094   4.921  14.080 -0.2140  1.5770  3.4144
 2869TIP3   OH230021   0.910   2.819   4.588 -0.2808  0.2964 -0.1139
 2869TIP3    H130022   0.826   2.863   4.605  0.3625  2.2016 -1.5070
 2869TIP3    H230023   0.914   2.810   4.493  1.0447  0.1257 -0.0662
 2870TIP3   OH230024   4.870   6.315  15.695  0.7811  0.0547 -0.0676
 2870TIP3    H130025   4.918   6.281  15.771  1.8518  1.8891  0.1513
 2870TIP3    H230026   4.787   6.347  15.731 -1.3541 -4.1505 -0.6087
 2871TIP3   OH230027   2.337   4.996  15.584 -0.0394  0.1316 -0.1067
 2871TIP3    H130028   2.381   5.005  15.499  1.8367  2.6690  0.9949
 2871TIP3    H230029   2.391   4.933  15.632 -0.5133 -0.5378 -0.4513
 2872TIP3   OH230030   5.144   1.655  13.741  0.4242  0.1990 -0.2946
 2872TIP3    H130031   5.162   1.635  13.833 -0.2215 -2.5583 -0.6942
 2872TIP3    H230032   5.078   1.724  13.744  1.9529  1.6824  1.2575
 2873TIP3   OH230033   4.219   5.848   1.551 -0.4540 -0.5113 -0.6946
 2873TIP3    H130034   4.184   5.779   1.608  1.0909 -1.2979 -0.6387
 2873TIP3    H230035   4.157   5.853   1.479 -2.6118  0.7023  1.1240
 2874TIP3   OH230036   2.545   4.300   3.159  0.0414 -0.2697  0.1129
 2874TIP3    H130037   2.542   4.329   3.250 -0.5197 -2.0262  0.6878
 2874TIP3    H230038   2.489   4.363   3.113 -0.4595  0.0726  1.1439
 2875TIP3   OH230039   6.585   0.246   2.014 -0.3486 -0.7233  0.5313
 2875TIP3    H130040   6.523   0.179   1.986  0.8480 -2.3037  1.4920
 2875TIP3    H230041   6.589   0.237   2.109 -0.3646  0.9371  0.7230
 2876TIP3   OH230042   3.379   2.650  12.841 -0.0904 -0.1007  0.4993
 2876TIP3    H130043   3.319   2.594  12.791 -0.6554 -1.3705  2.4885
 2876TIP3    H230044   3.331   2.731  12.855 -0.2409 -0.0493 -0.2831
 2877TIP3   OH230045   5.039   1.411  16.429  0.3632 -0.0516  0.2482
 2877TIP3    H130046   4.964   1.468  16.413  0.9102  0.5027 -0.4035
 2877TIP3    H230047   5.001   1.333  16.471 -0.4960  0.4426  0.4168
 2878TIP3   OH230048   4.500   0.971  13.687 -0.2556  0.2564 -0.1176
 2878TIP3    H130049   4.434   1.011  13.631 -0.8887  3.4174  2.5863
 2878TIP3    H230050   4.583   1.008  13.656 -0.2170 -0.3921 -0.8223
 2879TIP3   OH230051   2.399   1.366  12.087  0.4084  0.2659 -0.1350
 2879TIP3    H130052   2.387   1.315  12.007 -1.5221 -0.6440  0.6467
 2879TIP3    H230053   2.327   1.430  12.086 -0.7376 -0.8986  1.6226
 2880TIP3   OH230054   6.341   4.200  10.770 -0.1893 -0.6043 -0.2828
 2880TIP3    H130055   6.330   4.120  10.718 -0.4524  0.0024 -1.1764
 2880TIP3    H230056   6.326   4.271  10.708  0.1727  0.1455  0.4759
 2881TIP3   OH230057   2.651   1.337   4.890 -0.0832 -0.5512 -0.1443
 2881TIP3    H130058   2.701   1.386   4.955 -1.8116 -0.3093  1.0835
 2881TIP3    H230059   2.696   1.354   4.807  1.1785  0.5458  0.7253
 2882TIP3   OH230060   5.467   3.731  16.791 -0.3402 -0.0054  0.1932
 2882TIP3    H130061   5.398   3.677  16.753 -0.4417 -0.7559  1.3804
 2882TIP3    H230062   5.531   3.743  16.720 -0.5646 -1.2584 -0.2401
 2883TIP3   OH230063   1.343   3.629  10.907  0.2273 -0.5456  0.0442
 2883TIP3    H130064   1.421   3.576  10.927  0.2998 -0.6106 -0.4002
 2883TIP3    H230065   1.348   3.644  10.813 -0.0875 -0.2081  0.0815
 2884TIP3   OH230066   6.009   6.650   4.466 -0.4123  0.0057  0.6890
 2884TIP3    H130067   5.922   6.638   4.503 -0.0843  0.0528  1.5071
 2884TIP3    H230068   6.023   6.572   4.411 -1.6279  0.8299 -0.8381
 2885TIP3   OH230069   0.400   5.003   2.862 -0.1541 -0.8143 -0.4032
 2885TIP3    H130070   0.490   4.970   2.865  0.6202  1.2331  1.2095
 2885TIP3    H230071   0.351   4.944   2.919  0.4826 -1.1192 -0.1649
 2886TIP3   OH230072   3.498   4.840  16.725  0.6514  0.1792  0.1293
 2886TIP3    H130073   3.440   4.772  16.692 -0.0565  0.5592  0.5671
 2886TIP3    H230074   3.473   4.919  16.676 -0.5670  0.8060  1.6644
 2887TIP3   OH230075   1.780   6.680   2.107 -0.2649  0.6494  0.2566
 2887TIP3    H130076   1.757   6.768   2.135 -0.5545  0.1706  1.5929
 2887TIP3    H230077   1.826   6.642   2.182 -0.6673 -0.5377 -0.0694
 2888TIP3   OH230078   0.442   6.202   2.559 -0.2527 -0.3122  0.0601
 2888TIP3    H130079   0.385   6.139   2.603  0.7585 -2.4544 -1.5594
 2888TIP3    H230080   0.524   6.198   2.608 -0.6848  1.0902  0.9863
 2889TIP3   OH230081   0.150   6.148  14.683 -0.2461  0.7736  0.0164
 2889TIP3    H130082   0.079   6.084  14.689 -1.9785  2.4536 -1.3184
 2889TIP3    H230083   0.187   6.135  14.596 -1.7176  2.5786 -0.9518
 2890TIP3   OH230084   0.772   1.096   4.839 -0.3787 -0.0650  0.3303
 2890TIP3    H130085   0.753   1.149   4.917  1.2556 -0.7153  1.2203
 2890TIP3    H230086   0.688   1.057   4.815 -0.6938 -0.9488  2.6048
 2891TIP3   OH230087   5.005   2.991  12.647 -0.2696 -0.2916  0.1305
 2891TIP3    H130088   5.035   2.967  12.735 -0.7870 -1.7170 -0.0510
 2891TIP3    H230089   4.999   2.908  12.601 -3.1171  0.0356 -0.2666
 2892TIP3   OH230090   1.471   0.675   5.943 -0.1983  0.2517 -0.6294
 2892TIP3    H130091   1.557   0.635   5.957 -1.4800 -2.1623  1.1327
 2892TIP3    H230092   1.488   0.769   5.941  2.2140  0.0396  2.3868
 2893TIP3   OH230093   3.726   3.393  11.889  0.1226 -0.4835  0.0407
 2893TIP3    H130094   3.728   3.322  11.954  2.0725  0.8389  1.5207
 2893TIP3    H230095   3.635   3.394  11.858 -0.1960 -2.9629  0.6754
 2894TIP3   OH230096   6.554   1.244   3.689  0.8523  0.3212  0.2837
 2894TIP3    H130097   6.526   1.159   3.657 -0.5822  0.6017  0.7202
 2894TIP3    H230098   6.507   1.307   3.635  2.3225  0.8836 -0.4111
 2895TIP3   OH230099   5.136   4.561   2.787 -0.1830 -0.1753  0.3218
 2895TIP3    H130100   5.227   4.586   2.804  0.3578 -0.6846 -1.5901
 2895TIP3    H230101   5.131   4.553   2.692 -1.3574 -3.2830  0.5345
 2896TIP3   OH230102   2.267   1.076   4.888  0.2997 -0.5769 -0.5085
 2896TIP3    H130103   2.269   1.011   4.817 -0.1337 -0.5529 -0.5426
 2896TIP3    H230104   2.360   1.091   4.909  0.4381 -0.5116 -1.1382
 2897TIP3   OH230105   4.396   5.653  13.171  0.7915  0.1235  0.8856
 2897TIP3    H130106   4.318   5.703  13.146  0.1366 -1.3232 -0.0807
 2897TIP3    H230107   4.361   5.573  13.211  1.7891 -0.3822  0.7682
 2898TIP3   OH230108   4.639   2.138   1.764  0.0108  0.0488 -0.2621
 2898TIP3    H130109   4.692   2.107   1.691  0.4155  0.4527 -0.1455
 2898TIP3    H230110   4.593   2.214   1.730  0.2419  0.2706 -0.0828
 2899TIP3   OH230111   1.791   5.299  13.338  0.2412  0.4204 -0.2129
 2899TIP3    H130112   1.750   5.334  13.259  0.0044  1.3506  0.3103
 2899TIP3    H230113   1.753   5.350  13.409 -0.0232 -0.8231  0.5729
 2900TIP3   OH230114   0.956   4.427   2.339 -0.3520  0.5809 -0.0453
 2900TIP3    H130115   0.962   4.457   2.429 -0.9333 -0.1068  0.2355
 2900TIP3    H230116   0.872   4.461   2.308 -0.1826  0.7630 -0.3053
 2901TIP3   OH230117   4.042   4.355   2.933 -0.0156 -0.1497 -0.2475
 2901TIP3    H130118   4.083   4.269   2.922  1.6306  0.6597 -0.8309
 2901TIP3    H230119   4.071   4.386   3.019  2.1964  1.1726 -1.3740
 2902TIP3   OH230120   2.767   5.667  14.162  0.1039  0.0222  0.2943
 2902TIP3    H130121   2.809   5.709  14.238  0.8566 -1.2833  0.6261
 2902TIP3    H230122   2.807   5.709  14.086  0.3298  0.3838  0.6091
 2903TIP3   OH230123   5.225   0.684  14.136  0.1710  0.2173  0.3990
 2903TIP3    H130124   5.244   0.612  14.196  0.7303  0.3083  0.3310
 2903TIP3    H230125   5.242   0.763  14.187 -0.4683  0.3043  0.4829
 2904TIP3   OH230126   4.487   6.397  12.098 -0.2935  0.3596  0.0245
 2904TIP3    H130127   4.558   6.346  12.058 -0.8453  0.1151 -0.6751
 2904TIP3    H230128   4.531   6.457  12.157  0.6421  1.2537 -1.5142
 2905TIP3   OH230129   2.027   5.224  16.119 -0.0718  0.5407  0.5707
 2905TIP3    H130130   2.068   5.156  16.067 -0.7825  0.6403 -0.1324
 2905TIP3    H230131   2.001   5.180  16.200  0.3206  0.2009  0.5143
 2906TIP3   OH230132   2.100   1.598  13.285 -0.3002  0.0346  0.1732
 2906TIP3    H130133   2.110   1.659  13.212  0.0159 -0.7376 -0.4472
 2906TIP3    H230134   2.012   1.614  13.318 -0.2334  0.8015 -0.0054
 2907TIP3   OH230135   6.490   1.667  15.077  0.5979  0.0757  0.1242
 2907TIP3    H130136   6.557   1.728  15.045  0.2936 -0.1271 -0.9364
 2907TIP3    H230137   6.493   1.676  15.172  0.9413  1.3429  0.0152
 2908TIP3   OH230138   2.868   1.986  12.025 -0.5347  0.1624  0.5142
 2908TIP3    H130139   2.794   1.978  11.964  0.8421  2.1406 -1.6355
 2908TIP3    H230140   2.828   2.009  12.108 -2.3928  0.2234 -0.3309
 2909TIP3   OH230141   4.757   4.756   3.727  0.0624  0.4229  0.2806
 2909TIP3    H130142   4.830   4.710   3.769  0.6838  0.2111 -0.9828
 2909TIP3    H230143   4.689   4.690   3.719  0.1629  0.3045  0.3916
 2910TIP3   OH230144   2.208   4.040  10.884 -0.2967 -0.1400 -0.5634
 2910TIP3    H130145   2.243   4.045  10.795  2.3381  1.0689  0.4164
 2910TIP3    H230146   2.247   3.960  10.920 -1.1703 -0.5046 -0.4118
 2911TIP3   OH230147   3.142   3.722   1.038 -0.3078 -0.0805  0.0197
 2911TIP3    H130148   3.109   3.707   0.949  3.0701 -0.7177 -1.2666
 2911TIP3    H230149   3.102   3.652   1.089 -1.3545 -0.4675 -1.2496
 2912TIP3   OH230150   1.673   3.813  15.807 -0.0153 -0.0182 -0.0373
 2912TIP3    H130151   1.671   3.753  15.733  0.0824 -0.0016 -0.0538
 2912TIP3    H230152   1.673   3.900  15.767  1.2098 -0.0095 -0.0517
 2913TIP3   OH230153   5.845   0.973   2.100 -0.4562  0.2007 -0.3549
 2913TIP3    H130154   5.808   0.936   2.020 -0.7728 -0.8506  0.2653
 2913TIP3    H230155   5.804   0.924   2.171  1.7905 -0.6999  0.3921
 2914TIP3   OH230156   5.186   5.520  14.483  0.4163  0.4246 -0.6093
 2914TIP3    H130157   5.187   5.615  14.495 -0.3158  0.3536  0.1034
 2914TIP3    H230158   5.099   5.502  14.448  0.8680  0.1019 -1.5951
 2915TIP3   OH230159   0.014   6.135  15.061 -0.2038  0.1418 -0.0864
 2915TIP3    H130160  -0.066   6.091  15.090 -0.5584  0.7244 -0.1758
 2915TIP3    H230161  -0.016   6.212  15.013  0.3632 -0.7532 -1.9805
 2916TIP3   OH230162   1.622   4.276  12.320  0.0613 -0.7301  0.2986
 2916TIP3    H130163   1.679   4.352  12.333 -0.8745  0.1315 -0.3905
 2916TIP3    H230164   1.678   4.200  12.335  1.1344  0.0948  0.5773
 2917TIP3   OH230165   6.010   4.864   3.446 -0.2157 -0.5503  0.0958
 2917TIP3    H130166   6.105   4.877   3.451 -0.0248 -1.7856 -0.1332
 2917TIP3    H230167   5.999   4.788   3.390 -1.4826  1.0860 -2.0179
 2918TIP3   OH230168   4.920   0.600  15.032  0.4492  0.0682 -0.1472
 2918TIP3    H130169   4.920   0.690  14.999 -1.2945  0.3254  0.4556
 2918TIP3    H230170   4.984   0.601  15.103 -0.6024  1.2390  0.8229
 2919TIP3   OH230171   3.221   5.290  13.101 -0.2664  0.4690 -0.3169
 2919TIP3    H130172   3.196   5.210  13.149 -0.7313  1.0614  0.4542
 2919TIP3    H230173   3.316   5.284  13.093 -0.1912  0.2862  0.5811
 2920TIP3   OH230174   6.681   0.220  16.553  0.4153 -0.1802  0.2240
 2920TIP3    H130175   6.618   0.184  16.616  0.4440 -0.3863  0.1378
 2920TIP3    H230176   6.765   0.217  16.599  0.7207 -1.8228 -0.3660
 2921TIP3   OH230177   5.772   4.220  16.561  0.0472 -0.2918  0.4327
 2921TIP3    H130178   5.765   4.233  16.655 -0.0001  2.0417  0.1768
 2921TIP3    H230179   5.688   4.250  16.526  0.5830  0.2540 -0.4438
 2922TIP3   OH230180   2.168   5.452   3.660  0.2862  0.0305 -0.1318
 2922TIP3    H130181   2.094   5.513   3.663  1.1216  1.0460  1.9264
 2922TIP3    H230182   2.141   5.380   3.718  0.1863 -0.5177 -0.8444
 2923TIP3   OH230183   4.844   1.167  15.169  0.1540 -0.3063 -0.3958
 2923TIP3    H130184   4.827   1.120  15.087 -2.2390 -1.0038  0.4268
 2923TIP3    H230185   4.914   1.229  15.147  0.7860 -1.6667 -2.4856
 2924TIP3   OH230186   2.492   6.741   4.289 -0.1522  0.3035  0.4813
 2924TIP3    H130187   2.554   6.670   4.305  1.5044  1.1261 -1.8254
 2924TIP3    H230188   2.433   6.706   4.222 -0.8910  0.2854  1.1214
 2925TIP3   OH230189   5.726   1.312  16.241  0.6197  0.4418  0.2227
 2925TIP3    H130190   5.665   1.238  16.245 -0.6841  1.4399 -0.3020
 2925TIP3    H230191   5.756   1.314  16.150 -0.4049  1.3291 -0.1238
 2926TIP3   OH230192   4.863   0.588  15.384 -0.3382 -0.2339 -0.5593
 2926TIP3    H130193   4.939   0.575  15.441 -1.1244 -0.8997  0.3709
 2926TIP3    H230194   4.873   0.677  15.350  0.7902 -0.2697 -0.3621
 2927TIP3   OH230195   1.044   3.097   5.346  0.2026 -0.1247 -0.2301
 2927TIP3    H130196   0.989   3.028   5.309 -0.6712  2.4247 -4.4080
 2927TIP3    H230197   1.133   3.065   5.334 -0.1957 -1.1147 -0.6955
 2928TIP3   OH230198   3.173   2.388   2.397 -0.9367 -0.0040  0.5102
 2928TIP3    H130199   3.212   2.459   2.448  1.8146 -1.2092  0.2400
 2928TIP3    H230200   3.152   2.321   2.461  0.5476 -0.6622  0.3415
 2929TIP3   OH230201   2.093   3.901  16.545  0.0465 -0.2627  0.0227
 2929TIP3    H130202   2.016   3.928  16.594  0.8690  0.7735  0.8111
 2929TIP3    H230203   2.107   3.972  16.482  0.0404 -0.7129 -0.4929
 2930TIP3   OH230204   2.627   5.310  12.130 -0.1997  0.1373 -0.4800
 2930TIP3    H130205   2.715   5.274  12.118 -0.1232  0.2671 -0.3084
 2930TIP3    H230206   2.634   5.401  12.105  0.3770  0.8844  2.0592
 2931TIP3   OH230207   3.239   4.851  17.067 -0.3852 -0.0185  0.2171
 2931TIP3    H130208   3.277   4.766  17.090 -0.6594 -0.2113 -0.0282
 2931TIP3    H230209   3.315   4.907  17.051 -0.1629 -0.6941 -1.3404
 2932TIP3   OH230210   4.015   4.075   3.604 -0.0978 -0.2820  0.0362
 2932TIP3    H130211   4.074   4.060   3.530 -0.4287 -2.5492  0.1609
 2932TIP3    H230212   3.931   4.098   3.564  0.4625  1.6167 -0.1663
 2933TIP3   OH230213   3.119   5.544  16.720  0.2832 -0.2808 -0.1442
 2933TIP3    H130214   3.068   5.598  16.780 -0.3731 -3.4313  2.3656
 2933TIP3    H230215   3.209   5.575  16.731 -0.0353  0.2011  1.3897
 2934TIP3   OH230216   1.699   3.158   4.957 -0.3903 -0.0179 -0.1637
 2934TIP3    H130217   1.607   3.132   4.962 -0.1395 -0.7303  1.1578
 2934TIP3    H230218   1.744   3.099   5.018  1.4926 -2.0431 -3.2126
 2935TIP3   OH230219   3.823   0.167   0.866 -0.0798  0.4004  0.2974
 2935TIP3    H130220   3.743   0.213   0.891 -1.4086 -1.5983 -0.0555
 2935TIP3    H230221   3.894   0.228   0.889 -1.6272  1.8359  1.5241
 2936TIP3   OH230222   6.656   1.271  12.334  0.7882 -0.2808 -0.5748
 2936TIP3    H130223   6.728   1.230  12.286  1.0903  0.6450 -0.9309
 2936TIP3    H230224   6.577   1.241  12.289  0.9626 -0.9346 -0.4609
 2937TIP3   OH230225   6.642   0.043   1.011 -0.6385 -0.0797 -0.4320
 2937TIP3    H130226   6.691   0.035   1.093  1.8094  1.0870 -1.6806
 2937TIP3    H230227   6.562   0.089   1.035 -0.0779  0.0567  1.3217
 2938TIP3   OH230228   5.700   5.570  16.666 -0.0054  0.0284  0.1261
 2938TIP3    H130229   5.725   5.495  16.720 -0.5760  0.3852  0.9167
 2938TIP3    H230230   5.614   5.596  16.700  0.4837  1.4636  0.3557
 2939TIP3   OH230231   2.698   5.431   5.394  0.3693 -0.4514 -0.3217
 2939TIP3    H130232   2.771   5.418   5.333 -1.0971  0.1827 -2.3168
 2939TIP3    H230233   2.731   5.494   5.458  1.3643  0.4179 -1.6291
 2940TIP3   OH230234   1.583   4.575   2.609  0.2313 -0.6312 -0.5307
 2940TIP3    H130235   1.649   4.643   2.595 -1.6540  1.8371  1.6324
 2940TIP3    H230236   1.590   4.554   2.702 -1.2515 -1.1765 -0.5145
 2941TIP3   OH230237   3.798   0.104  11.709 -0.5230 -0.2638  0.5048
 2941TIP3    H130238   3.723   0.129  11.764  0.7298  2.3684  1.1811
 2941TIP3    H230239   3.847   0.185  11.697  0.6629 -1.2882 -2.4288
 2942TIP3   OH230240   6.210   3.338   5.987 -0.1567 -0.4308  0.0992
 2942TIP3    H130241   6.120   3.341   6.019  0.2386  1.2580  1.1472
 2942TIP3    H230242   6.264   3.353   6.065  1.1838 -3.3630 -0.0995
 2943TIP3   OH230243   6.360   4.625  10.630 -0.3577  0.5063 -0.3118
 2943TIP3    H130244   6.384   4.537  10.603 -0.6768  0.2012  0.3650
 2943TIP3    H230245   6.388   4.681  10.558  1.5252  0.0687  0.0058
 2944TIP3   OH230246   3.999   5.806  12.663 -0.3812 -0.1428  0.3018
 2944TIP3    H130247   4.079   5.811  12.715 -0.2090  2.6255 -0.0745
 2944TIP3    H230248   3.939   5.868  12.705 -0.6082  1.3940 -2.0786
 2945TIP3   OH230249   1.209   2.746  11.787  0.5577 -0.4238  0.9279
 2945TIP3    H130250   1.123   2.766  11.749  1.3480  1.1112 -0.1859
 2945TIP3    H230251   1.217   2.806  11.861  0.4484 -0.9661  1.3831
 2946TIP3   OH230252   6.193   6.288   1.760  0.2064  0.2459 -0.6587
 2946TIP3    H130253   6.178   6.227   1.688 -2.4494 -0.1631  0.1457
 2946TIP3    H230254   6.200   6.374   1.719 -0.5297 -0.0684 -1.4572
 2947TIP3   OH230255   0.560   1.044  13.974 -0.0311  0.2705 -0.3605
 2947TIP3    H130256   0.636   0.986  13.982 -0.2658 -0.2230 -1.4906
 2947TIP3    H230257   0.594   1.131  13.998 -0.0953 -0.5182  3.1720
 2948TIP3   OH230258   2.217   5.709  14.954  0.3051 -0.0814 -0.1833
 2948TIP3    H130259   2.199   5.703  14.860  0.9572 -2.1006 -0.2089
 2948TIP3    H230260   2.197   5.622  14.988  0.1366  0.5998  1.5629
 2949TIP3   OH230261   3.524   4.324   4.057 -0.1777 -0.3511  0.0761
 2949TIP3    H130262   3.498   4.245   4.105  0.2371 -0.5296  0.0192
 2949TIP3    H230263   3.495   4.307   3.967  0.5043 -0.7406 -0.0807
 2950TIP3   OH230264   0.987   3.545  16.579 -0.7561 -0.0309  0.9700
 2950TIP3    H130265   1.039   3.592  16.644 -0.3627 -1.4781  1.7571
 2950TIP3    H230266   0.945   3.613  16.527  0.3626  1.1662  1.5884
 2951TIP3   OH230267   2.658   2.772   4.409 -0.0658 -0.5360  0.0376
 2951TIP3    H130268   2.664   2.715   4.333 -0.0597  0.9001 -1.0973
 2951TIP3    H230269   2.748   2.781   4.440 -0.1421 -1.5854  0.5819
 2952TIP3   OH230270   2.256   4.604   5.302 -0.0279 -0.1430  0.4905
 2952TIP3    H130271   2.184   4.628   5.360  0.6068 -1.1620  1.7536
 2952TIP3    H230272   2.313   4.682   5.301 -1.6744  1.1432 -1.4983
 2953TIP3   OH230273   1.416   2.848   2.847  0.4627  0.3888  0.1409
 2953TIP3    H130274   1.326   2.818   2.833  0.4068 -0.1650  1.5280
 2953TIP3    H230275   1.464   2.815   2.770 -0.0593 -1.3787  0.5162
 2954TIP3   OH230276   3.598   0.276   5.099 -0.6893  0.2511  0.1742
 2954TIP3    H130277   3.690   0.305   5.101 -1.0316  1.3635  2.2579
 2954TIP3    H230278   3.569   0.298   5.011  0.4422  1.9359  0.1683
 2955TIP3   OH230279   1.031   0.168  15.067 -0.6537 -1.2010  0.5569
 2955TIP3    H130280   1.086   0.244  15.046 -0.7882 -1.7481 -2.2759
 2955TIP3    H230281   1.091   0.106  15.109 -0.4202  0.1834  2.3906
 2956TIP3   OH230282   6.555   3.014   4.626 -0.1578 -0.3645 -0.3358
 2956TIP3    H130283   6.619   2.952   4.591  0.6012  0.1229  0.1637
 2956TIP3    H230284   6.592   3.042   4.710 -0.1753  1.2554 -0.8334
 2957TIP3   OH230285   1.181   5.794  16.446 -0.0650 -0.0072 -0.3647
 2957TIP3    H130286   1.155   5.739  16.520  0.3068  1.0726  0.5921
 2957TIP3    H230287   1.269   5.824  16.467  0.4893 -0.5380 -1.7716
 2958TIP3   OH230288   0.230   0.213  13.656  0.0152 -0.4162  1.0315
 2958TIP3    H130289   0.141   0.237  13.680  0.1664  2.4881 -0.8408
 2958TIP3    H230290   0.277   0.296  13.650  2.2680 -1.6738 -0.1518
 2959TIP3   OH230291   0.368   4.924   5.129  0.6416  0.2964 -0.0698
 2959TIP3    H130292   0.288   4.959   5.169  1.7784  3.2965 -0.1510
 2959TIP3    H230293   0.432   4.995   5.138  2.8148 -1.3605 -1.5192
 2960TIP3   OH230294   4.666   5.110  12.171  0.0424  0.1164  0.2010
 2960TIP3    H130295   4.633   5.185  12.221 -0.4130  0.2389 -0.2662
 2960TIP3    H230296   4.593   5.048  12.170  0.0995  0.0500 -0.1758
 2961TIP3   OH230297   5.028   3.988  17.036  0.5739 -0.0646  0.2802
 2961TIP3    H130298   5.085   3.925  16.993  2.4611  0.9138  1.2216
 2961TIP3    H230299   5.079   4.019  17.112 -1.2528  0.7879  1.2345
 2962TIP3   OH230300   3.611   3.226  15.889  0.2904  0.4877  0.0152
 2962TIP3    H130301   3.667   3.259  15.819  0.7087  0.6717  0.4317
 2962TIP3    H230302   3.660   3.244  15.970 -0.1993  0.3083  0.3569
 2963TIP3   OH230303   4.034   4.279  13.525 -0.1462 -0.2243 -0.1746
 2963TIP3    H130304   4.110   4.240  13.570  1.0885  0.6148 -1.4318
 2963TIP3    H230305   3.963   4.216  13.539  1.3314 -2.1144 -0.7139
 2964TIP3   OH230306   1.156   2.450   2.672 -1.1187 -0.4096 -0.5556
 2964TIP3    H130307   1.113   2.473   2.755 -0.3221 -1.1366  0.0861
 2964TIP3    H230308   1.249   2.465   2.690 -0.9866 -0.0768 -1.5002
 2965TIP3   OH230309   2.210   0.112   6.338  0.5016  0.5725  0.2810
 2965TIP3    H130310   2.129   0.070   6.368 -0.0010  1.0012 -0.4436
 2965TIP3    H230311   2.258   0.042   6.293  0.0375  0.5695 -0.2190
 2966TIP3   OH230312   4.431   4.122  14.016  0.6185 -0.5404  0.3009
 2966TIP3    H130313   4.516   4.102  14.054  0.2798  0.2247  1.5353
 2966TIP3    H230314   4.406   4.043  13.969  1.8431 -0.8985  0.2170
 2967TIP3   OH230315   2.184   5.104   4.484  0.6197 -0.0872 -0.1438
 2967TIP3    H130316   2.094   5.080   4.462  0.4985 -0.4878  0.7665
 2967TIP3    H230317   2.202   5.181   4.430 -0.6143  0.6078  0.3932
 2968TIP3   OH230318   0.416   3.438  12.850 -0.7654  0.0079 -0.0330
 2968TIP3    H130319   0.484   3.484  12.899 -0.7768  1.0421 -0.9662
 2968TIP3    H230320   0.370   3.386  12.916  0.0706  0.3379  0.8241
 2969TIP3   OH230321   4.171   4.643   5.838 -0.2796 -0.0450 -0.0479
 2969TIP3    H130322   4.106   4.678   5.899  1.7976  0.8665  1.8307
 2969TIP3    H230323   4.249   4.629   5.893  1.2457 -0.6329 -2.2432
 2970TIP3   OH230324   5.243   4.404   4.344  0.0260 -0.2555  0.3346
 2970TIP3    H130325   5.280   4.459   4.413  0.1522  0.9869 -0.6902
 2970TIP3    H230326   5.320   4.363   4.303 -0.0077 -0.5037  0.5134
 2971TIP3   OH230327   5.369   1.617  12.850  0.0069  0.2833  0.5045
 2971TIP3    H130328   5.384   1.654  12.763 -0.7567  1.6338  0.9211
 2971TIP3    H230329   5.456   1.590  12.880  0.3176  0.0782 -0.5412
 2972TIP3   OH230330   4.172   2.832   3.462 -0.0394  0.2446  0.4694
 2972TIP3    H130331   4.098   2.791   3.508  0.5849 -1.0936  0.3275
 2972TIP3    H230332   4.132   2.896   3.404 -1.0097  0.2823  1.1489
 2973TIP3   OH230333   3.100   6.433   0.693  0.5900 -0.2816 -0.1448
 2973TIP3    H130334   3.021   6.381   0.710  0.0660  0.1338 -1.1676
 2973TIP3    H230335   3.168   6.391   0.745 -0.2233 -0.8835  0.4701
 2974TIP3   OH230336   3.822   4.323  12.381  0.7205  0.2170 -0.0805
 2974TIP3    H130337   3.748   4.279  12.422  0.8884 -0.9710 -0.9605
 2974TIP3    H230338   3.897   4.299  12.435  0.5942  0.6298  0.2738
 2975TIP3   OH230339   3.455   4.893   4.752 -0.2556  0.2830  0.7429
 2975TIP3    H130340   3.491   4.822   4.699 -1.4537  1.6760 -2.1045
 2975TIP3    H230341   3.373   4.917   4.708 -0.5375  2.5771  2.3611
 2976TIP3   OH230342   0.687   5.061  13.454  0.1864  0.4503 -0.4032
 2976TIP3    H130343   0.664   5.081  13.363 -0.3421  0.4759 -0.2641
 2976TIP3    H230344   0.651   5.134  13.505 -0.8796 -0.3322 -0.0012
 2977TIP3   OH230345   6.192   0.734  13.895  0.3825  0.0828 -0.7660
 2977TIP3    H130346   6.176   0.684  13.975 -0.7588 -0.7545 -1.4857
 2977TIP3    H230347   6.229   0.817  13.925 -1.7874  0.5683  0.7680
 2978TIP3   OH230348   2.075   3.905  11.385 -0.1470 -0.2518  0.1662
 2978TIP3    H130349   2.040   3.898  11.474  3.3989  1.1885  1.8806
 2978TIP3    H230350   2.083   3.999  11.370  0.8105 -0.4888 -0.9976
 2979TIP3   OH230351   0.445   2.395  13.886 -0.1749  0.3664 -0.1442
 2979TIP3    H130352   0.396   2.446  13.821 -0.9839 -1.2201 -0.8463
 2979TIP3    H230353   0.458   2.310  13.844  3.0458  0.6133  0.0838
 2980TIP3   OH230354   6.644   2.722   4.458  0.5191 -0.2341  0.2305
 2980TIP3    H130355   6.561   2.675   4.453  0.0692  0.5928 -0.2528
 2980TIP3    H230356   6.661   2.750   4.368  0.2096  1.4575  0.6501
 2981TIP3   OH230357   3.289   3.768  15.245  0.8252 -0.5223 -0.5961
 2981TIP3    H130358   3.257   3.734  15.328  0.5589 -0.3582 -0.6315
 2981TIP3    H230359   3.245   3.716  15.178 -0.7822  0.8850 -0.6992
 2982TIP3   OH230360   6.185   1.098   1.479 -0.2413  0.6951 -0.2550
 2982TIP3    H130361   6.096   1.077   1.507 -1.0770  2.8627 -1.0284
 2982TIP3    H230362   6.189   1.069   1.387  0.3780 -0.7011  0.1827
 2983TIP3   OH230363   3.829   1.621  17.012 -0.6333 -0.2643  0.2739
 2983TIP3    H130364   3.753   1.582  16.968  1.3149 -0.9287 -2.7738
 2983TIP3    H230365   3.820   1.715  16.995 -0.9447 -0.2913  0.2700
 2984TIP3   OH230366   3.014   4.608  13.040  0.2833  0.0355  0.0428
 2984TIP3    H130367   2.993   4.576  12.953 -1.1936  1.5420 -0.2054
 2984TIP3    H230368   3.057   4.534  13.084  2.1313 -0.3884 -2.3031
 2985TIP3   OH230369   2.363   2.935   4.700  0.0085 -0.1725  0.7648
 2985TIP3    H130370   2.420   2.863   4.726 -0.2263 -0.9406 -0.7482
 2985TIP3    H230371   2.323   2.965   4.782  2.0614 -0.0180  1.7745
 2986TIP3   OH230372   1.387   3.121   3.370  0.0927 -0.4613  0.3556
 2986TIP3    H130373   1.415   3.063   3.441 -0.6350 -1.3736 -0.0734
 2986TIP3    H230374   1.450   3.193   3.371  2.0888 -2.1111 -0.1819
 2987TIP3   OH230375   2.553   3.794   1.751 -0.0115 -0.4817  0.3214
 2987TIP3    H130376   2.602   3.712   1.743 -0.0621 -0.4489 -0.4219
 2987TIP3    H230377   2.521   3.811   1.662 -0.4757  0.0490  0.5879
 2988TIP3   OH230378   0.670   1.276   5.183  0.1382 -0.8096 -0.6108
 2988TIP3    H130379   0.646   1.361   5.146 -0.4131  0.3229  2.0989
 2988TIP3    H230380   0.610   1.214   5.142  1.5342 -0.2648 -3.7962
 2989TIP3   OH230381   4.425   5.321  15.256  0.2638 -0.3802  0.4155
 2989TIP3    H130382   4.351   5.325  15.316 -0.2189  0.9628 -0.2241
 2989TIP3    H230383   4.386   5.296  15.172  0.5761 -0.0122  0.1556
 2990TIP3   OH230384   0.045   2.419   2.796  0.1603  0.2675  0.0201
 2990TIP3    H130385   0.031   2.407   2.890  1.0067  0.5813  0.1927
 2990TIP3    H230386  -0.036   2.388   2.756  0.2508 -0.9964  0.7770
 2991TIP3   OH230387   5.403   2.764  12.895  0.0817 -0.0299  0.3026
 2991TIP3    H130388   5.425   2.855  12.914  0.5791 -0.3082  1.1059
 2991TIP3    H230389   5.317   2.769  12.853  0.3370  0.8434 -0.1446
 2992TIP3   OH230390   5.305   4.750   0.959  0.1977  0.5870 -0.6399
 2992TIP3    H130391   5.260   4.801   1.027  0.9424 -0.2373  0.5027
 2992TIP3    H230392   5.271   4.786   0.877 -1.3286  1.0862  0.1563
 2993TIP3   OH230393   0.959   4.643   3.145 -0.0499  0.1723  0.7758
 2993TIP3    H130394   0.974   4.738   3.141  3.6387 -0.2565 -3.0609
 2993TIP3    H230395   0.918   4.622   3.061 -1.4876 -1.6230  1.8693
 2994TIP3   OH230396   1.975   1.153   2.152 -0.4867 -1.0338 -0.2546
 2994TIP3    H130397   2.057   1.110   2.177 -1.3498 -2.4847  0.2319
 2994TIP3    H230398   1.989   1.182   2.063  1.0537  0.0484  0.3088
 2995TIP3   OH230399   5.150   6.105   4.811 -0.0843  0.1441  0.1232
 2995TIP3    H130400   5.059   6.088   4.836 -0.0345  0.0776  0.2651
 2995TIP3    H230401   5.184   6.020   4.782 -0.9250  0.7058 -2.8298
 2996TIP3   OH230402   1.233   5.659  11.172  0.0200 -0.2058 -0.5344
 2996TIP3    H130403   1.305   5.721  11.157 -0.1118  0.6156  1.9003
 2996TIP3    H230404   1.186   5.694  11.247 -0.5058 -2.8881  0.5055
 2997TIP3   OH230405   1.723   0.716  11.169 -0.3274 -0.3793 -0.0556
 2997TIP3    H130406   1.704   0.682  11.081 -0.9679 -2.0080  0.6724
 2997TIP3    H230407   1.808   0.679  11.191 -0.9846 -1.5324  0.6996
 2998TIP3   OH230408   1.174   4.602  12.520 -0.0966  0.0894  0.3469
 2998TIP3    H130409   1.148   4.525  12.470  1.0173  1.2894 -2.2734
 2998TIP3    H230410   1.224   4.568  12.593  0.4465 -1.6936 -0.7960
 2999TIP3   OH230411   1.807   3.106  13.720 -0.3727  0.3890  0.5204
 2999TIP3    H130412   1.797   3.188  13.673 -0.3678  0.1783  0.1520
 2999TIP3    H230413   1.851   3.131  13.802 -0.0811  0.7082  0.2718
 3000TIP3   OH230414   5.370   6.333   4.763 -0.2992 -0.0988 -0.1448
 3000TIP3    H130415   5.303   6.270   4.791 -0.6973 -0.6127 -2.1063
 3000TIP3    H230416   5.381   6.391   4.838 -0.7369 -1.8281  1.3239
 3001TIP3   OH230417   4.309   1.258   4.778  0.0606 -0.2078 -0.1401
 3001TIP3    H130418   4.378   1.205   4.738  0.6313  0.1808  0.3085
 3001TIP3    H230419   4.277   1.205   4.850  0.3772 -0.1027  0.0805
 3002TIP3   OH230420   0.150   3.218  12.007  0.2905 -0.4156 -0.6537
 3002TIP3    H130421   0.093   3.292  11.983  1.4591  0.4421 -0.8584
 3002TIP3    H230422   0.146   3.216  12.103  0.9466  0.5012 -0.5919
 3003TIP3   OH230423   3.203   4.455   5.736 -0.0915 -0.6913 -0.0766
 3003TIP3    H130424   3.116   4.417   5.745  0.0663 -0.6019  2.7756
 3003TIP3    H230425   3.261   4.397   5.785  1.6570 -1.1472 -2.5138
 3004TIP3   OH230426   2.835   1.667  16.818 -0.0239 -0.1112  0.3948
 3004TIP3    H130427   2.811   1.760  16.821 -1.1036 -0.3658  0.3464
 3004TIP3    H230428   2.751   1.621  16.809  0.4646 -1.1106  0.7194
 3005TIP3   OH230429   3.753   2.165   1.873  0.2370  0.2434 -0.3828
 3005TIP3    H130430   3.769   2.071   1.860 -3.2636 -0.5548  0.0989
 3005TIP3    H230431   3.840   2.205   1.870  2.0163 -3.1696  0.6897
 3006TIP3   OH230432   4.673   0.870  15.692  0.1276 -0.1760  1.0249
 3006TIP3    H130433   4.761   0.893  15.664  0.1005 -0.4886  0.6692
 3006TIP3    H230434   4.662   0.779  15.663 -0.4924  0.0264  0.6065
 3007TIP3   OH230435   2.044   4.646  12.862  0.3054 -0.4114  0.3582
 3007TIP3    H130436   2.050   4.710  12.791  0.9650  0.2982  1.0291
 3007TIP3    H230437   2.012   4.566  12.820  1.0371 -0.1155 -0.8104
 3008TIP3   OH230438   4.041   1.314  12.760 -0.3911 -0.5298 -0.4807
 3008TIP3    H130439   4.042   1.408  12.739 -0.6395  0.0577  1.8767
 3008TIP3    H230440   3.984   1.307  12.837  2.7104 -1.9893  1.9068
 3009TIP3   OH230441   5.697   0.110  13.228  0.3625  0.5587 -0.8969
 3009TIP3    H130442   5.621   0.089  13.283 -0.4888  0.4587 -2.0624
 3009TIP3    H230443   5.754   0.161  13.284  0.3174 -0.9507  0.5932
 3010TIP3   OH230444   6.794   3.835  14.431  0.1110 -0.0472 -0.4392
 3010TIP3    H130445   6.761   3.920  14.403 -1.6048  0.2356  2.0942
 3010TIP3    H230446   6.860   3.855  14.497  1.0087 -0.7199 -1.0991
 3011TIP3   OH230447   1.314   4.617   4.834 -0.2340 -0.2300  0.7666
 3011TIP3    H130448   1.231   4.626   4.786  0.0820  3.0860  0.6204
 3011TIP3    H230449   1.288   4.584   4.920 -1.6448  0.1000  0.4925
 3012TIP3   OH230450   5.493   6.687   5.137  0.4232 -0.8185 -0.1634
 3012TIP3    H130451   5.478   6.766   5.190 -0.2086 -1.7020  1.0034
 3012TIP3    H230452   5.565   6.642   5.181  2.5200  0.2796 -2.2270
 3013TIP3   OH230453   2.177   3.296  13.406  0.2831  0.2056 -0.5469
 3013TIP3    H130454   2.205   3.274  13.317  0.6086  0.7236 -0.5802
 3013TIP3    H230455   2.175   3.213  13.453  0.9746  0.0438 -0.8024
 3014TIP3   OH230456   1.006   3.862   5.689 -0.3195  0.3761 -0.4574
 3014TIP3    H130457   0.929   3.906   5.652  0.2281  1.2565 -0.5684
 3014TIP3    H230458   1.079   3.889   5.632  0.1635 -0.0258 -0.0400
 3015TIP3   OH230459   2.699   2.481   5.896  0.1479 -0.2699  0.1220
 3015TIP3    H130460   2.611   2.515   5.915 -0.2239 -0.0778 -1.7643
 3015TIP3    H230461   2.707   2.486   5.801  1.0899 -2.9729 -0.0286
 3016TIP3   OH230462   6.510   2.447  14.329 -0.2056 -0.5335  0.2226
 3016TIP3    H130463   6.494   2.364  14.284 -0.6775  0.1474 -0.9186
 3016TIP3    H230464   6.592   2.434  14.376  0.0662 -1.4309 -0.4739
 3017TIP3   OH230465   4.905   5.198  11.033 -0.2458 -0.2114 -0.0756
 3017TIP3    H130466   4.898   5.104  11.050  0.6663 -0.3044 -0.1580
 3017TIP3    H230467   4.831   5.237  11.080 -0.1822 -0.8918  0.6011
 3018TIP3   OH230468   1.201   6.338  15.399 -0.2510 -0.7537 -0.1345
 3018TIP3    H130469   1.241   6.251  15.405  3.6424  0.8977  3.3799
 3018TIP3    H230470   1.117   6.328  15.443 -0.3370 -2.8788 -0.6523
 3019TIP3   OH230471   2.747   1.748   4.716  0.6370 -0.0795 -0.2780
 3019TIP3    H130472   2.819   1.806   4.742  0.0654  0.7188 -0.4313
 3019TIP3    H230473   2.730   1.695   4.794  0.9568  0.1807 -0.0254
 3020TIP3   OH230474   1.754   5.101   1.610 -0.0354 -0.3328 -0.0224
 3020TIP3    H130475   1.689   5.043   1.649  0.2688  0.6303  2.0752
 3020TIP3    H230476   1.835   5.049   1.611 -0.3644 -0.8929 -0.9624
 3021TIP3   OH230477   2.495   1.551  15.527  0.1587  0.1940 -0.4984
 3021TIP3    H130478   2.515   1.489  15.457  0.5289  0.8657 -0.9963
 3021TIP3    H230479   2.499   1.499  15.607  0.6736 -0.3763 -0.8899
 3022TIP3   OH230480   0.973   5.189   4.699  0.4392 -0.0625  0.9010
 3022TIP3    H130481   1.007   5.277   4.708 -0.1752  0.3951 -0.8514
 3022TIP3    H230482   0.878   5.198   4.710  0.3904 -0.5333  0.9206
 3023TIP3   OH230483   2.895   0.482  13.286  0.1233  0.0040  0.2817
 3023TIP3    H130484   2.930   0.425  13.218  1.6722  0.9997  0.1860
 3023TIP3    H230485   2.951   0.465  13.362 -0.4522  0.2143  0.7626
 3024TIP3   OH230486   3.846   5.592   5.848  0.1359  0.3953 -0.0542
 3024TIP3    H130487   3.876   5.631   5.766 -0.9930 -1.5840 -1.4837
 3024TIP3    H230488   3.897   5.637   5.916  1.6070  1.6011 -1.8636
 3025TIP3   OH230489   1.961   4.383  16.868  0.6659 -0.4534  0.1686
 3025TIP3    H130490   1.983   4.367  16.959 -1.0577  1.3670  0.9795
 3025TIP3    H230491   1.943   4.477  16.863  1.5811 -0.3127 -2.2668
 3026TIP3   OH230492   0.625   3.501   1.742 -0.8494  0.5107  0.3471
 3026TIP3    H130493   0.533   3.477   1.754 -0.8006 -0.0025 -0.2840
 3026TIP3    H230494   0.644   3.558   1.817 -2.4176  2.8006 -0.8778
 3027TIP3   OH230495   5.400   3.838   0.846  0.3453 -0.1865  0.1626
 3027TIP3    H130496   5.350   3.880   0.915  0.8155  0.1998  0.2750
 3027TIP3    H230497   5.468   3.788   0.892 -0.5375 -1.5362  0.0582
 3028TIP3   OH230498   5.987   0.275  14.128  0.2786  0.5347 -0.6110
 3028TIP3    H130499   5.929   0.259  14.054  0.3201 -0.8614 -0.3830
 3028TIP3    H230500   6.061   0.215  14.113 -0.6176 -1.2295  1.5113
 3029TIP3   OH230501   3.704   0.709   3.454  0.3335 -0.3512 -0.1710
 3029TIP3    H130502   3.652   0.775   3.409  1.9331  1.4158  0.3998
 3029TIP3    H230503   3.677   0.716   3.546  2.2685  1.4584  0.3565
 3030TIP3   OH230504   2.206   0.417  13.619 -0.7931 -0.6263  0.6009
 3030TIP3    H130505   2.184   0.330  13.652  0.5548 -1.3116 -0.2315
 3030TIP3    H230506   2.249   0.401  13.535 -0.2120  0.8211  0.5920
 3031TIP3   OH230507   2.240   1.437   3.323 -0.6174  0.6705 -0.2036
 3031TIP3    H130508   2.248   1.359   3.379  1.4925  1.2708  0.4317
 3031TIP3    H230509   2.190   1.407   3.247  0.6009 -1.4954 -0.2363
 3032TIP3   OH230510   4.020   1.638   2.810 -0.2196 -0.0416  0.4338
 3032TIP3    H130511   4.082   1.699   2.769  0.6616 -0.9620  0.3758
 3032TIP3    H230512   3.938   1.652   2.762  0.9270 -1.5115 -2.1286
 3033TIP3   OH230513   5.380   2.866  10.386 -0.1964 -0.6098  0.6532
 3033TIP3    H130514   5.408   2.813  10.460 -0.7829 -2.4471 -0.3678
 3033TIP3    H230515   5.292   2.835  10.366  0.5741 -1.4478 -1.8851
 3034TIP3   OH230516   2.639   1.076  16.492  0.1312 -0.1457 -0.5396
 3034TIP3    H130517   2.597   1.162  16.494 -1.4793 -0.8807  1.1263
 3034TIP3    H230518   2.706   1.081  16.560 -0.4487 -0.3944  0.0672
 3035TIP3   OH230519   3.984   4.896   4.515  0.1653 -0.1438  0.2149
 3035TIP3    H130520   4.032   4.964   4.468 -0.3883 -0.0991 -0.3046
 3035TIP3    H230521   3.892   4.920   4.504  0.0316  0.5322  2.3310
 3036TIP3   OH230522   1.299   6.516   5.525 -0.2059 -0.1557 -0.0941
 3036TIP3    H130523   1.310   6.593   5.469  2.6696  0.3382  1.0041
 3036TIP3    H230524   1.346   6.446   5.480  0.6698 -0.1982  0.8656
 3037TIP3   OH230525   6.645   5.739  12.527  0.0533 -0.2829  0.0004
 3037TIP3    H130526   6.554   5.711  12.531 -0.2441  0.5679 -0.6226
 3037TIP3    H230527   6.664   5.747  12.434  0.5524  0.2311  0.1370
 3038TIP3   OH230528   1.292   6.593  13.957 -0.1636 -0.8385  0.6070
 3038TIP3    H130529   1.321   6.577  13.867 -0.2561 -1.0641  0.6152
 3038TIP3    H230530   1.204   6.629  13.947 -0.2179 -0.9704  0.6115
 3039TIP3   OH230531   3.059   4.581  10.475 -0.2522 -0.2423 -0.4737
 3039TIP3    H130532   2.964   4.583  10.482 -0.1692  1.0277  0.8413
 3039TIP3    H230533   3.080   4.660  10.425  0.1941  0.7859  1.2452
 3040TIP3   OH230534   0.410   1.568   5.724 -0.2904 -0.2473 -0.3044
 3040TIP3    H130535   0.394   1.655   5.760 -2.1600 -1.0077  0.8859
 3040TIP3    H230536   0.452   1.520   5.796 -2.1877 -1.1962  0.2364
 3041TIP3   OH230537   2.646   3.043  15.751  0.8074 -0.2384 -0.3596
 3041TIP3    H130538   2.683   3.124  15.715  0.4803 -0.5547 -1.4515
 3041TIP3    H230539   2.649   2.981  15.678  1.2568 -1.2892  0.5252
 3042TIP3   OH230540   2.255   6.466   5.960 -0.8153  0.7813 -0.1729
 3042TIP3    H130541   2.241   6.558   5.941  0.1604  0.6919 -1.4947
 3042TIP3    H230542   2.348   6.460   5.983  0.1818 -0.3183 -3.7726
 3043TIP3   OH230543   1.650   3.064  10.445 -0.1846  0.4634 -0.1383
 3043TIP3    H130544   1.629   3.153  10.473 -1.9352 -0.7107  2.6518
 3043TIP3    H230545   1.566   3.020  10.436  0.6656 -1.3347  0.1396
 3044TIP3   OH230546   6.703   2.736  10.408 -0.8530 -0.0690  0.1773
 3044TIP3    H130547   6.662   2.651  10.392  1.4600 -1.2022 -0.1374
 3044TIP3    H230548   6.680   2.788  10.331 -0.8163 -1.0226 -0.4931
 3045TIP3   OH230549   5.824   6.746  15.121  0.3293 -0.4213 -0.5923
 3045TIP3    H130550   5.757   6.678  15.117  0.1852 -0.3001 -0.2392
 3045TIP3    H230551   5.820   6.788  15.035  0.1362 -0.5896 -0.6661
 3046TIP3   OH230552   2.474   0.119   5.155 -0.0123  0.1080  0.2776
 3046TIP3    H130553   2.392   0.074   5.176 -0.5928  1.6836  1.6119
 3046TIP3    H230554   2.447   0.194   5.102  0.9881 -1.2632 -2.3607
 3047TIP3   OH230555   1.854   3.258   1.295  0.1951 -0.3727 -0.1966
 3047TIP3    H130556   1.783   3.200   1.267 -0.8037  0.6622  0.1026
 3047TIP3    H230557   1.873   3.311   1.217 -2.1273  2.0478  0.7145
 3048TIP3   OH230558   6.807   2.498  11.323 -0.2647 -0.2440  0.3133
 3048TIP3    H130559   6.758   2.571  11.359 -0.2060 -0.2575  0.4225
 3048TIP3    H230560   6.768   2.482  11.238 -0.8057 -0.6083  0.6263
 3049TIP3   OH230561   5.498   5.555   1.729 -0.0062  0.1090  0.2377
 3049TIP3    H130562   5.576   5.549   1.674 -0.2541 -2.1110  0.0519
 3049TIP3    H230563   5.526   5.522   1.814 -0.3901  0.7209  0.6098
 3050TIP3   OH230564   1.739   4.030  12.044  0.1512 -0.0477  0.5281
 3050TIP3    H130565   1.742   4.125  12.043 -0.8608 -0.0093  0.2844
 3050TIP3    H230566   1.712   4.005  11.956 -1.9425 -0.4403  1.2249
 3051TIP3   OH230567   1.380   1.464   2.499  0.3067  0.0110 -0.0258
 3051TIP3    H130568   1.364   1.551   2.460 -1.8272 -0.3132  0.0505
 3051TIP3    H230569   1.361   1.403   2.428 -1.0900 -0.4891  0.7541
 3052TIP3   OH230570   4.730   6.727   3.544  0.2467 -0.0956  0.2114
 3052TIP3    H130571   4.812   6.776   3.554 -0.6889  2.0463 -1.5631
 3052TIP3    H230572   4.662   6.789   3.570 -0.9258 -1.0180 -0.5283
 3053TIP3   OH230573   1.685   1.561  11.498  0.0514 -0.6264  0.0969
 3053TIP3    H130574   1.776   1.545  11.523  0.5069  1.4323 -0.0693
 3053TIP3    H230575   1.668   1.499  11.427  1.5699 -0.5375 -0.3807
 3054TIP3   OH230576   0.446   0.385  16.069  0.0187 -0.3203 -0.2174
 3054TIP3    H130577   0.418   0.344  16.151 -0.1936  2.2304  1.0993
 3054TIP3    H230578   0.541   0.382  16.072  0.0068 -0.6118 -0.0979
 3055TIP3   OH230579   1.181   4.662  14.595  0.1936  0.2932 -0.0846
 3055TIP3    H130580   1.180   4.567  14.595  0.3505  0.1921  3.2799
 3055TIP3    H230581   1.119   4.687  14.664  1.3562  2.5473  0.2324
 3056TIP3   OH230582   5.943   5.183  10.844  0.1706  0.2193  0.7331
 3056TIP3    H130583   5.971   5.150  10.930 -0.8693 -1.1116  0.5898
 3056TIP3    H230584   5.928   5.276  10.858  1.8925  0.4158  1.5024
 3057TIP3   OH230585   3.436   5.645   0.109  0.1040 -0.0541  0.1836
 3057TIP3    H130586   3.472   5.557   0.094 -0.0839  0.1821 -1.8696
 3057TIP3    H230587   3.400   5.671   0.025  0.5841  2.2146  0.6196
 3058TIP3   OH230588   4.811   4.049   3.966  0.2705  0.7284  0.1469
 3058TIP3    H130589   4.719   4.066   3.947  0.4086 -0.1986 -1.5536
 3058TIP3    H230590   4.858   4.114   3.913  0.6257 -0.6007 -1.2366
 3059TIP3   OH230591   0.654   1.604   4.486  0.0313  0.1070  0.1681
 3059TIP3    H130592   0.737   1.619   4.531  1.3553 -0.2660 -2.0004
 3059TIP3    H230593   0.646   1.677   4.425 -0.9188 -0.2067 -0.1048
 3060TIP3   OH230594   5.204   5.809   5.454 -0.3519 -0.0549 -0.5664
 3060TIP3    H130595   5.170   5.768   5.374  0.4506 -1.2679 -0.3205
 3060TIP3    H230596   5.289   5.845   5.428 -0.2618 -0.1131 -0.3531
 3061TIP3   OH230597   5.359   5.011  11.951  0.5119  0.4019 -0.0654
 3061TIP3    H130598   5.322   4.973  11.871 -0.6026 -0.7017  0.9408
 3061TIP3    H230599   5.287   5.011  12.013  1.6438  0.2090  1.3008
 3062TIP3   OH230600   4.209   3.685  10.715 -0.3020  0.0635  0.7936
 3062TIP3    H130601   4.150   3.664  10.642 -1.4851  1.2816  1.3373
 3062TIP3    H230602   4.240   3.773  10.696 -0.1813  0.1750  1.4750
 3063TIP3   OH230603   2.888   6.273  17.023 -0.6695  0.1033  0.2793
 3063TIP3    H130604   2.881   6.368  17.014  0.9071  0.1893 -0.3512
 3063TIP3    H230605   2.921   6.243  16.938 -0.8079 -0.9732  0.5923
 3064TIP3   OH230606   3.966   4.500  10.337  0.4755 -0.3458 -0.2979
 3064TIP3    H130607   4.060   4.487  10.342  0.4195 -1.2074 -1.3178
 3064TIP3    H230608   3.952   4.539  10.251 -0.0505  0.3807  0.1006
 3065TIP3   OH230609   4.272   1.555  14.898  0.0956  0.2332 -0.3928
 3065TIP3    H130610   4.337   1.546  14.829 -0.2015  0.7027 -0.7396
 3065TIP3    H230611   4.322   1.560  14.979  0.4860  0.5405 -0.6532
 3066TIP3   OH230612   4.722   4.517   1.185 -0.3391 -0.6698  0.0651
 3066TIP3    H130613   4.700   4.436   1.139  0.5071 -1.8387  1.6095
 3066TIP3    H230614   4.674   4.510   1.268 -1.5219  1.1892 -0.4013
 3067TIP3   OH230615   3.976   0.638  16.390  0.0062  0.9301  0.4577
 3067TIP3    H130616   4.051   0.669  16.441  0.4288  1.3144 -0.3851
 3067TIP3    H230617   3.923   0.589  16.453  1.9572 -1.0506  0.6340
 3068TIP3   OH230618   1.165   2.625  14.337 -0.2484 -0.0481 -0.5087
 3068TIP3    H130619   1.120   2.552  14.379  0.4353  0.0462  0.4257
 3068TIP3    H230620   1.241   2.585  14.294  1.1409  0.2685  1.4957
 3069TIP3   OH230621   4.447   1.430  11.944 -0.3676 -0.4073  0.1726
 3069TIP3    H130622   4.527   1.442  11.892  0.0198 -0.5335  0.7345
 3069TIP3    H230623   4.421   1.519  11.968 -0.7846 -0.3161 -0.5781
 3070TIP3   OH230624   5.364   3.866  10.504 -0.0518 -0.1996  0.2746
 3070TIP3    H130625   5.422   3.907  10.440  0.5193  0.2466  1.0543
 3070TIP3    H230626   5.320   3.796  10.456 -0.1692  0.5866 -0.7741
 3071TIP3   OH230627   2.923   4.352  13.582  0.5574  0.2646 -0.1138
 3071TIP3    H130628   2.992   4.288  13.598  0.3166  0.4555  1.9359
 3071TIP3    H230629   2.897   4.337  13.491  1.6994 -1.3625 -0.2117
 3072TIP3   OH230630   0.927   0.731  16.850 -0.2410 -0.0452 -0.1476
 3072TIP3    H130631   0.933   0.636  16.838 -0.3641 -0.2155  1.0294
 3072TIP3    H230632   0.936   0.767  16.762 -1.5558 -1.2154 -0.7884
 3073TIP3   OH230633   1.802   2.105   4.215 -0.8073 -0.1088  0.0597
 3073TIP3    H130634   1.840   2.176   4.267 -0.7219 -0.5676  0.6299
 3073TIP3    H230635   1.716   2.090   4.255 -0.3590 -1.1047  0.6898
 3074TIP3   OH230636   0.524   4.506   6.753 -0.1034  0.3534 -0.1615
 3074TIP3    H130637   0.460   4.441   6.780  1.2046 -0.4993  1.0277
 3074TIP3    H230638   0.518   4.575   6.818  1.7864 -0.8543  1.4035
 3075TIP3   OH230639   4.696   1.089   3.975 -0.1858  0.3990 -0.1409
 3075TIP3    H130640   4.705   1.138   3.893 -0.4978  0.5354 -0.0925
 3075TIP3    H230641   4.609   1.112   4.008 -0.1869  0.1000  0.0696
 3076TIP3   OH230642   1.642   2.976  15.278 -0.1619  0.1304 -0.4470
 3076TIP3    H130643   1.720   2.920  15.276 -0.0578  0.2231  0.5814
 3076TIP3    H230644   1.569   2.916  15.293 -0.0627  0.2380  0.5415
 3077TIP3   OH230645   1.359   6.616  12.643  0.2643 -0.1973 -0.4781
 3077TIP3    H130646   1.299   6.689  12.661  0.1706 -0.6367  1.1225
 3077TIP3    H230647   1.310   6.538  12.670 -0.1153 -1.0298 -3.3175
 3078TIP3   OH230648   0.618   2.419  12.690  0.5087  0.1506 -0.6014
 3078TIP3    H130649   0.621   2.494  12.750  2.0298 -1.0690  0.9533
 3078TIP3    H230650   0.530   2.423  12.651  0.3383  2.3625 -0.1231
 3079TIP3   OH230651   3.088   4.007  12.813 -0.0743 -0.0858  0.6850
 3079TIP3    H130652   3.033   3.936  12.848 -0.4532  0.6046  1.5310
 3079TIP3    H230653   3.176   3.985  12.843 -0.1717 -0.2556  0.8523
 3080TIP3   OH230654   0.453   0.907  11.808  0.2818 -0.2505 -0.7509
 3080TIP3    H130655   0.374   0.946  11.771  0.3007 -0.8023 -1.3979
 3080TIP3    H230656   0.525   0.950  11.762  0.3209 -0.5446 -0.9702
 3081TIP3   OH230657   0.298   0.085  15.343 -0.7842 -0.0868  0.6134
 3081TIP3    H130658   0.272  -0.001  15.377 -1.8387  0.3698  0.9980
 3081TIP3    H230659   0.346   0.125  15.415  2.3074 -1.4072 -0.4926
 3082TIP3   OH230660   1.535   6.033  11.283 -0.4232  0.0294 -0.5369
 3082TIP3    H130661   1.455   6.036  11.231 -0.5742 -2.0191 -0.5011
 3082TIP3    H230662   1.517   6.089  11.359 -1.3960  0.4832 -1.0888
 3083TIP3   OH230663   1.109   4.837  11.413 -0.1044 -0.1257  0.1526
 3083TIP3    H130664   1.196   4.798  11.406 -0.2499 -0.7444  1.4949
 3083TIP3    H230665   1.127   4.930  11.428  0.3134 -0.1732 -0.0186
 3084TIP3   OH230666   6.295   3.411  15.288  0.3201 -0.9500  0.1717
 3084TIP3    H130667   6.231   3.423  15.217 -0.4487 -2.0449  0.6608
 3084TIP3    H230668   6.357   3.483  15.275  0.5646 -1.4806 -1.9838
 3085TIP3   OH230669   3.398   5.573  16.761 -0.5913  0.0368 -0.2601
 3085TIP3    H130670   3.454   5.597  16.834 -0.2756  2.0891 -1.0922
 3085TIP3    H230671   3.415   5.640  16.694 -3.0886  0.0368 -1.0237
 3086TIP3   OH230672   2.406   1.585  12.502  0.0842 -0.0161  0.2415
 3086TIP3    H130673   2.487   1.541  12.529 -0.0684  0.1024  0.9195
 3086TIP3    H230674   2.405   1.578  12.407  0.1569 -1.3121  0.3201
 3087TIP3   OH230675   0.845   4.544  15.571  0.1087  0.3321  0.9742
 3087TIP3    H130676   0.871   4.482  15.502 -1.7716 -0.4862  0.9303
 3087TIP3    H230677   0.805   4.617  15.523  1.1340  0.9906  1.0970
 3088TIP3   OH230678   6.568   1.070   3.030  0.2638  0.1747 -0.1007
 3088TIP3    H130679   6.482   1.089   2.992  0.8517  2.8050 -0.3459
 3088TIP3    H230680   6.630   1.109   2.967  1.4845  0.4997  1.2468
 3089TIP3   OH230681   2.050   6.483   2.552 -0.4425  0.0428  0.2389
 3089TIP3    H130682   2.047   6.479   2.457 -2.6697  0.1660  0.2608
 3089TIP3    H230683   2.113   6.552   2.571  1.0640 -0.8944 -1.0775
 3090TIP3   OH230684   1.531   1.124   2.546 -0.3862  0.0174 -0.2227
 3090TIP3    H130685   1.465   1.176   2.498 -0.3653  0.5779  0.3417
 3090TIP3    H230686   1.503   1.128   2.637  0.0469 -0.3312 -0.0725
 3091TIP3   OH230687   3.529   6.030  15.264  0.1316 -0.4404 -0.2138
 3091TIP3    H130688   3.582   5.971  15.317 -0.1795 -0.1437  0.4371
 3091TIP3    H230689   3.498   6.096  15.326  1.5443  1.1872 -1.1418
 3092TIP3   OH230690   4.902   6.552  14.402  0.1325 -0.2002 -0.1868
 3092TIP3    H130691   4.885   6.463  14.431  0.9633 -0.7521 -1.3401
 3092TIP3    H230692   4.815   6.591  14.395 -0.2349 -0.8814  0.4077
 3093TIP3   OH230693   2.075   2.433  15.436  0.5832  0.1664  0.1049
 3093TIP3    H130694   2.057   2.342  15.410  0.7890  0.4832 -1.2533
 3093TIP3    H230695   2.170   2.440  15.432  0.5292  0.6166 -0.4464
 3094TIP3   OH230696   6.146   0.239  13.034  0.3762 -0.4366 -0.4801
 3094TIP3    H130697   6.103   0.320  13.060 -1.0335 -1.5923  1.0395
 3094TIP3    H230698   6.103   0.214  12.952 -1.7073 -1.3571  0.8033
 3095TIP3   OH230699   2.445   2.345  13.731  0.6005 -0.3989  0.1619
 3095TIP3    H130700   2.427   2.259  13.694 -0.8086  0.7685 -2.0996
 3095TIP3    H230701   2.392   2.350  13.811 -0.6513 -1.0286 -0.6076
 3096TIP3   OH230702   0.795   5.451  15.755 -0.1925 -0.2392 -0.2500
 3096TIP3    H130703   0.735   5.523  15.734  1.2674  0.4840 -2.2110
 3096TIP3    H230704   0.811   5.460  15.849 -0.0968  1.9850 -0.4226
 3097TIP3   OH230705   4.216   3.490  12.129  0.1094  0.0343  0.4678
 3097TIP3    H130706   4.179   3.425  12.070 -0.8798  0.0785  1.0215
 3097TIP3    H230707   4.140   3.535  12.166  0.7556  1.7087 -0.1245
 3098TIP3   OH230708   2.544   4.290  12.137  0.2396  0.5288  0.5008
 3098TIP3    H130709   2.506   4.324  12.218 -0.7113  1.1483 -0.1850
 3098TIP3    H230710   2.473   4.240  12.096  0.5535  0.6178 -0.1722
 3099TIP3   OH230711   3.811   2.184   3.146 -0.0479  0.0229 -0.3655
 3099TIP3    H130712   3.892   2.235   3.145 -0.1671  0.2143 -0.3536
 3099TIP3    H230713   3.820   2.123   3.072  0.1426 -0.0138 -0.3127
 3100TIP3   OH230714   0.746   4.504   0.132  0.3812 -0.4203  0.1774
 3100TIP3    H130715   0.809   4.528   0.199  0.3107  1.9120 -0.5125
 3100TIP3    H230716   0.797   4.459   0.065  0.8634 -0.6917  0.7275
 3101TIP3   OH230717   0.496   1.043   5.431  0.7602  0.1406  0.4122
 3101TIP3    H130718   0.582   1.009   5.453  1.5503  1.8807  0.1955
 3101TIP3    H230719   0.503   1.137   5.446 -0.9698  0.3776 -0.0548
 3102TIP3   OH230720   6.204   1.507  16.177 -0.2407  0.6868 -0.3251
 3102TIP3    H130721   6.141   1.497  16.106  1.1720  1.5586 -1.7449
 3102TIP3    H230722   6.203   1.601  16.196 -0.5381  0.4772  0.7880
 3103TIP3   OH230723   0.048   4.508  15.998 -0.8306 -0.7084  0.0991
 3103TIP3    H130724   0.103   4.501  16.077 -0.1666 -0.3884 -0.3311
 3103TIP3    H230725  -0.031   4.458  16.020 -0.9197 -0.1267  1.1921
 3104TIP3   OH230726   4.911   4.958  12.000  0.5954 -0.3663 -0.2354
 3104TIP3    H130727   4.834   5.009  12.026  0.0733 -1.9038  1.4511
 3104TIP3    H230728   4.909   4.959  11.904 -0.2117  1.5014 -0.2549
 3105TIP3   OH230729   2.018   0.206  11.761  0.2361  0.2509 -1.3014
 3105TIP3    H130730   2.066   0.286  11.743  0.0057  0.4963 -0.8357
 3105TIP3    H230731   2.083   0.136  11.752  0.4586  0.4941 -1.6078
 3106TIP3   OH230732   0.240   4.412   1.825 -0.3576 -0.0471  0.0094
 3106TIP3    H130733   0.156   4.398   1.868 -1.4803  0.9799 -1.7409
 3106TIP3    H230734   0.274   4.324   1.810 -2.1103 -0.5778 -1.0945
 3107TIP3   OH230735   2.957   3.230   3.421 -0.2839 -0.1196  0.0502
 3107TIP3    H130736   2.961   3.265   3.510 -0.1805 -2.5756  1.0933
 3107TIP3    H230737   2.865   3.209   3.408 -0.6074  1.8027 -1.1462
 3108TIP3   OH230738   5.161   0.856  13.699 -0.5841  0.3505  0.2144
 3108TIP3    H130739   5.223   0.830  13.631 -1.8954 -0.0119 -0.9004
 3108TIP3    H230740   5.113   0.930  13.661  0.4593  1.9349  1.8348
 3109TIP3   OH230741   0.680   6.448   3.180 -0.3576  0.4502 -0.2281
 3109TIP3    H130742   0.663   6.439   3.274 -2.9504  3.7633 -0.1731
 3109TIP3    H230743   0.618   6.387   3.139 -1.2665  1.0213  0.2441
 3110TIP3   OH230744   2.279   3.225   3.414  0.4625  0.6574  0.0526
 3110TIP3    H130745   2.288   3.136   3.379 -0.3399  0.6868 -0.2389
 3110TIP3    H230746   2.192   3.253   3.387  0.3280  1.1712  0.9948
 3111TIP3   OH230747   5.742   3.188  11.308  0.1116  0.4424 -0.4144
 3111TIP3    H130748   5.759   3.231  11.224 -1.5156 -0.0998 -1.0500
 3111TIP3    H230749   5.710   3.257  11.365  1.8025  0.9402 -0.0046
 3112TIP3   OH230750   0.370   3.935  13.499  0.5519  0.0660 -1.0864
 3112TIP3    H130751   0.426   3.894  13.433 -0.7491 -0.5573 -1.8411
 3112TIP3    H230752   0.282   3.927  13.464 -0.2341 -0.6553  0.9052
 3113TIP3   OH230753   5.576   0.880   0.896  0.3166 -0.2867  0.1756
 3113TIP3    H130754   5.574   0.962   0.847  1.7250 -0.6387 -0.5468
 3113TIP3    H230755   5.638   0.897   0.968  1.8252 -1.1175 -0.8548
 3114TIP3   OH230756   0.888   3.490   5.047  0.2952  0.2903 -0.3471
 3114TIP3    H130757   0.913   3.522   4.960 -2.5464 -1.3719 -1.9257
 3114TIP3    H230758   0.953   3.422   5.066  0.2134 -0.2501 -1.8321
 3115TIP3   OH230759   1.159   0.749   4.327 -0.4387  0.4854 -0.0993
 3115TIP3    H130760   1.086   0.743   4.266  1.6540 -2.0504 -2.6274
 3115TIP3    H230761   1.202   0.831   4.306 -1.6889  1.2940  0.4191
 3116TIP3   OH230762   6.032   3.129  12.893 -0.3648  0.3570  0.0986
 3116TIP3    H130763   6.114   3.080  12.883 -0.9197 -0.3982 -0.9132
 3116TIP3    H230764   6.042   3.204  12.834 -0.4087  0.2556 -0.0380
 3117TIP3   OH230765   6.461   4.818   4.846  0.5026 -0.0409 -0.3711
 3117TIP3    H130766   6.396   4.774   4.792  1.1801 -1.5914  0.0325
 3117TIP3    H230767   6.537   4.830   4.788  0.4597  0.2593 -0.3684
 3118TIP3   OH230768   3.654   6.716  15.559 -0.1949  0.3073 -0.0497
 3118TIP3    H130769   3.588   6.679  15.499  0.0623  0.5436 -0.4785
 3118TIP3    H230770   3.603   6.746  15.634 -0.6773  1.1746 -0.7011
 3119TIP3   OH230771   1.087   0.006  16.273  0.4026 -0.7099 -0.1351
 3119TIP3    H130772   1.042  -0.019  16.192  1.3195 -0.2946 -0.7936
 3119TIP3    H230773   1.024  -0.012  16.342  0.2842 -2.9109 -0.7462
 3120TIP3   OH230774   3.307   2.196  14.108  0.0278 -0.0809 -0.1103
 3120TIP3    H130775   3.223   2.223  14.070  0.0300 -2.2991 -1.8961
 3120TIP3    H230776   3.318   2.106  14.079  2.9012  0.0459  0.3418
 3121TIP3   OH230777   3.853   0.226  12.375  0.3036  0.5309  0.0207
 3121TIP3    H130778   3.937   0.237  12.418  0.7634 -0.5540 -0.5538
 3121TIP3    H230779   3.857   0.138  12.337 -0.7060  0.8406 -0.8481
 3122TIP3   OH230780   5.142   5.730  12.428 -0.3616  0.3341  0.2840
 3122TIP3    H130781   5.088   5.744  12.350  1.0476  0.5817 -0.6797
 3122TIP3    H230782   5.202   5.659  12.403  0.1849  0.4918  1.1111
 3123TIP3   OH230783   3.773   4.691  14.728 -0.2433  0.4681 -0.3322
 3123TIP3    H130784   3.799   4.779  14.753  0.1647  0.1283  0.4818
 3123TIP3    H230785   3.750   4.648  14.810  1.1108 -0.6786 -0.5180
 3124TIP3   OH230786   0.030   5.122   0.258  0.3037  0.4483  0.1657
 3124TIP3    H130787  -0.020   5.199   0.233 -1.2790 -0.3575  0.7431
 3124TIP3    H230788   0.042   5.130   0.353  0.1875  0.0172  0.2188
 3125TIP3   OH230789   0.914   1.630  13.330 -0.1143  0.3354 -0.2493
 3125TIP3    H130790   0.904   1.653  13.237  1.4812  2.1556 -0.0280
 3125TIP3    H230791   0.921   1.714  13.375  1.1856 -0.5194  1.2599
 3126TIP3   OH230792   0.149   5.327   1.479 -0.7834  0.2031 -0.3740
 3126TIP3    H130793   0.101   5.244   1.485  1.2049 -1.1337 -1.6013
 3126TIP3    H230794   0.226   5.306   1.425 -0.2729  2.8993 -0.8198
 3127TIP3   OH230795   5.246   1.372  11.810  0.6397  0.3789  1.3460
 3127TIP3    H130796   5.315   1.307  11.798  0.3597  0.0656  1.4427
 3127TIP3    H230797   5.173   1.341  11.757  0.1074  0.0196  2.2622
 3128TIP3   OH230798   6.673   1.829  14.932  0.0356 -0.2411 -0.3777
 3128TIP3    H130799   6.763   1.856  14.949  0.1176 -0.3564 -0.6266
 3128TIP3    H230800   6.679   1.773  14.854 -0.1867 -0.6278 -0.1224
 3129TIP3   OH230801   3.960   6.801   0.388 -0.2140 -0.3828 -0.4431
 3129TIP3    H130802   3.959   6.890   0.354  1.5334 -0.1396  0.0618
 3129TIP3    H230803   3.922   6.808   0.475  2.9579  0.5708  1.0132
 3130TIP3   OH230804   4.789   2.260  16.065 -0.0175 -0.3776  0.1821
 3130TIP3    H130805   4.715   2.271  16.006  1.6768  0.8022 -1.8639
 3130TIP3    H230806   4.851   2.205  16.016  1.4292  0.5920  0.8393
 3131TIP3   OH230807   2.264   2.621   3.883  0.7807 -0.4773  0.3823
 3131TIP3    H130808   2.205   2.692   3.857  0.4259 -1.0323 -0.3580
 3131TIP3    H230809   2.302   2.651   3.966  0.7432  0.6379  0.0171
 3132TIP3   OH230810   3.640   1.373   1.480  0.4881  0.1293  0.1131
 3132TIP3    H130811   3.659   1.347   1.570 -0.0037 -0.5080  0.0375
 3132TIP3    H230812   3.725   1.401   1.445  0.3585  2.3285  1.3752
 3133TIP3   OH230813   2.177   4.700   0.522  0.3300 -0.2002 -0.3265
 3133TIP3    H130814   2.127   4.743   0.591 -0.1993 -0.1011 -0.7647
 3133TIP3    H230815   2.112   4.680   0.454  1.1657  1.6506 -1.7475
 3134TIP3   OH230816   5.999   4.485   1.790  0.2352  0.0643 -0.4467
 3134TIP3    H130817   6.057   4.524   1.724 -0.0310  0.3064 -0.5358
 3134TIP3    H230818   5.911   4.496   1.755  0.1980 -1.3549 -0.8755
 3135TIP3   OH230819   2.674   2.841   0.051  0.1259 -0.2128 -0.1720
 3135TIP3    H130820   2.706   2.882   0.131  0.7321 -0.8814 -0.0625
 3135TIP3    H230821   2.641   2.913  -0.002 -1.9085  0.1137  1.3890
 3136TIP3   OH230822   2.096   3.436  11.608  0.0882  0.3575  0.7496
 3136TIP3    H130823   2.158   3.510  11.604 -0.0993  0.5120  0.6757
 3136TIP3    H230824   2.028   3.465  11.668  0.8485 -0.3983  2.0138
 3137TIP3   OH230825   5.936   4.435   4.982 -0.1069 -0.0294 -0.0558
 3137TIP3    H130826   5.953   4.417   4.890  0.5603  3.2141 -0.7212
 3137TIP3    H230827   6.016   4.409   5.027 -0.5503 -1.9117 -0.2987
 3138TIP3   OH230828   2.809   1.216  12.096  0.8505  0.0338 -0.1293
 3138TIP3    H130829   2.803   1.215  12.001 -1.6145  0.6024 -0.0399
 3138TIP3    H230830   2.841   1.304  12.117  3.3437 -0.7118 -0.4140
 3139TIP3   OH230831   6.172   2.293  14.432  0.1607 -0.3058  0.2089
 3139TIP3    H130832   6.234   2.259  14.498 -0.4305 -1.4525  0.1929
 3139TIP3    H230833   6.153   2.382  14.462  1.3290 -0.1500  0.5633
 3140TIP3   OH230834   4.295   0.127   4.726 -0.1283  0.0872 -0.1043
 3140TIP3    H130835   4.262   0.181   4.655 -0.5011  0.2137  0.1635
 3140TIP3    H230836   4.345   0.058   4.682 -2.4499 -1.3429 -0.6769
 3141TIP3   OH230837   0.812   2.359   2.687 -0.0256  0.0753  0.1438
 3141TIP3    H130838   0.808   2.454   2.675 -1.6558  0.0802  0.4755
 3141TIP3    H230839   0.729   2.327   2.651  0.7916 -1.3150 -0.5887
 3142TIP3   OH230840   3.287   3.291  15.646 -0.8829 -0.1010 -0.2285
 3142TIP3    H130841   3.274   3.231  15.719 -1.6206  0.6255  0.2570
 3142TIP3    H230842   3.327   3.369  15.685 -0.8346  0.1038 -0.6785
 3143TIP3   OH230843   4.314   0.955   0.911 -0.3895 -0.0166 -0.2791
 3143TIP3    H130844   4.237   0.905   0.938 -0.3793  0.5374  0.8561
 3143TIP3    H230845   4.281   1.043   0.896  0.0030  0.2117  0.1741
 3144TIP3   OH230846   3.969   5.449   0.795 -0.9109  0.1310 -0.4124
 3144TIP3    H130847   4.002   5.387   0.859 -1.5379  0.2562  0.0462
 3144TIP3    H230848   3.881   5.417   0.774 -0.9907  0.5012 -0.6556
 3145TIP3   OH230849   3.464   4.405  14.739 -0.4669 -0.0242 -0.1244
 3145TIP3    H130850   3.447   4.466  14.667 -0.1967  0.7950  0.4976
 3145TIP3    H230851   3.402   4.431  14.807 -0.3086 -0.4058  0.1659
 3146TIP3   OH230852   4.955   6.509  11.230  0.4034 -0.5976  0.5013
 3146TIP3    H130853   4.907   6.455  11.293 -2.6582  3.5892  2.2140
 3146TIP3    H230854   4.896   6.515  11.155  0.6995  0.2709  0.3331
 3147TIP3   OH230855   2.719   5.066  16.626  0.2111 -0.4558 -0.2809
 3147TIP3    H130856   2.789   5.118  16.588 -0.9519 -0.3627 -2.4177
 3147TIP3    H230857   2.696   5.003  16.558 -0.4060 -1.8446  1.1537
 3148TIP3   OH230858   2.341   3.892   2.256  0.3161 -0.3410  0.0306
 3148TIP3    H130859   2.278   3.955   2.221  2.1154  0.6124 -1.6856
 3148TIP3    H230860   2.341   3.820   2.192  0.3105 -0.7682  0.5050
 3149TIP3   OH230861   1.901   5.351  17.068 -0.6110 -0.3230 -0.4202
 3149TIP3    H130862   1.886   5.335  16.975 -0.8069 -1.2124 -0.2433
 3149TIP3    H230863   1.956   5.429  17.070  0.6309 -1.1442 -1.3327
 3150TIP3   OH230864   1.777   4.223  16.764  0.0324 -0.0095 -0.0717
 3150TIP3    H130865   1.836   4.293  16.793  0.0080 -1.2338  3.5120
 3150TIP3    H230866   1.746   4.251  16.679  1.7197  3.2507  0.2286
 3151TIP3   OH230867   0.171   6.670  15.047  0.3425  0.2617  0.0610
 3151TIP3    H130868   0.182   6.650  15.140  1.3521  1.1725  0.1532
 3151TIP3    H230869   0.179   6.765  15.041  2.5572  0.0693 -1.2168
 3152TIP3   OH230870   1.691   2.942  14.142 -0.5477 -0.3220 -0.0913
 3152TIP3    H130871   1.687   3.035  14.120  1.0420 -0.1791  0.1445
 3152TIP3    H230872   1.602   2.910  14.124 -1.3611  1.4010  0.6203
 3153TIP3   OH230873   2.116   0.868   1.546  0.2374 -0.2472  0.3520
 3153TIP3    H130874   2.203   0.843   1.514  0.1417 -0.3162  0.1431
 3153TIP3    H230875   2.059   0.796   1.517  0.5203 -1.4632  2.5752
 3154TIP3   OH230876   2.190   2.059  16.199  0.4010  0.0039  0.6652
 3154TIP3    H130877   2.144   2.027  16.277 -1.1032  0.7889  0.1356
 3154TIP3    H230878   2.127   2.049  16.128  0.7526  1.8418  0.0418
 3155TIP3   OH230879   6.142   4.771  10.382 -0.3644  0.1597  0.1073
 3155TIP3    H130880   6.187   4.713  10.321  0.4629  0.0103  0.8408
 3155TIP3    H230881   6.208   4.837  10.405 -0.6779  0.2256  0.8202
 3156TIP3   OH230882   5.306   2.251   3.176  0.6148  0.0354  0.8416
 3156TIP3    H130883   5.295   2.251   3.271  0.6435 -1.0240  0.8602
 3156TIP3    H230884   5.222   2.219   3.142  1.3817 -1.9793  0.6652
 3157TIP3   OH230885   5.600   4.582  15.758  0.0254  0.1041 -0.0979
 3157TIP3    H130886   5.516   4.597  15.800 -0.4012 -0.7569 -0.6319
 3157TIP3    H230887   5.664   4.592  15.829 -0.4892  1.0338  0.2507
 3158TIP3   OH230888   0.227   2.590   0.052 -0.3934 -0.0415 -0.0179
 3158TIP3    H130889   0.319   2.582   0.075 -0.3360 -1.6326 -0.6785
 3158TIP3    H230890   0.226   2.599  -0.043 -0.9743 -2.3199 -0.2788
 3159TIP3   OH230891   3.961   1.220   3.163  0.1912  0.2275  0.3192
 3159TIP3    H130892   4.007   1.225   3.079  2.1074  1.0551  1.3455
 3159TIP3    H230893   3.895   1.289   3.158 -0.9378 -0.8820 -1.1359
 3160TIP3   OH230894   3.671   0.142  12.673 -0.0191 -0.3206 -0.8490
 3160TIP3    H130895   3.617   0.122  12.750  0.3901  1.4211 -0.0460
 3160TIP3    H230896   3.608   0.149  12.602 -0.7440  0.5297 -0.1518
 3161TIP3   OH230897   6.187   3.858  13.765  0.1257 -0.4111  0.2164
 3161TIP3    H130898   6.095   3.865  13.792 -0.2641 -0.2285 -1.0559
 3161TIP3    H230899   6.226   3.798  13.828 -0.9832 -0.8316  0.5339
 3162TIP3   OH230900   4.373   1.801  12.958 -0.0157  0.3302 -0.0272
 3162TIP3    H130901   4.321   1.780  13.035  0.9332  0.4188  0.6624
 3162TIP3    H230902   4.337   1.883  12.925 -0.9628 -0.1364 -0.1770
 3163TIP3   OH230903   4.649   0.500  11.707 -0.1166  0.0952 -0.4870
 3163TIP3    H130904   4.735   0.536  11.727  0.5498 -2.9160  3.3774
 3163TIP3    H230905   4.588   0.569  11.731  1.0861  2.2780 -3.2598
 3164TIP3   OH230906   1.426   2.894   3.701  0.7045 -0.0325 -0.4242
 3164TIP3    H130907   1.370   2.820   3.680  0.7076  0.1053 -0.9228
 3164TIP3    H230908   1.475   2.866   3.779 -0.8735  0.2821  0.7220
 3165TIP3   OH230909   0.656   5.494  16.883  0.4877 -0.4536 -0.2299
 3165TIP3    H130910   0.642   5.584  16.854  0.8840 -0.1533  0.4908
 3165TIP3    H230911   0.751   5.486  16.891  0.4008 -0.5764  0.7950
 3166TIP3   OH230912   1.500   3.816   5.961  0.6080 -0.5026 -0.1977
 3166TIP3    H130913   1.584   3.832   5.917  0.2711  1.7073 -0.1266
 3166TIP3    H230914   1.523   3.765   6.038  1.8515 -0.2002 -0.3477
 3167TIP3   OH230915   0.504   0.283  16.945  0.1241  0.0947  0.7959
 3167TIP3    H130916   0.585   0.296  16.994 -0.2692  2.3371  0.9475
 3167TIP3    H230917   0.440   0.336  16.991 -0.9103  0.1072 -0.6049
 3168TIP3   OH230918   2.566   6.353   5.452 -0.9997 -0.6533 -0.2894
 3168TIP3    H130919   2.505   6.324   5.520 -0.5059 -0.4503  0.2508
 3168TIP3    H230920   2.527   6.323   5.370 -1.7920 -0.5762  0.0526
 3169TIP3   OH230921   1.933   1.604   6.525 -0.2351 -0.1128  0.0025
 3169TIP3    H130922   1.999   1.535   6.512 -0.8137 -0.4855 -1.0992
 3169TIP3    H230923   1.984   1.683   6.542  0.5243 -0.3121 -1.2427
 3170TIP3   OH230924   5.737   3.554  14.000 -0.0623 -0.0701 -0.4907
 3170TIP3    H130925   5.780   3.486  13.949 -0.2632 -1.0110  0.5492
 3170TIP3    H230926   5.647   3.555  13.967  0.6748  1.9182 -2.6858
 3171TIP3   OH230927   4.459   1.135   0.077  0.5504  0.6287 -0.5951
 3171TIP3    H130928   4.382   1.088   0.048 -0.4828  1.1820  1.0766
 3171TIP3    H230929   4.520   1.067   0.105  1.1802  0.1345 -2.9416
 3172TIP3   OH230930   3.857   0.900  16.544  0.2843 -0.0534 -0.0489
 3172TIP3    H130931   3.817   0.969  16.596 -0.6223  1.2398 -2.3363
 3172TIP3    H230932   3.947   0.893  16.578 -0.2830  0.5939  1.7239
 3173TIP3   OH230933   2.395   2.789  15.032  0.3631  0.1934 -0.3233
 3173TIP3    H130934   2.341   2.830  14.965  0.3174 -0.4277 -0.6729
 3173TIP3    H230935   2.436   2.862  15.078 -1.0830  0.7114  0.2180
 3174TIP3   OH230936   5.825   1.179  15.448 -0.0747 -0.4228  0.3724
 3174TIP3    H130937   5.803   1.090  15.477  0.7706 -0.2389  1.6800
 3174TIP3    H230938   5.740   1.219  15.428 -0.6238 -0.9698  1.4904
 3175TIP3   OH230939   1.566   6.479  13.550  0.7837 -0.5205  0.1084
 3175TIP3    H130940   1.624   6.514  13.482  2.4544 -0.9568  1.2358
 3175TIP3    H230941   1.478   6.489  13.515  1.5400  0.1898 -1.6800
 3176TIP3   OH230942   0.654   6.513   4.595 -0.2890  0.5423 -0.5645
 3176TIP3    H130943   0.578   6.497   4.651  0.3538  0.9001  0.4390
 3176TIP3    H230944   0.692   6.426   4.581 -0.1537  0.4973  0.0178
 3177TIP3   OH230945   6.751   3.610  12.982 -0.1652 -0.2565 -0.7459
 3177TIP3    H130946   6.821   3.613  13.048  1.2348 -0.3959 -2.1688
 3177TIP3    H230947   6.696   3.686  13.003  0.9481  0.4222 -0.1562
 3178TIP3   OH230948   3.065   4.200   2.424  0.6524  0.0514  0.4900
 3178TIP3    H130949   3.002   4.257   2.467 -0.4603 -0.0818 -0.8901
 3178TIP3    H230950   3.014   4.122   2.401  2.4200 -2.2646  3.6150
 3179TIP3   OH230951   2.707   3.670  16.005  0.0455  0.7432 -0.5318
 3179TIP3    H130952   2.717   3.653  16.099  1.1196  1.8450 -0.4314
 3179TIP3    H230953   2.667   3.590  15.971 -0.1514  0.2375  0.8232
 3180TIP3   OH230954   1.263   5.861   3.930 -0.0404  0.6717  0.1058
 3180TIP3    H130955   1.210   5.785   3.906  1.6801 -0.9377  1.1251
 3180TIP3    H230956   1.242   5.927   3.865  1.5214 -2.0809 -3.5256
 3181TIP3   OH230957   2.923   3.428  16.297 -0.2099 -0.1089 -0.9532
 3181TIP3    H130958   2.949   3.342  16.264 -0.5969  0.3479 -2.5080
 3181TIP3    H230959   2.963   3.491  16.237 -2.2069  0.7012 -1.5185
 3182TIP3   OH230960   2.845   2.950   0.798 -0.6468 -0.5306 -0.1720
 3182TIP3    H130961   2.781   3.018   0.778  0.9356  0.7970 -0.9593
 3182TIP3    H230962   2.852   2.950   0.893  1.4851  2.6193 -0.1724
 3183TIP3   OH230963   3.835   5.249   1.480 -0.4679 -0.2051 -0.0366
 3183TIP3    H130964   3.866   5.235   1.570  1.2124 -1.8521 -0.8220
 3183TIP3    H230965   3.913   5.244   1.426 -1.3200  1.5920 -1.5703
 3184TIP3   OH230966   0.816   6.638   3.899  0.3045 -0.3723 -0.3174
 3184TIP3    H130967   0.782   6.727   3.894  0.1310 -0.2286  2.1711
 3184TIP3    H230968   0.864   6.626   3.817 -3.1974  0.4436 -2.7049
 3185TIP3   OH230969   3.142   3.603   1.738 -0.8516  0.5678  0.5779
 3185TIP3    H130970   3.101   3.588   1.653 -0.2441 -1.9189  0.6428
 3185TIP3    H230971   3.071   3.595   1.801 -1.7514  4.5426  0.3384
 3186TIP3   OH230972   1.995   2.145   6.179  0.2345 -0.0585  0.1285
 3186TIP3    H130973   2.010   2.069   6.235  0.1640  0.2010  0.5037
 3186TIP3    H230974   2.032   2.120   6.095  0.7173 -0.2960  0.4067
 3187TIP3   OH230975   0.711   4.572  12.896 -0.0711  0.0949 -0.0793
 3187TIP3    H130976   0.631   4.624  12.905  2.4061  3.9788  2.4140
 3187TIP3    H230977   0.716   4.521  12.977 -0.6726 -1.3341 -0.9061
 3188TIP3   OH230978   3.773   2.083   1.446  0.0131 -0.1640 -0.1722
 3188TIP3    H130979   3.744   2.144   1.514  2.2850  1.9100 -0.9110
 3188TIP3    H230980   3.744   2.122   1.364  0.2240 -0.8649 -0.5878
 3189TIP3   OH230981   1.311   4.625   3.152  0.3632  0.5311 -0.0272
 3189TIP3    H130982   1.393   4.660   3.118  0.6638  0.1328  0.2718
 3189TIP3    H230983   1.243   4.671   3.104  0.7758 -0.0288 -1.1848
 3190TIP3   OH230984   3.319   4.594   5.996 -0.2773 -0.1168 -0.0312
 3190TIP3    H130985   3.224   4.606   5.996 -0.2912 -0.1296 -1.2654
 3190TIP3    H230986   3.331   4.500   5.984 -0.1119  0.0507 -1.2707
 3191TIP3   OH230987   2.636   4.168  15.528 -0.0848 -0.2787 -0.1609
 3191TIP3    H130988   2.729   4.145  15.529  0.2781  0.9753 -1.4233
 3191TIP3    H230989   2.625   4.228  15.602  0.3237  0.2545 -0.5244
 3192TIP3   OH230990   1.109   6.581  12.435  0.1303  0.2777 -0.0369
 3192TIP3    H130991   1.109   6.672  12.406  1.6170  0.5403  0.7149
 3192TIP3    H230992   1.114   6.530  12.354  0.7564  0.9104 -0.4042
 3193TIP3   OH230993   6.237   4.553  12.459  0.3087  0.2845 -0.4063
 3193TIP3    H130994   6.301   4.530  12.526  0.5668  1.8650 -0.0777
 3193TIP3    H230995   6.159   4.581  12.507 -0.1745 -0.3538 -0.7940
 3194TIP3   OH230996   2.892   4.515  14.406  0.1410  0.0649 -0.1997
 3194TIP3    H130997   2.976   4.544  14.372  0.8752 -0.5531  1.0210
 3194TIP3    H230998   2.852   4.594  14.443  0.7735  0.1115  0.3915
 3195TIP3   OH230999   0.915   1.453   3.244  0.3272  0.1598  0.5676
 3195TIP3    H131000   1.000   1.425   3.277  0.7436  1.6983  0.8857
 3195TIP3    H231001   0.935   1.520   3.179 -0.6444  1.1210  1.2186
 3196TIP3   OH231002   1.682   3.081   1.982  0.2092  0.5434 -0.0038
 3196TIP3    H131003   1.717   3.156   2.028  2.9280 -1.1528  0.9164
 3196TIP3    H231004   1.721   3.086   1.894  0.7368  0.0317  0.1923
 3197TIP3   OH231005   0.789   6.262   1.556  0.1806  0.4711  0.1809
 3197TIP3    H131006   0.813   6.247   1.464 -0.8512  0.6190 -0.1297
 3197TIP3    H231007   0.693   6.266   1.555  0.1414  0.1857  1.3126
 3198TIP3   OH231008   0.170   2.943   2.549 -0.0545 -0.9705  0.0236
 3198TIP3    H131009   0.133   2.999   2.617  0.3622 -2.3793  1.4496
 3198TIP3    H231010   0.131   2.857   2.564  1.4486 -1.7462 -0.3714
 3199TIP3   OH231011   5.677   2.127   0.109  0.0383  0.6758  0.2553
 3199TIP3    H131012   5.768   2.113   0.083  0.5946  3.3628  0.4726
 3199TIP3    H231013   5.660   2.059   0.174  2.5689  1.2811  1.6977
 3200TIP3   OH231014   4.281   3.092  14.581 -0.0640  0.1022  0.0421
 3200TIP3    H131015   4.285   3.187  14.570  1.5360  0.0928  0.2348
 3200TIP3    H231016   4.196   3.067  14.548  0.5852  1.2736 -2.7492
 3201TIP3   OH231017   1.827   5.929   1.113  0.1472  0.1186  0.2268
 3201TIP3    H131018   1.893   5.911   1.046 -0.8285 -1.8657 -0.2910
 3201TIP3    H231019   1.756   5.971   1.066 -0.0971 -0.2843  0.2376
 3202TIP3   OH231020   3.818   4.222  10.672  0.0122 -0.2921  0.0417
 3202TIP3    H131021   3.803   4.142  10.621 -0.9800  1.2720 -2.3099
 3202TIP3    H231022   3.909   4.246  10.654 -0.3565  0.2945 -1.1501
 3203TIP3   OH231023   2.814   4.176   0.411 -0.2880  0.4355 -0.2451
 3203TIP3    H131024   2.775   4.254   0.373 -0.5972  0.0993 -0.6304
 3203TIP3    H231025   2.900   4.169   0.369 -1.5859 -1.3606 -2.9332
 3204TIP3   OH231026   5.056   1.514   6.367 -0.0259 -0.0166 -0.9198
 3204TIP3    H131027   5.017   1.461   6.297  1.6164 -1.0569 -1.0869
 3204TIP3    H231028   5.018   1.480   6.447  0.1187 -0.6360 -1.1135
 3205TIP3   OH231029   2.790   2.596  17.051 -0.2387  0.4193  0.5709
 3205TIP3    H131030   2.710   2.645  17.066  0.0309  0.9648  0.2467
 3205TIP3    H231031   2.762   2.504  17.047 -1.4820  0.7954 -3.2488
 3206TIP3   OH231032   3.321   5.160   1.081 -0.3287  0.3321  0.8438
 3206TIP3    H131033   3.342   5.177   0.989  1.5629 -0.0121  1.1805
 3206TIP3    H231034   3.226   5.143   1.080 -0.4263  0.7170 -0.9736
 3207TIP3   OH231035   4.153   2.228  16.097 -0.4899  0.1015  0.0288
 3207TIP3    H131036   4.136   2.232  16.191 -0.0011  2.1812  0.0905
 3207TIP3    H231037   4.083   2.281  16.058  1.0142  1.8590 -0.4412
 3208TIP3   OH231038   2.972   5.826  15.823 -0.1579  0.1213 -0.6241
 3208TIP3    H131039   2.971   5.915  15.859 -0.9875  0.4830 -1.5076
 3208TIP3    H231040   3.023   5.776  15.886  1.8072  1.5765 -0.9790
 3209TIP3   OH231041   0.234   0.913  11.457  0.4511 -0.5045  0.6523
 3209TIP3    H131042   0.304   0.897  11.393 -0.9789 -0.3580 -0.9938
 3209TIP3    H231043   0.176   0.838  11.448 -1.1463  0.7669 -0.1371
 3210TIP3   OH231044   2.862   3.314  13.892 -0.5841  0.0917  0.7005
 3210TIP3    H131045   2.896   3.250  13.830  3.7279  0.9027  1.9373
 3210TIP3    H231046   2.835   3.262  13.967 -1.7218 -0.5451 -0.1114
 3211TIP3   OH231047   0.974   4.127   0.533  0.2947 -0.9436 -0.6517
 3211TIP3    H131048   1.002   4.116   0.624 -0.9116  1.3393  0.0839
 3211TIP3    H231049   1.015   4.055   0.486  1.8275 -1.5749  1.5060
 3212TIP3   OH231050   0.256   4.256  15.733 -0.2455 -0.2801 -0.2327
 3212TIP3    H131051   0.238   4.237  15.641 -1.1939 -1.2174  0.1209
 3212TIP3    H231052   0.343   4.294  15.734 -0.3251 -0.0439 -1.5438
 3213TIP3   OH231053   3.600   5.645   4.328  0.3127 -0.0522  0.3083
 3213TIP3    H131054   3.696   5.637   4.326  0.6016  2.4178  1.0099
 3213TIP3    H231055   3.578   5.643   4.421 -0.3618 -0.8278  0.1402
 3214TIP3   OH231056   2.322   1.571  13.421  0.0059  0.5362  0.3423
 3214TIP3    H131057   2.238   1.568  13.374  0.3876 -0.9987 -0.2699
 3214TIP3    H231058   2.304   1.529  13.505 -0.1363  1.3691  0.7452
 3215TIP3   OH231059   1.046   6.581   0.044  0.1732 -0.4886 -0.2265
 3215TIP3    H131060   1.060   6.556  -0.048  0.4836 -0.1007 -0.2874
 3215TIP3    H231061   1.085   6.509   0.094  0.8139 -0.2718 -0.4016
 3216TIP3   OH231062   6.407   3.494   3.628 -0.0214  0.1558  0.0526
 3216TIP3    H131063   6.381   3.522   3.715 -0.4230 -2.0158  0.7043
 3216TIP3    H231064   6.463   3.417   3.643 -0.5383 -0.6042 -1.6054
 3217TIP3   OH231065   4.169   4.667   2.244 -0.2918  0.1469  0.1736
 3217TIP3    H131066   4.079   4.637   2.227 -0.8370  0.8389  1.6986
 3217TIP3    H231067   4.223   4.614   2.185 -1.5147 -1.6648  0.5980
 3218TIP3   OH231068   1.977   5.000   5.542  0.3344  0.1971  0.3792
 3218TIP3    H131069   2.067   4.977   5.517 -0.3328 -1.3807 -0.7849
 3218TIP3    H231070   1.959   5.080   5.492  0.1346 -1.1271 -1.8090
 3219TIP3   OH231071   3.790   5.268   4.835  0.0593  0.2598 -0.0016
 3219TIP3    H131072   3.698   5.259   4.812  0.0501 -0.9212  0.4324
 3219TIP3    H231073   3.817   5.350   4.794 -1.7094  1.7415  1.6057
 3220TIP3   OH231074   2.115   1.611   2.112  0.0529  0.2339  1.0212
 3220TIP3    H131075   2.065   1.568   2.181  0.1902 -0.0148  0.9670
 3220TIP3    H231076   2.184   1.659   2.158 -0.9056  1.4990  1.1749
 3221TIP3   OH231077   0.473   6.019   2.984 -0.3800 -0.5281 -0.2381
 3221TIP3    H131078   0.488   5.930   3.015 -1.1741 -0.2270  1.0636
 3221TIP3    H231079   0.401   6.052   3.037  0.4939  1.2083 -0.0477
 3222TIP3   OH231080   2.250   1.393   5.200 -0.1807 -0.6863  0.3725
 3222TIP3    H131081   2.285   1.416   5.114 -1.9202 -1.2300 -0.5291
 3222TIP3    H231082   2.213   1.305   5.189  0.8057 -1.3695  2.0751
 3223TIP3   OH231083   0.381   4.003   5.509 -0.0691  0.0498  0.6887
 3223TIP3    H131084   0.362   3.969   5.597 -1.5617  0.9337  0.7434
 3223TIP3    H231085   0.330   4.084   5.503  1.8971  1.3047 -0.1343
 3224TIP3   OH231086   4.170   0.013   4.091 -0.0417  0.3134 -0.3180
 3224TIP3    H131087   4.114   0.062   4.032  1.8244  2.0534 -0.7339
 3224TIP3    H231088   4.115  -0.004   4.168 -2.2082 -1.1789 -2.0873
 3225TIP3   OH231089   0.934   2.531  14.646  0.0443  0.4633 -0.2078
 3225TIP3    H131090   0.911   2.441  14.669 -0.9598  0.6149 -0.5353
 3225TIP3    H231091   1.020   2.545  14.684 -1.2043  0.4960  2.8341
 3226TIP3   OH231092   1.002   4.673  13.649 -0.2922 -0.0471 -0.9917
 3226TIP3    H131093   1.013   4.589  13.604 -0.6731 -0.0336 -1.1161
 3226TIP3    H231094   1.086   4.717  13.638 -0.7467  0.4639 -2.7675
 3227TIP3   OH231095   1.135   5.236   1.685 -0.0912  0.0711  0.1529
 3227TIP3    H131096   1.188   5.292   1.629 -1.8941  1.8304  0.0748
 3227TIP3    H231097   1.165   5.255   1.774 -1.3958  2.1291  0.2298
 3228TIP3   OH231098   5.428   1.744   2.171 -0.0634  0.0826 -0.4389
 3228TIP3    H131099   5.413   1.812   2.105 -3.0057  0.8044  0.8198
 3228TIP3    H231100   5.401   1.662   2.128  0.9461  0.0658 -1.0766
 3229TIP3   OH231101   2.129   0.295   0.210  0.0915 -0.2317  0.0947
 3229TIP3    H131102   2.096   0.206   0.224 -0.3869  0.0086  0.5523
 3229TIP3    H231103   2.181   0.289   0.130  0.1439 -0.9429  0.1768
 3230TIP3   OH231104   0.740   4.489   4.666  0.2587  0.2286 -0.1120
 3230TIP3    H131105   0.750   4.574   4.623  2.5849 -0.1864 -0.5109
 3230TIP3    H231106   0.714   4.511   4.756  0.3367  1.3308 -0.3392
 3231TIP3   OH231107   1.271   5.648  11.441 -0.4418  0.3961  0.0217
 3231TIP3    H131108   1.344   5.704  11.416  1.3239 -1.7470  0.0309
 3231TIP3    H231109   1.256   5.669  11.533  1.5352 -0.4314  0.6054
 3232TIP3   OH231110   5.788   5.835   1.263 -0.0850 -0.7387 -0.4997
 3232TIP3    H131111   5.842   5.775   1.315 -0.0943 -0.2308  0.1159
 3232TIP3    H231112   5.847   5.908   1.243 -0.0346 -1.0020 -1.3548
 3233TIP3   OH231113   0.131   0.064   4.444 -0.2373  0.3149  0.1571
 3233TIP3    H131114   0.165   0.101   4.525  1.5080  0.3168 -0.5388
 3233TIP3    H231115   0.155   0.127   4.376  0.9430 -1.0365 -0.7448
 3234TIP3   OH231116   0.206   5.297   5.937 -0.0895 -0.2898 -0.3839
 3234TIP3    H131117   0.148   5.261   6.004 -0.3800 -2.0782 -1.5283
 3234TIP3    H231118   0.153   5.363   5.893 -0.6548 -0.6477 -0.2604
 3235TIP3   OH231119   3.743   2.430  11.446 -0.2080  0.6483 -0.0749
 3235TIP3    H131120   3.773   2.515  11.480 -0.9912  0.8357  0.1711
 3235TIP3    H231121   3.727   2.378  11.525 -0.2734  0.4624 -0.2111
 3236TIP3   OH231122   3.649   1.460   0.966 -0.2371 -0.4450  0.3123
 3236TIP3    H131123   3.643   1.524   1.037  1.5115  1.2528 -0.9860
 3236TIP3    H231124   3.743   1.449   0.952 -0.5044  0.3468 -2.6398
 3237TIP3   OH231125   0.740   3.876   5.550  0.1189 -0.4045  0.8487
 3237TIP3    H131126   0.653   3.908   5.523  0.5378 -0.4075 -0.6124
 3237TIP3    H231127   0.737   3.782   5.531  1.3450  0.0157 -2.0118
 3238TIP3   OH231128   1.469   6.408  12.945 -0.2195  0.1604 -0.2807
 3238TIP3    H131129   1.482   6.390  13.039 -0.2924  0.5417 -0.1959
 3238TIP3    H231130   1.393   6.466  12.942  0.3180  0.8764 -0.5012
 3239TIP3   OH231131   1.631   4.443   0.106  0.6483  0.6060  0.0019
 3239TIP3    H131132   1.633   4.390   0.027 -2.0928 -1.7891  1.3567
 3239TIP3    H231133   1.675   4.389   0.172  0.2240  1.2261  0.8055
 3240TIP3   OH231134   0.955   0.649   5.040  0.4248 -0.4655  0.4528
 3240TIP3    H131135   0.971   0.569   5.091  0.7018 -0.2570  0.6933
 3240TIP3    H231136   0.874   0.630   4.992 -1.0567  0.0871  2.5731
 3241TIP3   OH231137   5.895   0.095  14.547  0.7618 -0.1458 -0.5511
 3241TIP3    H131138   5.817   0.044  14.571  1.7487 -1.6962 -0.4519
 3241TIP3    H231139   5.872   0.185  14.568 -0.6199 -0.6990  0.5112
 3242TIP3   OH231140   6.116   6.240   2.408 -0.5561 -1.0556 -0.9953
 3242TIP3    H131141   6.139   6.234   2.501  1.3061 -1.0984 -1.4231
 3242TIP3    H231142   6.035   6.291   2.407 -0.6302 -1.0779  0.6477
 3243TIP3   OH231143   5.449   0.891  11.866 -0.0401 -0.4174 -0.4724
 3243TIP3    H131144   5.368   0.840  11.867 -0.2943 -0.0232 -0.8991
 3243TIP3    H231145   5.482   0.885  11.956 -0.5107 -0.6267 -0.3114
 3244TIP3   OH231146   6.057   6.597  11.600 -0.5321 -0.0926 -0.4170
 3244TIP3    H131147   6.141   6.587  11.554  0.0452 -1.2794  0.8536
 3244TIP3    H231148   5.998   6.632  11.533  0.9832  0.8721 -1.3136
 3245TIP3   OH231149   3.470   5.150  13.916 -0.0450  0.0129 -0.2386
 3245TIP3    H131150   3.540   5.108  13.866  1.8261  1.7681  0.7337
 3245TIP3    H231151   3.447   5.227  13.864 -0.5152 -0.0005 -0.0536
 3246TIP3   OH231152   1.039   0.895  17.031 -0.2743 -0.1046 -0.1545
 3246TIP3    H131153   0.986   0.832  16.982 -1.6092  1.9094 -1.4092
 3246TIP3    H231154   1.099   0.932  16.967  0.6571 -0.2129  0.6234
 3247TIP3   OH231155   3.518   2.249   1.941  0.4352  0.0028 -0.1260
 3247TIP3    H131156   3.457   2.218   1.875  0.5659  1.0375 -0.7452
 3247TIP3    H231157   3.604   2.218   1.912  0.3192 -0.7820  0.3353
 3248TIP3   OH231158   3.511   2.171   3.313  0.2544  0.9112 -0.3525
 3248TIP3    H131159   3.471   2.228   3.378 -0.6025  0.7991 -0.7645
 3248TIP3    H231160   3.537   2.093   3.361 -1.0778  0.4960 -0.2547
 3249TIP3   OH231161   6.222   2.123  14.195  0.2888 -0.3917  0.2602
 3249TIP3    H131162   6.229   2.171  14.277  0.9007  2.2157 -1.2182
 3249TIP3    H231163   6.313   2.108  14.168  0.3360  3.0704 -2.1718
 3250TIP3   OH231164   6.647   0.646   2.540  0.6722 -0.2183  0.0034
 3250TIP3    H131165   6.658   0.685   2.453  1.1565  0.7435  0.4816
 3250TIP3    H231166   6.681   0.712   2.601  0.9806 -1.1555  0.8834
 3251TIP3   OH231167   2.531   0.895   1.710  0.1275 -0.1547  0.2239
 3251TIP3    H131168   2.476   0.937   1.644 -1.2359 -0.0728  1.3544
 3251TIP3    H231169   2.605   0.954   1.722 -0.2477  0.4309 -0.3479
 3252TIP3   OH231170   4.448   4.014  15.349 -0.4638 -0.4157  0.2810
 3252TIP3    H131171   4.468   3.979  15.263  1.2328  0.5733  0.2333
 3252TIP3    H231172   4.496   4.097  15.354  0.4246 -0.9842  2.5934
 3253TIP3   OH231173   0.791   0.771   2.423  0.0074  0.2982 -0.8607
 3253TIP3    H131174   0.719   0.821   2.384  0.8196  2.0491 -0.2398
 3253TIP3    H231175   0.798   0.805   2.513 -0.2251 -1.8940  0.0487
 3254TIP3   OH231176   0.442   4.135   5.164  0.7247 -0.0362 -0.0308
 3254TIP3    H131177   0.424   4.183   5.245  2.1251 -0.5359  0.6105
 3254TIP3    H231178   0.375   4.164   5.103  0.3184  1.1935  0.9726
 3255TIP3   OH231179   2.884   4.570   3.390  0.7900  0.0163  0.6707
 3255TIP3    H131180   2.867   4.480   3.362  1.7241  0.0660 -0.1157
 3255TIP3    H231181   2.811   4.591   3.449 -0.7844 -0.4118 -1.0386
 3256TIP3   OH231182   5.171   6.598   5.297 -0.0424 -0.3512  0.4550
 3256TIP3    H131183   5.076   6.607   5.301 -0.1258  0.5558 -1.9863
 3256TIP3    H231184   5.200   6.671   5.242  1.7726 -2.1977 -1.1816
 3257TIP3   OH231185   3.387   2.596   6.842  0.2002 -0.5441  0.8307
 3257TIP3    H131186   3.301   2.588   6.800 -0.2591  0.1241  1.6051
 3257TIP3    H231187   3.439   2.647   6.781  0.4302 -1.9235 -0.1779
 3258TIP3   OH231188   2.584   3.103  17.076 -0.0485  0.2131 -0.0222
 3258TIP3    H131189   2.539   3.150  17.007  1.7842  1.2999 -0.5343
 3258TIP3    H231190   2.518   3.093  17.145 -0.9560  2.0692 -0.5642
 3259TIP3   OH231191   1.848   0.865   4.968 -0.6708  0.4974 -0.0700
 3259TIP3    H131192   1.807   0.875   5.054 -1.2781  2.1411 -0.5185
 3259TIP3    H231193   1.934   0.826   4.987 -1.3765 -0.5458  1.1208
 3260TIP3   OH231194   6.509   1.695   3.329  0.6286  0.0016  0.4430
 3260TIP3    H131195   6.593   1.663   3.297  0.5377 -1.8797  1.9048
 3260TIP3    H231196   6.445   1.631   3.297  0.0840  0.1277  1.2291
 3261TIP3   OH231197   1.939   3.418   4.740  0.2259  0.0656  0.2724
 3261TIP3    H131198   1.982   3.350   4.793 -0.7286 -0.7959 -0.0279
 3261TIP3    H231199   1.922   3.375   4.657 -0.4342  0.6716  0.0953
 3262TIP3   OH231200   3.987   5.187   0.580 -0.2626 -0.1646  0.1901
 3262TIP3    H131201   4.078   5.213   0.563 -0.5832  1.3830  0.6717
 3262TIP3    H231202   3.936   5.232   0.513 -0.6604 -1.3610 -0.3364
 3263TIP3   OH231203   5.132   3.131   4.323  0.1970  0.1340 -0.3054
 3263TIP3    H131204   5.201   3.161   4.263  0.5845 -0.5188 -0.1900
 3263TIP3    H231205   5.176   3.072   4.384 -0.6308 -1.0233 -0.7877
 3264TIP3   OH231206   6.569   2.215  13.822  0.7944  0.1611  0.6132
 3264TIP3    H131207   6.617   2.273  13.763 -1.2563  1.2308 -0.1173
 3264TIP3    H231208   6.629   2.199  13.894  1.5825  3.0076  0.7092
 3265TIP3   OH231209   3.066   5.908  16.783  0.8412 -0.4352  0.3808
 3265TIP3    H131210   3.134   5.902  16.850  1.2572 -0.1782 -0.0106
 3265TIP3    H231211   2.984   5.890  16.830  1.3839 -3.2196  0.4188
 3266TIP3   OH231212   5.084   1.312  15.188 -0.0721 -0.4583  0.0820
 3266TIP3    H131213   5.156   1.358  15.145  0.3430  0.5878  1.7985
 3266TIP3    H231214   5.127   1.255  15.252 -0.7131 -0.3401  0.6342
 3267TIP3   OH231215   4.977   2.035   3.358 -0.4563 -0.0426  0.0570
 3267TIP3    H131216   5.006   1.948   3.328 -1.1930 -0.5575  0.7747
 3267TIP3    H231217   4.882   2.032   3.347 -0.4865  0.6727  0.1314
 3268TIP3   OH231218   0.673   6.675  11.801 -0.0067  0.1094 -0.6097
 3268TIP3    H131219   0.693   6.635  11.886  0.4484 -0.1320 -0.8270
 3268TIP3    H231220   0.584   6.645  11.782 -1.2164  2.3812  1.0400
 3269TIP3   OH231221   2.374   1.961   5.800 -0.4819 -1.0332 -0.3570
 3269TIP3    H131222   2.390   1.943   5.893 -1.0998 -0.0602 -0.0500
 3269TIP3    H231223   2.450   1.924   5.755  1.8754  1.8860  0.9063
 3270TIP3   OH231224   6.572   6.398  16.458 -0.0654 -0.1995  0.1668
 3270TIP3    H131225   6.573   6.416  16.553  0.9064  2.3740 -0.2497
 3270TIP3    H231226   6.664   6.399  16.433 -0.3414 -0.4138 -0.8898
 3271TIP3   OH231227   0.804   3.186   2.352 -0.3320  0.3177 -0.2298
 3271TIP3    H131228   0.816   3.099   2.316  0.7417  0.7412 -0.9352
 3271TIP3    H231229   0.891   3.225   2.352 -0.3491  0.5420  2.3285
 3272TIP3   OH231230   4.710   1.062   0.710 -0.0412 -0.4451 -0.3593
 3272TIP3    H131231   4.624   1.061   0.668  0.2344  0.5644 -0.9969
 3272TIP3    H231232   4.730   0.970   0.728 -2.4400 -0.5534  2.3204
 3273TIP3   OH231233   3.078   4.195  11.720  0.2611 -0.4624 -0.0873
 3273TIP3    H131234   3.008   4.243  11.764 -0.3350  1.9249 -3.3113
 3273TIP3    H231235   3.036   4.114  11.691 -1.5104  1.2031 -2.5214
 3274TIP3   OH231236   1.004   0.328  13.410  0.7358 -0.2364  0.3049
 3274TIP3    H131237   1.006   0.331  13.506  0.6854 -2.0636  0.3897
 3274TIP3    H231238   0.912   0.318  13.388  1.0218 -4.0692  0.3142
 3275TIP3   OH231239   2.076   6.169  14.823 -0.2184  0.0022 -0.1190
 3275TIP3    H131240   2.119   6.093  14.861  0.2697 -1.6389 -3.5462
 3275TIP3    H231241   2.146   6.230  14.803 -0.0614 -0.4367 -0.9825
 3276TIP3   OH231242   2.744   0.757   3.197 -0.3345  0.3068  0.2500
 3276TIP3    H131243   2.780   0.845   3.185 -1.4467  0.6255 -0.9842
 3276TIP3    H231244   2.684   0.766   3.271  0.0944  0.4119  0.5871
 3277TIP3   OH231245   3.128   3.460   2.280  0.1995 -0.2460  0.0511
 3277TIP3    H131246   3.194   3.392   2.268 -0.9327 -1.3137 -0.4436
 3277TIP3    H231247   3.164   3.518   2.347  1.1514 -1.4036  0.5710
 3278TIP3   OH231248   0.147   3.273   4.747  0.3525 -0.0966 -0.1283
 3278TIP3    H131249   0.198   3.336   4.697  1.0406  0.0008  0.6590
 3278TIP3    H231250   0.138   3.313   4.834  1.5140 -1.4035  0.6469
 3279TIP3   OH231251   2.549   0.791   0.623 -0.4255 -0.2154 -0.2276
 3279TIP3    H131252   2.487   0.719   0.636 -0.2050 -0.3595  0.0500
 3279TIP3    H231253   2.495   0.869   0.620 -0.5436 -0.2248  1.0881
 3280TIP3   OH231254   4.332   2.825   4.159 -0.1387  0.2018 -0.7779
 3280TIP3    H131255   4.250   2.838   4.208  0.8460 -0.9492  1.2855
 3280TIP3    H231256   4.303   2.799   4.071 -2.0007 -0.0067 -0.1501
 3281TIP3   OH231257   1.274   4.565  11.851  0.4459 -0.0935  0.0659
 3281TIP3    H131258   1.321   4.482  11.846  1.1358  0.0780  2.3593
 3281TIP3    H231259   1.330   4.627  11.805 -0.3733 -0.9648 -2.2061
 3282TIP3   OH231260   5.637   5.101  14.476  0.6378  0.4575  0.5709
 3282TIP3    H131261   5.732   5.100  14.485  0.7904 -0.1872 -0.8115
 3282TIP3    H231262   5.604   5.094  14.566  1.8639  2.0452  1.1834
 3283TIP3   OH231263   1.310   0.218   2.504  0.6246 -0.1202 -0.1204
 3283TIP3    H131264   1.315   0.187   2.594  0.6219 -0.2660 -0.1702
 3283TIP3    H231265   1.274   0.306   2.511  0.7957 -0.0632  0.0344
 3284TIP3   OH231266   1.027   2.545   4.965 -0.3948 -0.7750  0.1998
 3284TIP3    H131267   0.977   2.470   4.997 -0.9450  0.1260  1.5079
 3284TIP3    H231268   1.111   2.540   5.011 -0.6586 -0.2612  0.7458
 3285TIP3   OH231269   2.726   6.366  15.111  0.1743 -0.3668  0.1212
 3285TIP3    H131270   2.754   6.456  15.095 -1.5333  0.1708 -0.0445
 3285TIP3    H231271   2.634   6.373  15.138  0.3221 -1.9840  1.2112
 3286TIP3   OH231272   3.378   0.799   4.241  0.4137  0.0860 -0.5332
 3286TIP3    H131273   3.386   0.893   4.223  0.7590  0.1381 -0.1148
 3286TIP3    H231274   3.433   0.757   4.176  0.5037  0.1915 -0.5252
 3287TIP3   OH231275   0.119   1.287  15.476 -0.0390 -0.5838  0.3850
 3287TIP3    H131276   0.099   1.354  15.411 -1.2160 -0.6677  0.6305
 3287TIP3    H231277   0.168   1.332  15.544  1.9744 -0.6781 -0.9400
 3288TIP3   OH231278   2.669   1.998  14.255  0.2963 -0.4402  0.1237
 3288TIP3    H131279   2.704   1.931  14.196  1.3407  0.2506 -0.0602
 3288TIP3    H231280   2.601   2.042  14.203  0.5127 -0.4990 -0.2128
 3289TIP3   OH231281   1.148   1.600   6.322 -0.0030 -0.1098  0.2165
 3289TIP3    H131282   1.070   1.620   6.373 -0.0046  2.5939 -0.6682
 3289TIP3    H231283   1.138   1.652   6.242  1.7807 -1.2488 -0.8135
 3290TIP3   OH231284   0.664   5.651   0.236 -0.1160  0.2631 -0.4690
 3290TIP3    H131285   0.752   5.661   0.273 -1.0589  1.1344  1.6989
 3290TIP3    H231286   0.663   5.709   0.160  1.3722 -0.3272 -0.9862
 3291TIP3   OH231287   5.123   6.083  16.580  0.3032 -0.1397 -0.0666
 3291TIP3    H131288   5.138   6.005  16.632  0.7847 -1.3699 -1.9293
 3291TIP3    H231289   5.209   6.104  16.542 -0.1081  0.4141 -0.7367
 3292TIP3   OH231290   5.227   2.336   5.908  0.3542  0.4353 -0.4069
 3292TIP3    H131291   5.195   2.376   5.827  1.7083  1.0707 -0.6681
 3292TIP3    H231292   5.230   2.408   5.971 -1.3861 -0.2037  0.4598
 3293TIP3   OH231293   0.898   2.442  13.773  0.0080 -0.3251  0.1395
 3293TIP3    H131294   0.850   2.522  13.753 -0.6223 -1.0560 -1.4609
 3293TIP3    H231295   0.912   2.445  13.868 -0.1456  1.5732  0.1431
 3294TIP3   OH231296   5.955   6.327   3.535  0.2139  0.3419 -0.4507
 3294TIP3    H131297   6.041   6.327   3.491 -0.3533 -1.2634 -1.6695
 3294TIP3    H231298   5.976   6.333   3.628  1.8435 -2.5837 -0.5117
 3295TIP3   OH231299   1.102   5.013   6.576 -0.1667 -0.3544 -0.0340
 3295TIP3    H131300   1.052   4.942   6.617 -0.0634 -1.0097 -1.0191
 3295TIP3    H231301   1.036   5.074   6.545 -0.3833 -1.1250 -1.1603
 3296TIP3   OH231302   0.348   3.775   0.911 -0.3897 -0.8213 -0.1238
 3296TIP3    H131303   0.323   3.730   0.830  2.4830  1.2537 -2.4004
 3296TIP3    H231304   0.280   3.840   0.924  0.5005  0.7737 -2.7039
 3297TIP3   OH231305   0.953   5.401  12.641  0.1744  0.2935  0.6474
 3297TIP3    H131306   0.999   5.330  12.596 -0.4103 -1.9956  3.3551
 3297TIP3    H231307   1.011   5.477  12.632  0.6441 -0.3071 -2.7242
 3298TIP3   OH231308   3.074   4.672  13.682  0.2084  0.2268  0.2825
 3298TIP3    H131309   3.009   4.740  13.664 -0.3987 -0.3171  0.3880
 3298TIP3    H231310   3.133   4.675  13.606 -1.4302 -1.0020 -1.1124
 3299TIP3   OH231311   2.584   3.214  16.126 -0.0015 -0.3639 -0.6345
 3299TIP3    H131312   2.596   3.122  16.103 -2.9969 -0.9541 -0.2235
 3299TIP3    H231313   2.568   3.258  16.042  0.0725 -0.4626 -0.7000
 3300TIP3   OH231314   1.899   5.729  11.864  0.2801  0.0342 -0.7037
 3300TIP3    H131315   1.912   5.648  11.912  1.6052  0.1390 -0.8324
 3300TIP3    H231316   1.832   5.776  11.913  1.7042  0.2245  1.1880
 3301TIP3   OH231317   5.647   3.224  16.958 -0.7934 -0.3989 -0.3098
 3301TIP3    H131318   5.652   3.210  17.053  0.5095  0.8348 -0.1626
 3301TIP3    H231319   5.554   3.224  16.939 -1.0904 -0.3528  1.0162
 3302TIP3   OH231320   6.651   6.441   5.842  0.9117  0.0336  0.2180
 3302TIP3    H131321   6.684   6.388   5.914  0.7137  0.1254  0.3767
 3302TIP3    H231322   6.556   6.435   5.849  0.8778 -0.9702 -0.7710
 3303TIP3   OH231323   3.568   3.568   5.895  0.3624  0.0556  0.0867
 3303TIP3    H131324   3.568   3.620   5.975 -2.0682 -0.0208  0.2287
 3303TIP3    H231325   3.594   3.630   5.827 -0.7616  1.0429  0.5069
 3304TIP3   OH231326   6.197   0.703   0.774 -0.1609 -0.1019  0.3528
 3304TIP3    H131327   6.102   0.716   0.775 -0.0778  0.5314  0.4605
 3304TIP3    H231328   6.215   0.660   0.690 -0.5137 -0.0075  0.2284
 3305TIP3   OH231329   1.131   0.441   0.350 -0.1775 -0.0609  0.5065
 3305TIP3    H131330   1.046   0.460   0.391 -0.7095  1.3161 -1.1070
 3305TIP3    H231331   1.109   0.413   0.261  1.0396  0.2862  0.0720
 3306TIP3   OH231332   3.342   0.172   3.343  0.5116  0.5104  0.0535
 3306TIP3    H131333   3.306   0.238   3.402 -0.2147  1.9499 -1.8729
 3306TIP3    H231334   3.363   0.097   3.399 -1.4588  1.2538  1.8932
 3307TIP3   OH231335   3.135   6.431   2.226 -0.3937  0.5938 -0.1995
 3307TIP3    H131336   3.144   6.525   2.242  0.3144  0.4089  0.5361
 3307TIP3    H231337   3.135   6.423   2.130  0.6106  1.2461 -0.2668
 3308TIP3   OH231338   6.263   5.089   0.386 -0.1021  0.2826  0.2460
 3308TIP3    H131339   6.212   5.169   0.400 -1.4543 -0.4584 -0.3102
 3308TIP3    H231340   6.348   5.108   0.425 -1.0537  1.2562  1.9421
 3309TIP3   OH231341   1.527   3.864  12.485  0.1608  0.4959  0.0602
 3309TIP3    H131342   1.474   3.939  12.460  0.9397  1.2563  0.6236
 3309TIP3    H231343   1.602   3.866  12.426 -0.4675 -0.6729 -0.8445
 3310TIP3   OH231344   6.058   0.842  13.653 -0.5953  0.2806  0.6353
 3310TIP3    H131345   5.989   0.892  13.696 -1.5698 -1.9899  1.8306
 3310TIP3    H231346   6.070   0.764  13.707  1.1318 -0.6307 -0.9371
 3311TIP3   OH231347   0.597   6.658  13.990 -0.3474  0.1927  0.0259
 3311TIP3    H131348   0.549   6.698  14.063 -0.1274  0.8051 -0.1623
 3311TIP3    H231349   0.630   6.732  13.940 -0.4124 -0.2266 -0.6445
 3312TIP3   OH231350   3.490   0.971  15.969 -0.0996  0.3124  0.1357
 3312TIP3    H131351   3.525   0.928  16.047  0.7949 -0.2755 -0.5820
 3312TIP3    H231352   3.546   1.048  15.957  0.8102 -0.4859 -0.8598
 3313TIP3   OH231353   1.983   1.698  14.567  0.2942  0.1584 -0.2912
 3313TIP3    H131354   2.045   1.764  14.598  2.4340 -1.8483  0.0018
 3313TIP3    H231355   2.000   1.691  14.473  1.5216 -1.2563 -0.0187
 3314TIP3   OH231356   5.890   2.720  15.080 -0.1420 -0.0562 -0.1525
 3314TIP3    H131357   5.876   2.732  15.174  2.1921  0.2294  0.2197
 3314TIP3    H231358   5.985   2.706  15.072 -0.3234 -0.2361 -2.4522
 3315TIP3   OH231359   6.418   3.431   0.049  0.5739  0.4752  0.0429
 3315TIP3    H131360   6.350   3.477   0.002 -0.9868 -1.4722  0.2593
 3315TIP3    H231361   6.416   3.468   0.137  0.0600  0.7220 -0.0708
 3316TIP3   OH231362   3.579   2.747  15.151 -0.0845 -0.4185  0.0819
 3316TIP3    H131363   3.601   2.667  15.103 -0.8431 -0.8485  0.4321
 3316TIP3    H231364   3.642   2.812  15.120  1.4810 -1.5102  0.8391
 3317TIP3   OH231365   3.443   3.003   4.066 -0.2345  0.3391 -0.5374
 3317TIP3    H131366   3.497   2.978   3.991 -0.9789  0.8344 -1.2527
 3317TIP3    H231367   3.359   3.028   4.027 -0.6392  0.5656  0.4711
 3318TIP3   OH231368   0.984   0.242  13.834 -0.6539  0.0784  0.2902
 3318TIP3    H131369   0.892   0.224  13.855 -0.5432  1.4793  2.2538
 3318TIP3    H231370   1.033   0.200  13.905  0.1609  0.1455 -0.2271
 3319TIP3   OH231371   1.468   4.951  16.243  0.5582  0.1128  0.0780
 3319TIP3    H131372   1.563   4.948  16.259  0.6229  0.0811 -0.2892
 3319TIP3    H231373   1.453   4.883  16.177  0.3486  0.4261 -0.2005
 3320TIP3   OH231374   1.210   1.052  16.367 -0.2448  0.7306  0.1671
 3320TIP3    H131375   1.295   1.009  16.357 -0.7201 -0.3308  0.5859
 3320TIP3    H231376   1.146   0.986  16.339 -0.8994  1.7977 -0.9410
 3321TIP3   OH231377   3.752   2.908   1.257 -0.1654  0.2567  0.3112
 3321TIP3    H131378   3.819   2.914   1.324 -0.9032  0.4685  1.0422
 3321TIP3    H231379   3.672   2.885   1.304 -0.6204  0.0416 -0.5370
 3322TIP3   OH231380   5.317   4.628  16.324  0.2096  0.5788 -0.2980
 3322TIP3    H131381   5.293   4.721  16.327  0.7415  0.6944  0.8419
 3322TIP3    H231382   5.343   4.607  16.414  0.8927 -0.4632 -0.7236
 3323TIP3   OH231383   0.830   0.541  12.391 -0.1852  0.6260  0.8841
 3323TIP3    H131384   0.844   0.538  12.486 -0.3569 -0.6236  0.8892
 3323TIP3    H231385   0.904   0.491  12.355 -2.0951 -2.2378  0.6391
 3324TIP3   OH231386   6.100   6.535  16.478 -0.3533 -0.4241  0.0237
 3324TIP3    H131387   6.021   6.481  16.467 -0.5153 -0.1800 -0.0183
 3324TIP3    H231388   6.141   6.501  16.557 -1.5908  0.7935  1.2323
 3325TIP3   OH231389   2.857   5.117   4.077  0.0580  0.1507  0.0181
 3325TIP3    H131390   2.916   5.188   4.053 -0.0799 -0.3331 -1.9096
 3325TIP3    H231391   2.769   5.153   4.064 -0.0124 -0.3302 -0.8825
 3326TIP3   OH231392   6.149   0.164   3.253  0.0187 -0.5125  0.1873
 3326TIP3    H131393   6.112   0.230   3.194  0.0320 -1.8334 -1.3857
 3326TIP3    H231394   6.221   0.126   3.202  0.3687 -1.3430  1.2777
 3327TIP3   OH231395   0.516   4.457   2.023  0.0321  0.3299  0.1650
 3327TIP3    H131396   0.530   4.540   1.979  0.6924 -1.0131 -2.3800
 3327TIP3    H231397   0.427   4.462   2.057 -0.8409  1.2205 -2.0616
 3328TIP3   OH231398   4.034   4.817   4.772  0.0387  0.3688 -0.2240
 3328TIP3    H131399   4.016   4.814   4.678 -1.1286  0.4112 -0.0122
 3328TIP3    H231400   3.956   4.856   4.811  1.3758  2.5042  0.5537
 3329TIP3   OH231401   4.036   5.834  16.085  0.6032 -0.0264  0.7988
 3329TIP3    H131402   3.997   5.844  15.998 -0.0580 -2.0853  0.7941
 3329TIP3    H231403   4.111   5.894  16.084  1.1250 -0.5919 -1.5155
 3330TIP3   OH231404   4.826   5.287  12.020 -0.1602  0.5618  0.4894
 3330TIP3    H131405   4.784   5.221  12.075  0.6382  0.5535  1.0988
 3330TIP3    H231406   4.871   5.344  12.082 -1.2169  1.9727  0.0125
 3331TIP3   OH231407   1.443   2.958   4.610  0.2044  0.2338 -0.1871
 3331TIP3    H131408   1.396   2.995   4.684  1.3606  2.9921 -0.7126
 3331TIP3    H231409   1.535   2.968   4.632  0.5646 -0.5620 -1.2490
 3332TIP3   OH231410   4.479   0.369   6.138 -0.2096  0.0175  0.2062
 3332TIP3    H131411   4.543   0.417   6.192 -1.6907 -0.2337  2.3185
 3332TIP3    H231412   4.401   0.425   6.139 -0.8010 -0.7933 -0.2914
 3333TIP3   OH231413   2.690   0.725  15.904 -0.8521  0.0135 -0.0192
 3333TIP3    H131414   2.756   0.696  15.967  0.2034 -0.6626 -1.3787
 3333TIP3    H231415   2.695   0.821  15.907  2.3952  0.0843 -2.1452
 3334TIP3   OH231416   5.716   3.423  16.237  0.3749  0.3377 -0.1101
 3334TIP3    H131417   5.721   3.493  16.172  0.1927  0.1177 -0.3637
 3334TIP3    H231418   5.643   3.447  16.293 -0.0314  0.0871 -0.5179
 3335TIP3   OH231419   5.724   5.940  13.250  0.1383  0.1058  0.4210
 3335TIP3    H131420   5.708   5.899  13.335  0.3683  0.9577  0.8850
 3335TIP3    H231421   5.742   6.032  13.271 -1.3063  0.6782 -0.6746
 3336TIP3   OH231422   4.664   6.224  15.504 -0.0147  0.5394 -0.0416
 3336TIP3    H131423   4.659   6.136  15.468  1.8779  0.9155 -1.4178
 3336TIP3    H231424   4.725   6.217  15.577  0.5467  0.7687 -0.4760
 3337TIP3   OH231425   0.918   1.108   6.401 -0.2677 -0.4165 -0.6499
 3337TIP3    H131426   0.882   1.080   6.317  0.0625 -1.6901 -0.3841
 3337TIP3    H231427   1.002   1.063   6.408 -0.0891  0.0163  0.1729
 3338TIP3   OH231428   5.884   0.649   2.749 -0.1883 -0.0876 -0.4367
 3338TIP3    H131429   5.842   0.726   2.787  0.1694  0.5613 -1.3217
 3338TIP3    H231430   5.812   0.589   2.731 -0.5885  0.4589 -0.6832
 3339TIP3   OH231431   1.867   3.009  15.816 -0.1479  0.5464 -0.5545
 3339TIP3    H131432   1.795   3.010  15.880 -0.3830  0.9296 -0.8212
 3339TIP3    H231433   1.904   2.921  15.823 -1.5677 -0.1725 -1.4403
 3340TIP3   OH231434   3.463   2.093  15.602 -0.2263  0.3308 -0.0180
 3340TIP3    H131435   3.486   2.007  15.637  0.6497  0.3712 -0.4595
 3340TIP3    H231436   3.470   2.083  15.507  0.8814  1.1500 -0.0410
 3341TIP3   OH231437   1.000   2.585   0.997  0.2227  0.2609 -0.2679
 3341TIP3    H131438   0.938   2.613   1.065  0.7291  0.6606  0.0368
 3341TIP3    H231439   1.082   2.569   1.045  0.7438  1.0969 -0.8543
 3342TIP3   OH231440   4.577   6.158  16.588 -0.5391 -0.0569  0.2164
 3342TIP3    H131441   4.671   6.140  16.584  0.1368  3.0432 -0.5478
 3342TIP3    H231442   4.559   6.169  16.681 -0.5376 -2.1128  0.5085
 3343TIP3   OH231443   3.353   3.096   6.705  0.1803  0.1149 -0.1896
 3343TIP3    H131444   3.272   3.082   6.754  0.5231  2.2698  1.0812
 3343TIP3    H231445   3.421   3.103   6.772  1.0727  0.5502 -1.1122
 3344TIP3   OH231446   0.474   5.621   4.583  0.0055  0.0739  0.2186
 3344TIP3    H131447   0.500   5.712   4.568 -1.7118  0.9184  1.9604
 3344TIP3    H231448   0.381   5.619   4.559  0.1608 -1.3843 -0.3498
 3345TIP3   OH231449   0.953   6.653   5.910 -0.3570  0.2076 -0.4141
 3345TIP3    H131450   0.954   6.730   5.853  3.5944  1.2394  0.7477
 3345TIP3    H231451   0.972   6.688   5.997  1.8715 -2.0264  0.0981
 3346TIP3   OH231452   0.452   6.000   1.281 -0.0837  0.3795  0.2045
 3346TIP3    H131453   0.419   6.074   1.229  0.6800 -0.1574 -1.1018
 3346TIP3    H231454   0.498   6.041   1.353  3.7957  1.4567 -2.5608
 3347TIP3   OH231455   2.744   3.976  12.738 -0.3228 -0.1107 -0.5415
 3347TIP3    H131456   2.755   3.949  12.646 -1.7469 -0.1039 -0.7396
 3347TIP3    H231457   2.768   4.069  12.738  0.8323 -0.3941 -0.6517
 3348TIP3   OH231458   2.852   2.128  14.027 -0.3326  0.3577 -0.0696
 3348TIP3    H131459   2.887   2.045  14.061 -2.6538  0.4529  3.0721
 3348TIP3    H231460   2.778   2.101  13.973 -0.9473  0.3252  0.7669
 3349TIP3   OH231461   6.291   4.866  12.442 -0.2613 -0.5182 -0.2143
 3349TIP3    H131462   6.309   4.846  12.534  0.0950 -0.3170 -0.2384
 3349TIP3    H231463   6.330   4.794  12.394  0.9466  0.1710 -0.2976
 3350TIP3   OH231464   0.806   4.864  11.653  0.0547  0.3880 -0.6140
 3350TIP3    H131465   0.723   4.866  11.701 -0.4279  0.5752 -1.4342
 3350TIP3    H231466   0.863   4.809  11.706 -0.5478  0.3750  0.0379
 3351TIP3   OH231467   4.308   4.711   3.552 -0.2907  0.0358 -0.1102
 3351TIP3    H131468   4.221   4.672   3.558 -0.7918  0.6798 -2.3926
 3351TIP3    H231469   4.368   4.637   3.562 -1.1112 -0.5855  0.3682
 3352TIP3   OH231470   3.514   3.735  12.908  0.8442  0.2304 -0.0390
 3352TIP3    H131471   3.497   3.678  12.982  0.9590 -0.5026 -0.5657
 3352TIP3    H231472   3.588   3.789  12.935  1.3377 -0.5154  0.1279
 3353TIP3   OH231473   1.423   2.175   5.232 -0.3093  0.4461  0.0142
 3353TIP3    H131474   1.351   2.166   5.295 -1.7791 -2.4158 -1.8545
 3353TIP3    H231475   1.481   2.102   5.253  1.3234  1.8119  0.4858
 3354TIP3   OH231476   4.471   4.183   3.074  0.0822 -0.0917  0.4993
 3354TIP3    H131477   4.553   4.179   3.123 -0.0342 -0.2315  0.6823
 3354TIP3    H231478   4.442   4.092   3.068  1.1007 -0.3288 -1.5279
 3355TIP3   OH231479   0.764   6.702   2.105  0.0786  0.4614 -0.1966
 3355TIP3    H131480   0.820   6.769   2.066 -0.1663  0.1175 -1.1503
 3355TIP3    H231481   0.744   6.642   2.034  2.4845 -2.2023  1.1833
 3356TIP3   OH231482   6.076   2.964   0.556 -0.1810  1.0360 -0.0882
 3356TIP3    H131483   6.072   3.056   0.531  0.4583  1.0446 -0.1798
 3356TIP3    H231484   6.144   2.927   0.500 -0.9571  0.3325 -0.5865
 3357TIP3   OH231485   3.016   1.542   3.380 -0.1566 -0.5604  0.5879
 3357TIP3    H131486   3.052   1.593   3.453  0.8001 -1.4941  0.7935
 3357TIP3    H231487   2.926   1.523   3.407  0.0387 -0.5016  1.3231
 3358TIP3   OH231488   6.569   3.832  13.052 -0.2314 -0.5607  0.0242
 3358TIP3    H131489   6.510   3.811  12.980 -0.0603 -0.5403 -0.1216
 3358TIP3    H231490   6.512   3.870  13.119 -0.9780 -3.5903  1.2842
 3359TIP3   OH231491   1.448   5.329   6.443 -0.1523 -0.3909 -0.7868
 3359TIP3    H131492   1.484   5.312   6.530 -2.2508 -1.8254 -0.1196
 3359TIP3    H231493   1.490   5.264   6.387  0.5084 -0.0780 -0.6669
 3360TIP3   OH231494   4.991   0.332   2.111 -0.6311  0.1029  0.0897
 3360TIP3    H131495   4.971   0.426   2.112 -1.1495  0.0265 -0.9997
 3360TIP3    H231496   5.006   0.309   2.202 -1.9057  0.9451  0.5264
 3361TIP3   OH231497   4.685   0.704  13.483  0.1557 -0.2173 -0.1738
 3361TIP3    H131498   4.733   0.668  13.557 -0.1800 -0.1531  0.0757
 3361TIP3    H231499   4.715   0.795  13.476  0.8955 -0.4857 -0.7139
 3362TIP3   OH231500   6.681   5.838  14.876  0.5329 -0.2181  0.0699
 3362TIP3    H131501   6.600   5.788  14.876 -0.3167  1.0943 -0.1057
 3362TIP3    H231502   6.696   5.860  14.784  0.2066  0.8635  0.2548
 3363TIP3   OH231503   4.523   4.279   0.776  0.5032 -0.2483 -0.4486
 3363TIP3    H131504   4.520   4.214   0.705 -0.1882  0.2494 -0.8884
 3363TIP3    H231505   4.445   4.262   0.828  1.4297 -1.1492  0.7123
 3364TIP3   OH231506   3.350   6.101   1.613 -0.2256  0.0862  0.0749
 3364TIP3    H131507   3.315   6.019   1.647  1.5276 -0.8904 -0.3389
 3364TIP3    H231508   3.278   6.139   1.562 -2.0294  0.2874  2.5794
 3365TIP3   OH231509   4.631   2.475  13.832 -0.1029 -0.4793  0.2355
 3365TIP3    H131510   4.592   2.441  13.913  0.7720 -1.1534  0.4029
 3365TIP3    H231511   4.724   2.486  13.854  0.3429 -1.5784 -0.9288
 3366TIP3   OH231512   6.557   4.103  15.625  0.4266 -0.3933  0.5257
 3366TIP3    H131513   6.643   4.066  15.604  0.6853  1.2767 -1.8110
 3366TIP3    H231514   6.575   4.177  15.683  0.3490 -1.1252  1.5092
 3367TIP3   OH231515   0.827   4.929   4.345  0.1122 -0.0874 -0.0999
 3367TIP3    H131516   0.915   4.961   4.366 -0.5707  2.3723 -0.6223
 3367TIP3    H231517   0.819   4.943   4.251 -0.1629 -2.2193 -0.4377
 3368TIP3   OH231518   4.831   0.213  15.752 -0.2076  0.5949  0.5158
 3368TIP3    H131519   4.850   0.125  15.784  1.3074  0.5818 -0.3416
 3368TIP3    H231520   4.865   0.270  15.821 -0.0359  0.5335  0.4812
 3369TIP3   OH231521   4.450   0.449   3.655  0.7292 -0.0801 -0.4802
 3369TIP3    H131522   4.506   0.421   3.583 -0.1083  0.4550 -1.3725
 3369TIP3    H231523   4.509   0.493   3.716  1.2579  0.7976 -1.5756
 3370TIP3   OH231524   4.508   6.148   1.742 -0.4212  0.0516 -0.0449
 3370TIP3    H131525   4.424   6.103   1.741 -0.5725  0.3369 -0.6220
 3370TIP3    H231526   4.529   6.156   1.835 -1.1456  0.1783  0.1203
 3371TIP3   OH231527   2.572   1.764  14.875 -0.6469 -0.0606  0.2801
 3371TIP3    H131528   2.568   1.838  14.814 -0.9462 -1.8159 -1.9880
 3371TIP3    H231529   2.660   1.767  14.911 -0.9635  1.9361  1.0203
 3372TIP3   OH231530   6.274   2.708   3.696  0.1712 -0.0507  0.0994
 3372TIP3    H131531   6.184   2.683   3.718  0.0296 -0.3895 -0.8412
 3372TIP3    H231532   6.266   2.765   3.620  0.6521  1.2338  0.9661
 3373TIP3   OH231533   2.090   4.139   0.888  0.2093  0.2694 -0.4323
 3373TIP3    H131534   2.015   4.180   0.930  0.7584  0.1614  0.6975
 3373TIP3    H231535   2.143   4.107   0.961  0.7654 -0.6942 -1.2375
 3374TIP3   OH231536   0.878   0.247  11.066 -0.5504 -0.3372 -0.5658
 3374TIP3    H131537   0.903   0.318  11.006  0.9941  0.5746  1.0525
 3374TIP3    H231538   0.791   0.271  11.096 -0.3434  0.5031 -0.6056
 3375TIP3   OH231539   3.164   6.796   4.378  0.4814 -0.2667 -0.4117
 3375TIP3    H131540   3.107   6.818   4.451 -1.8579 -0.4915 -2.0636
 3375TIP3    H231541   3.228   6.735   4.415  0.2563  0.7219  1.7184
 3376TIP3   OH231542   2.095   1.837   0.150 -0.4978  0.1203  0.2184
 3376TIP3    H131543   2.044   1.870   0.075 -2.4750 -0.9651  1.0038
 3376TIP3    H231544   2.031   1.830   0.221  1.0053 -0.3205  1.5913
 3377TIP3   OH231545   2.936   3.275  10.952 -0.0417  0.1043  0.7216
 3377TIP3    H131546   2.888   3.273  10.870 -0.4253 -0.3675  0.9498
 3377TIP3    H231547   3.004   3.208  10.942  0.3774  0.5569  0.5150
 3378TIP3   OH231548   2.132   3.730   4.730 -0.1370 -0.1222  0.1313
 3378TIP3    H131549   2.082   3.756   4.807  0.4897 -1.3986  1.0169
 3378TIP3    H231550   2.216   3.699   4.766 -0.0909 -1.3851 -0.9960
 3379TIP3   OH231551   4.523   1.855  14.860 -0.0942  0.3797 -0.0253
 3379TIP3    H131552   4.496   1.894  14.944  0.9461 -0.4468  0.7212
 3379TIP3    H231553   4.560   1.928  14.810  2.0984  0.3953  1.4704
 3380TIP3   OH231554   1.947   4.908   2.251  0.2105 -0.2849  0.1903
 3380TIP3    H131555   1.854   4.931   2.239 -0.4599 -2.4875  0.6900
 3380TIP3    H231556   1.956   4.824   2.206  2.5388  0.8808 -1.7101
 3381TIP3   OH231557   5.909   1.227   4.194 -0.4947 -0.0237  0.0297
 3381TIP3    H131558   5.936   1.135   4.201 -0.2651 -0.4972 -4.1626
 3381TIP3    H231559   5.984   1.270   4.154 -0.5528  2.1371  2.0601
 3382TIP3   OH231560   5.508   3.065  12.380  0.1758  0.3077  0.3458
 3382TIP3    H131561   5.561   3.053  12.459 -0.6946 -1.4564  0.7024
 3382TIP3    H231562   5.572   3.082  12.311  1.3256 -2.1315  0.6955
 3383TIP3   OH231563   0.460   5.865  14.841  0.5468 -0.5594  0.2813
 3383TIP3    H131564   0.470   5.960  14.854  1.2569 -0.6785  0.6177
 3383TIP3    H231565   0.471   5.828  14.929 -0.1340 -0.9240  0.2152
 3384TIP3   OH231566   6.568   4.337   3.752  0.0277 -0.1249  0.3612
 3384TIP3    H131567   6.526   4.298   3.676 -1.0256  0.6100  0.5499
 3384TIP3    H231568   6.651   4.290   3.760 -0.3680 -1.0094 -0.5366
 3385TIP3   OH231569   6.497   0.142   0.264  0.1717  0.2195  0.0312
 3385TIP3    H131570   6.424   0.189   0.225 -1.0651 -0.5903  1.2729
 3385TIP3    H231571   6.472   0.131   0.356  1.1291 -1.4463  0.1394
 3386TIP3   OH231572   0.270   2.546   6.213  0.0968 -0.2932 -0.3511
 3386TIP3    H131573   0.359   2.514   6.198  0.0693 -0.3365 -0.4206
 3386TIP3    H231574   0.276   2.594   6.296  0.5129  0.9063 -1.0413
 3387TIP3   OH231575   5.728   2.567   3.615  0.1284 -0.4866 -0.5953
 3387TIP3    H131576   5.716   2.644   3.671 -0.7661 -1.3716  0.4528
 3387TIP3    H231577   5.677   2.587   3.536 -3.2257 -1.4578  1.1378
 3388TIP3   OH231578   1.344   2.847   4.211  0.2219 -0.8190  0.4874
 3388TIP3    H131579   1.385   2.799   4.284 -0.3656 -1.5227  0.3648
 3388TIP3    H231580   1.321   2.932   4.248  1.1013 -0.6852  0.7646
 3389TIP3   OH231581   1.604   5.426  13.145 -0.0657 -0.4667  0.1825
 3389TIP3    H131582   1.602   5.462  13.057  0.7805 -2.0845 -0.5351
 3389TIP3    H231583   1.512   5.425  13.173 -0.1706  1.6943  0.0557
 3390TIP3   OH231584   3.714   0.010  16.633  0.3301  0.0484 -0.2699
 3390TIP3    H131585   3.682  -0.058  16.574 -0.1503  0.2977 -0.2996
 3390TIP3    H231586   3.807  -0.011  16.646  0.3891 -0.1252 -0.9485
 3391TIP3   OH231587   4.074   3.101  14.923 -0.2892 -0.2823 -0.6367
 3391TIP3    H131588   4.068   3.028  14.985  0.9553 -0.2370 -0.4487
 3391TIP3    H231589   4.167   3.111  14.907 -0.5090  0.7052 -1.3505
 3392TIP3   OH231590   6.725   3.786   1.154  0.2797 -0.0758  0.1041
 3392TIP3    H131591   6.706   3.825   1.240 -0.1569  2.3085 -0.9801
 3392TIP3    H231592   6.643   3.745   1.128  0.0953  0.1025  0.3865
 3393TIP3   OH231593   2.771   2.095   0.109  0.0729  0.6094  0.0387
 3393TIP3    H131594   2.689   2.084   0.060  0.1795  0.7328 -0.1695
 3393TIP3    H231595   2.801   2.183   0.086 -0.8893  1.4648  1.8651
 3394TIP3   OH231596   5.701   3.686   4.217  0.0251  0.2699  0.3332
 3394TIP3    H131597   5.648   3.740   4.276  2.8007  1.5795  1.8429
 3394TIP3    H231598   5.704   3.735   4.135 -0.6462  0.4113  0.3836
 3395TIP3   OH231599   0.202   6.091  11.762  0.0804  0.0726  0.1345
 3395TIP3    H131600   0.215   6.008  11.807  0.2293 -0.1403 -0.2871
 3395TIP3    H231601   0.253   6.154  11.813  1.5901 -0.4617 -0.6221
 3396TIP3   OH231602   3.124   5.441  13.326  0.8753 -0.5219  0.2602
 3396TIP3    H131603   3.209   5.476  13.350  1.1053  1.3533 -2.7534
 3396TIP3    H231604   3.142   5.379  13.256 -0.0848 -2.1356  1.3811
 3397TIP3   OH231605   0.271   4.284  16.008 -0.1540  0.6531  0.2039
 3397TIP3    H131606   0.309   4.371  16.015  1.3029  0.2408 -1.8317
 3397TIP3    H231607   0.259   4.269  15.914 -0.6513 -1.2247  0.5116
 3398TIP3   OH231608   1.159   1.379  10.832 -0.1648  0.1880 -0.3777
 3398TIP3    H131609   1.248   1.351  10.813 -0.1624  0.3039 -0.5382
 3398TIP3    H231610   1.103   1.314  10.789 -0.1678 -0.7612  0.9884
 3399TIP3   OH231611   3.630   3.547  15.160  0.3656 -0.4788 -0.4694
 3399TIP3    H131612   3.648   3.638  15.183 -1.1524 -0.5473  1.1977
 3399TIP3    H231613   3.675   3.496  15.228  2.0232 -1.0627 -1.9364
 3400TIP3   OH231614   4.071   6.467  14.140 -0.2133  0.0783 -0.3314
 3400TIP3    H131615   4.046   6.450  14.231 -0.2222  1.9068  0.0404
 3400TIP3    H231616   4.044   6.558  14.124  2.5271  0.8436 -1.1882
 3401TIP3   OH231617   1.405   4.337  11.770  0.1540 -0.1780  0.2237
 3401TIP3    H131618   1.484   4.320  11.820  0.5864  0.2232 -0.3056
 3401TIP3    H231619   1.362   4.252  11.761 -0.2139 -0.1744  1.7222
 3402TIP3   OH231620   1.995   3.481   1.541 -0.0107 -0.4772  0.1719
 3402TIP3    H131621   2.039   3.468   1.457 -0.4691  1.7730 -0.5034
 3402TIP3    H231622   2.064   3.472   1.606  0.5616 -1.2278 -0.5110
 3403TIP3   OH231623   1.726   2.140   3.369  0.1738  0.3657  0.0735
 3403TIP3    H131624   1.696   2.101   3.288  0.5959  0.0716  0.0557
 3403TIP3    H231625   1.707   2.233   3.360 -0.3897  0.2370 -0.0836
 3404TIP3   OH231626   5.248   2.481  13.474 -0.4810 -0.1534  0.0993
 3404TIP3    H131627   5.255   2.513  13.383 -0.5054 -1.4901 -0.3905
 3404TIP3    H231628   5.155   2.491  13.496 -0.5536 -0.2111 -0.1750
 3405TIP3   OH231629   4.463   2.768  11.403  0.9250 -0.1755  0.5594
 3405TIP3    H131630   4.405   2.747  11.329  1.0782  1.0652  0.0668
 3405TIP3    H231631   4.409   2.755  11.480  0.4613 -0.5452  0.1795
 3406TIP3   OH231632   3.998   6.184   0.934  0.4081 -0.1151 -0.3134
 3406TIP3    H131633   3.922   6.227   0.895  2.0764  4.4024  0.8359
 3406TIP3    H231634   4.068   6.197   0.870  1.2948  0.1436  0.6762
 3407TIP3   OH231635   6.706   2.464  14.491 -0.1683  0.2945  0.3278
 3407TIP3    H131636   6.753   2.540  14.526 -1.5956  0.6858  1.5107
 3407TIP3    H231637   6.732   2.391  14.546 -0.2046  0.3152  0.3729
 3408TIP3   OH231638   4.061   1.248  11.725 -0.3169 -0.1213  0.1975
 3408TIP3    H131639   4.126   1.261  11.794 -0.6135  0.4350  0.3747
 3408TIP3    H231640   4.111   1.210  11.652  0.6598  2.2287 -0.4436
 3409TIP3   OH231641   2.995   4.836  12.563  0.1971  0.2400 -0.2862
 3409TIP3    H131642   3.032   4.873  12.644  0.2669 -2.0808  0.8329
 3409TIP3    H231643   2.901   4.853  12.570  0.2590  0.4748  0.0469
 3410TIP3   OH231644   0.855   3.070  13.318  0.8926 -0.7965  0.0872
 3410TIP3    H131645   0.818   3.157  13.337  3.1417  0.3870 -0.6296
 3410TIP3    H231646   0.855   3.026  13.403 -1.4395 -0.6362  0.2418
 3411TIP3   OH231647   6.731   3.983   1.375 -0.7568  0.4777  0.1634
 3411TIP3    H131648   6.637   3.970   1.383 -0.5900 -1.2010 -0.1739
 3411TIP3    H231649   6.752   4.049   1.441 -2.0928  0.4957  0.6003
 3412TIP3   OH231650   6.309   4.067  15.549  0.1290  0.2144  0.4865
 3412TIP3    H131651   6.401   4.075  15.574  1.0415  0.5582 -2.6070
 3412TIP3    H231652   6.273   4.155  15.559  0.7410  0.5673 -0.3526
 3413TIP3   OH231653   1.221   2.944  13.329  0.4086 -0.0281  0.7348
 3413TIP3    H131654   1.239   2.872  13.268 -0.4742  1.3482 -1.2449
 3413TIP3    H231655   1.130   2.930  13.356  0.7963 -0.6361  1.8328
 3414TIP3   OH231656   0.665   3.245   5.699  0.0586  0.3293 -0.1269
 3414TIP3    H131657   0.603   3.303   5.743 -0.2050 -1.3334  1.9022
 3414TIP3    H231658   0.610   3.182   5.653  0.2965  0.3602 -0.4581
 3415TIP3   OH231659   1.260   0.979   4.178 -0.6100 -0.1863  0.0722
 3415TIP3    H131660   1.183   0.991   4.123 -0.8567  1.7138  0.7781
 3415TIP3    H231661   1.334   1.009   4.125 -0.4912 -0.8184 -0.1382
 3416TIP3   OH231662   0.238   3.077  10.990 -0.3805 -0.4503 -0.4412
 3416TIP3    H131663   0.261   3.030  10.910  0.4525 -0.3399 -0.2722
 3416TIP3    H231664   0.257   3.015  11.060 -1.3935 -0.6568 -0.3339
 3417TIP3   OH231665   1.407   1.757  15.804 -0.4273  0.6258 -0.2894
 3417TIP3    H131666   1.316   1.782  15.792 -0.6948 -0.7528 -1.3873
 3417TIP3    H231667   1.451   1.787  15.725 -0.5426 -1.2740 -1.1259
 3418TIP3   OH231668   5.910   3.357   0.492  0.3649 -0.4366 -0.1188
 3418TIP3    H131669   5.851   3.402   0.431 -1.0764 -1.2027  0.6490
 3418TIP3    H231670   5.891   3.264   0.480  0.2787 -0.6165  1.2457
 3419TIP3   OH231671   0.971   1.193  10.743  0.7325  0.4605  0.4210
 3419TIP3    H131672   0.938   1.236  10.664  3.0418 -0.2182 -1.0065
 3419TIP3    H231673   0.936   1.104  10.738  0.4598  0.5653  0.4484
 3420TIP3   OH231674   5.479   0.807  11.329 -0.9191  0.0617  0.4376
 3420TIP3    H131675   5.464   0.793  11.422 -2.5052  0.6646  0.3101
 3420TIP3    H231676   5.573   0.821  11.321 -0.9551  1.6580  2.1873
 3421TIP3   OH231677   3.029   0.804  11.974  0.0477  0.3750  0.2468
 3421TIP3    H131678   2.970   0.806  12.050 -1.0981  0.7135 -0.6160
 3421TIP3    H231679   2.976   0.839  11.903  0.0683 -2.6448 -1.4099
 3422TIP3   OH231680   0.448   3.429  13.196 -0.3820  0.0949  0.4365
 3422TIP3    H131681   0.377   3.440  13.258 -1.0926  0.9355 -0.4880
 3422TIP3    H231682   0.433   3.497  13.130  2.4493  1.6840  1.2743
 3423TIP3   OH231683   0.524   2.401   3.160  0.1094  0.2349  0.4393
 3423TIP3    H131684   0.586   2.426   3.091 -0.3207  0.3848  0.1042
 3423TIP3    H231685   0.572   2.417   3.241  0.2444  1.1094  0.2043
 3424TIP3   OH231686   2.607   3.611  14.640 -0.2107  0.1448 -0.3566
 3424TIP3    H131687   2.589   3.703  14.660  0.0386 -0.0098  0.6144
 3424TIP3    H231688   2.693   3.613  14.596 -0.0436  0.3382 -0.0223
 3425TIP3   OH231689   3.753   0.379  15.018  0.0736 -0.4302  0.5736
 3425TIP3    H131690   3.725   0.452  15.072 -0.1680  0.2199 -0.4016
 3425TIP3    H231691   3.832   0.346  15.060 -0.0513  0.1280  1.2536
 3426TIP3   OH231692   6.665   6.731   4.725 -0.4455 -0.1717  0.2231
 3426TIP3    H131693   6.715   6.812   4.718  0.7802 -0.8745  0.5205
 3426TIP3    H231694   6.720   6.673   4.779  0.5190 -2.5069 -2.9701
 3427TIP3   OH231695   5.199   6.295   1.323  0.7010 -0.1294  0.3117
 3427TIP3    H131696   5.173   6.204   1.311  2.0739 -0.4166 -0.8302
 3427TIP3    H231697   5.166   6.320   1.409 -2.2705 -0.7684 -0.5571
 3428TIP3   OH231698   0.391   6.142  12.927  0.2793 -0.3970 -0.0986
 3428TIP3    H131699   0.480   6.109  12.918  0.0983 -0.7922 -0.4071
 3428TIP3    H231700   0.343   6.072  12.972  0.3035  0.1144  0.7584
 3429TIP3   OH231701   1.156   5.935   5.690 -0.2468 -0.0766 -0.7979
 3429TIP3    H131702   1.165   5.864   5.626  1.1595 -1.7552  1.1477
 3429TIP3    H231703   1.207   6.007   5.654  2.3772 -1.7419 -0.6084
 3430TIP3   OH231704   0.074   5.755   5.582  0.3957  0.0247 -0.1506
 3430TIP3    H131705   0.035   5.693   5.520 -2.5169  1.1349  0.4068
 3430TIP3    H231706   0.012   5.759   5.655  2.2157  1.0331  1.4451
 3431TIP3   OH231707   2.454   4.291  10.893 -0.3537 -0.2855 -0.4534
 3431TIP3    H131708   2.543   4.263  10.917  1.5200  4.3385 -0.9258
 3431TIP3    H231709   2.451   4.281  10.798  0.1922  0.6217 -0.5837
 3432TIP3   OH231710   2.567   0.893   0.033 -0.4355  0.1570  0.2842
 3432TIP3    H131711   2.628   0.967   0.035  0.4385 -0.5162 -0.3589
 3432TIP3    H231712   2.622   0.818   0.009 -1.6609 -0.3216 -1.1630
 3433TIP3   OH231713   3.974   0.852   5.787  0.1597 -0.4151 -0.2026
 3433TIP3    H131714   4.059   0.852   5.831 -0.1841 -1.3263  0.5009
 3433TIP3    H231715   3.912   0.881   5.855 -0.3966 -1.9506 -0.0187
 3434TIP3   OH231716   3.498   3.398  14.401 -0.4471 -0.0628  0.3397
 3434TIP3    H131717   3.465   3.480  14.364 -2.0436 -0.0123  1.7467
 3434TIP3    H231718   3.496   3.412  14.496  2.0663 -0.7183  0.5676
 3435TIP3   OH231719   5.683   1.591   3.582  0.2898 -0.3730 -0.1787
 3435TIP3    H131720   5.659   1.613   3.671 -0.6121  0.9404 -0.7141
 3435TIP3    H231721   5.600   1.594   3.533  0.5489 -2.3727 -0.8221
 3436TIP3   OH231722   2.733   3.304   4.611 -0.3379 -0.1216  0.1976
 3436TIP3    H131723   2.743   3.347   4.526  0.4746 -1.7832 -0.6065
 3436TIP3    H231724   2.697   3.217   4.590 -0.3067 -0.4976  1.5774
 3437TIP3   OH231725   6.330   5.627   5.422  0.1074 -0.6685 -0.0920
 3437TIP3    H131726   6.425   5.631   5.417  0.1410 -1.8472 -0.8287
 3437TIP3    H231727   6.302   5.718   5.430  1.2515 -0.2351 -0.7942
 3438TIP3   OH231728   5.462   4.195  11.966 -0.3394  0.3691 -0.8061
 3438TIP3    H131729   5.541   4.200  12.021 -0.0779  2.9256 -1.2618
 3438TIP3    H231730   5.441   4.102  11.962  1.6428 -0.2225  0.7640
 3439TIP3   OH231731   4.357   1.963  14.297 -0.5336  0.5697 -0.1952
 3439TIP3    H131732   4.335   2.008  14.215  2.0598 -0.1360 -1.3852
 3439TIP3    H231733   4.339   2.028  14.365 -0.6673  1.9706 -1.5124
 3440TIP3   OH231734   0.492   6.341  15.038  0.1381 -0.1524  0.0720
 3440TIP3    H131735   0.573   6.343  15.089  0.8906 -0.2031 -1.0775
 3440TIP3    H231736   0.426   6.309  15.099  1.1563 -0.9237  0.8124
 3441TIP3   OH231737   6.730   5.846   4.004  0.4690  0.1274 -0.2576
 3441TIP3    H131738   6.790   5.888   3.942  0.7639 -2.3178 -1.7755
 3441TIP3    H231739   6.649   5.896   3.996  1.3997  1.7269 -0.3009
 3442TIP3   OH231740   3.512   6.460   5.702  0.0525 -0.3042 -0.1055
 3442TIP3    H131741   3.556   6.545   5.711  0.5391 -0.5697  0.0651
 3442TIP3    H231742   3.574   6.406   5.653 -0.5114 -0.3778 -0.7409
 3443TIP3   OH231743   2.787   3.219   1.006  0.2412  0.5245  0.6000
 3443TIP3    H131744   2.744   3.141   1.040  1.7163  0.4793  2.5419
 3443TIP3    H231745   2.721   3.288   1.014 -0.5767 -0.2015  0.2768
 3444TIP3   OH231746   3.417   1.356   3.652  0.2107 -0.2510 -0.3361
 3444TIP3    H131747   3.429   1.414   3.577 -0.7564  0.7744  0.2746
 3444TIP3    H231748   3.354   1.291   3.622  1.8455 -1.4932 -1.2665
 3445TIP3   OH231749   1.832   0.892  12.519  0.1957  0.0918 -0.0461
 3445TIP3    H131750   1.776   0.940  12.581 -0.3370 -0.8783  0.2344
 3445TIP3    H231751   1.776   0.822  12.485  0.3293  0.8858 -2.0038
 3446TIP3   OH231752   4.227   0.109  12.453 -0.6049  0.3427  0.2351
 3446TIP3    H131753   4.319   0.120  12.478 -0.3652  2.5109 -1.2859
 3446TIP3    H231754   4.186   0.191  12.480 -1.6480  0.1875 -0.8193
 3447TIP3   OH231755   0.434   6.406  15.808  0.3742 -0.0699  0.0007
 3447TIP3    H131756   0.491   6.366  15.873  1.0954 -1.4376 -1.4021
 3447TIP3    H231757   0.346   6.395  15.843  0.6433 -1.9156  0.1994
 3448TIP3   OH231758   1.892   5.285   2.176  0.2422 -0.2374 -0.0210
 3448TIP3    H131759   1.887   5.318   2.086  1.8948 -0.0972 -0.1084
 3448TIP3    H231760   1.947   5.349   2.222 -0.7080 -0.2228  1.1511
 3449TIP3   OH231761   1.675   3.759  14.595 -0.5065 -0.0077  0.1125
 3449TIP3    H131762   1.583   3.735  14.589 -0.1870 -1.6704  1.2856
 3449TIP3    H231763   1.720   3.678  14.617  0.9885  1.1675  1.7089
 3450TIP3   OH231764   5.126   6.551  13.661 -0.6650 -0.0751  0.0161
 3450TIP3    H131765   5.033   6.556  13.639 -0.1474 -0.4416 -2.5955
 3450TIP3    H231766   5.165   6.626  13.616  0.3803 -0.2577  0.6004
 3451TIP3   OH231767   4.533   3.616  11.293  0.0054 -0.3104  0.2429
 3451TIP3    H131768   4.606   3.674  11.273 -1.6023  2.0040  0.6545
 3451TIP3    H231769   4.530   3.554  11.221  0.8151  1.1771 -1.1229
 3452TIP3   OH231770   5.384   0.289   0.515  0.1734 -0.0863 -0.0661
 3452TIP3    H131771   5.377   0.246   0.600 -2.3058  0.0243 -0.1434
 3452TIP3    H231772   5.408   0.380   0.535  0.1175 -0.1877  0.4684
 3453TIP3   OH231773   4.704   0.414  11.044 -0.1619  0.7034  0.1197
 3453TIP3    H131774   4.757   0.351  10.995  1.4425  0.8139  1.5877
 3453TIP3    H231775   4.725   0.499  11.006  0.9797  0.7743  0.8493
 3454TIP3   OH231776   1.806   0.569  12.950 -0.9500 -0.1375 -0.6914
 3454TIP3    H131777   1.760   0.563  12.866 -1.2256 -2.7224 -0.4426
 3454TIP3    H231778   1.850   0.484  12.959 -0.9112  0.0716  1.7533
 3455TIP3   OH231779   4.189   6.556   0.504 -0.0300  0.6642  0.1709
 3455TIP3    H131780   4.215   6.648   0.503 -0.1512  0.7102  0.9422
 3455TIP3    H231781   4.203   6.527   0.594 -1.9728  0.5107  0.4742
 3456TIP3   OH231782   6.772   6.069  15.905  0.0014  0.1318 -0.2437
 3456TIP3    H131783   6.699   6.088  15.846 -0.1597 -0.9121 -0.4041
 3456TIP3    H231784   6.732   6.025  15.980  0.4415 -0.2680 -0.2414
 3457TIP3   OH231785   3.042   4.682  11.578 -0.1408  0.9882 -0.3870
 3457TIP3    H131786   3.016   4.596  11.546 -1.9292  1.0472  0.7268
 3457TIP3    H231787   3.039   4.674  11.674 -1.8940  2.6569 -0.2316
 3458TIP3   OH231788   3.701   4.566  14.965  0.4061  0.5424 -0.2498
 3458TIP3    H131789   3.728   4.475  14.957 -0.1155  0.2771  0.8623
 3458TIP3    H231790   3.626   4.565  15.025  1.8546  1.9107  1.7486
 3459TIP3   OH231791   4.615   2.986  15.884 -0.3939  0.6767  0.1480
 3459TIP3    H131792   4.566   2.965  15.805 -0.2497  1.5077 -0.1700
 3459TIP3    H231793   4.568   3.061  15.922  0.1447  0.9586  0.2728
 3460TIP3   OH231794   0.854   4.872   5.217 -0.2063  0.1555 -0.1319
 3460TIP3    H131795   0.882   4.811   5.286  2.8945  1.2074 -0.2999
 3460TIP3    H231796   0.906   4.847   5.141  0.5690  2.4706 -0.4230
 3461TIP3   OH231797   4.523   0.623   5.361 -0.3436  0.6941  0.9523
 3461TIP3    H131798   4.458   0.629   5.291 -0.3517  1.9379  1.0406
 3461TIP3    H231799   4.475   0.586   5.435 -0.1837 -1.2161  0.1496
 3462TIP3   OH231800   5.081   6.072   5.092  0.1804 -0.5044  0.1954
 3462TIP3    H131801   5.104   6.165   5.102 -1.0393 -0.1040 -0.5151
 3462TIP3    H231802   5.163   6.030   5.068  0.6169  0.5197 -0.1897
 3463TIP3   OH231803   2.867   6.583  15.639 -0.4766  0.4207 -0.0108
 3463TIP3    H131804   2.833   6.582  15.550  1.3319 -0.1381 -0.7290
 3463TIP3    H231805   2.873   6.676  15.662  0.6330  0.6402 -1.1206
 3464TIP3   OH231806   4.147   6.071  13.803 -0.3726 -0.4508 -0.2696
 3464TIP3    H131807   4.129   6.108  13.716 -0.2939  0.3332  0.0361
 3464TIP3    H231808   4.239   6.091  13.819 -0.4679 -0.3139  0.1199
 3465TIP3   OH231809   3.414   5.551  14.079 -0.1869 -0.2208 -0.5004
 3465TIP3    H131810   3.322   5.575  14.072 -0.3398 -1.1239 -2.0039
 3465TIP3    H231811   3.429   5.491  14.006  1.1115 -1.6373  0.8466
 3466TIP3   OH231812   0.498   5.232   5.591 -0.2755  0.2929  0.3812
 3466TIP3    H131813   0.511   5.297   5.521 -1.3456 -1.4047 -1.5044
 3466TIP3    H231814   0.493   5.148   5.545  0.2200 -1.0560  2.6552
 3467TIP3   OH231815   3.805   1.324  13.314  0.0315  0.0174  0.0511
 3467TIP3    H131816   3.823   1.371  13.396 -0.4615  0.2895  0.0073
 3467TIP3    H231817   3.732   1.372  13.275 -0.5577 -0.8571  0.0563
 3468TIP3   OH231818   5.311   5.722   3.159 -0.0205  0.0008 -0.0736
 3468TIP3    H131819   5.288   5.677   3.240 -0.7552 -0.1057 -0.3352
 3468TIP3    H231820   5.273   5.669   3.090  0.0685  0.4204 -0.4521
 3469TIP3   OH231821   3.164   5.416   4.311 -0.2960 -0.0049 -0.3486
 3469TIP3    H131822   3.214   5.486   4.352 -0.7262 -0.0227  0.2063
 3469TIP3    H231823   3.228   5.347   4.295 -0.2413 -0.2371  0.8393
 3470TIP3   OH231824   4.729   0.757   1.733 -0.3366  0.7948 -0.0549
 3470TIP3    H131825   4.774   0.693   1.788 -0.2093  0.7081 -0.2598
 3470TIP3    H231826   4.785   0.834   1.735 -0.0060  0.5702 -0.5863
 3471TIP3   OH231827   5.725   3.979   1.027 -0.8960  0.0907 -0.5366
 3471TIP3    H131828   5.638   3.953   1.056 -0.8904  0.7274  0.0879
 3471TIP3    H231829   5.771   4.002   1.107 -0.4610  0.6728 -0.9412
 3472TIP3   OH231830   3.543   3.104  13.997 -0.1927 -0.4932 -0.5495
 3472TIP3    H131831   3.493   3.132  14.073  1.8636 -0.3841  0.8331
 3472TIP3    H231832   3.523   3.169  13.930  1.0137  1.8107  1.1783
 3473TIP3   OH231833   0.155   4.031   3.396 -0.2658  0.2515  0.2153
 3473TIP3    H131834   0.205   4.057   3.318  1.7847  0.6436  1.5838
 3473TIP3    H231835   0.108   4.111   3.421  0.8823  0.8172  0.6587
 3474TIP3   OH231836   2.247   2.982   3.293  0.3366  0.0482  0.6560
 3474TIP3    H131837   2.305   2.966   3.218  0.9112 -1.9096  1.4719
 3474TIP3    H231838   2.167   2.935   3.272 -0.0038  0.6015  0.6979
 3475TIP3   OH231839   4.209   5.696   3.411  0.4019  0.5384  0.2144
 3475TIP3    H131840   4.172   5.685   3.499  0.0943  1.1733  0.1701
 3475TIP3    H231841   4.303   5.678   3.422  0.0727 -1.3854  0.2657
 3476TIP3   OH231842   0.560   4.334   6.073 -0.6681 -0.0339 -0.2822
 3476TIP3    H131843   0.511   4.415   6.087 -2.1672 -0.9753  0.1738
 3476TIP3    H231844   0.551   4.286   6.156  0.3408 -0.6083 -0.4841
 3477TIP3   OH231845   2.007   2.433  14.873 -0.1392 -0.1929  0.2951
 3477TIP3    H131846   2.050   2.507  14.831  1.0590 -0.8183  0.3761
 3477TIP3    H231847   1.955   2.472  14.944 -0.1635  0.6249 -0.1631
 3478TIP3   OH231848   0.201   3.747   1.849  0.1829  0.1456  0.2221
 3478TIP3    H131849   0.263   3.675   1.846  0.6185  0.5310 -0.2523
 3478TIP3    H231850   0.136   3.721   1.914 -0.1642 -1.0811 -0.5826
 3479TIP3   OH231851   5.502   4.052  14.910  0.6051  0.4297 -0.4133
 3479TIP3    H131852   5.413   4.035  14.942  0.8862  2.2456  1.5550
 3479TIP3    H231853   5.494   4.136  14.864  1.2730  0.5448 -0.3173
 3480TIP3   OH231854   4.861   0.987   3.044  0.2430 -0.1208 -0.4180
 3480TIP3    H131855   4.791   1.021   2.988  1.9301  0.7859 -2.0778
 3480TIP3    H231856   4.852   0.891   3.038 -0.4011 -0.0229 -1.1913
 3481TIP3   OH231857   6.463   0.515   0.719 -0.0131 -0.1610  0.4343
 3481TIP3    H131858   6.472   0.503   0.624  0.8484  1.2528  0.3057
 3481TIP3    H231859   6.513   0.594   0.738  0.2382 -0.6881  2.1541
 3482TIP3   OH231860   4.211   0.405  14.456 -0.4446  0.1137 -0.0702
 3482TIP3    H131861   4.229   0.444  14.541 -2.3901 -0.6933  0.7690
 3482TIP3    H231862   4.251   0.465  14.393  0.5071  1.0444  1.3583
 3483TIP3   OH231863   2.945   0.045  12.113  0.1357  0.2673  0.5990
 3483TIP3    H131864   3.009  -0.017  12.076  1.5363  1.2672  1.2650
 3483TIP3    H231865   2.930   0.014  12.202  0.5529  0.6693  0.8109
 3484TIP3   OH231866   6.639   0.290   6.006 -0.3185  0.3999  0.2897
 3484TIP3    H131867   6.611   0.201   5.985  0.2346 -0.1738  1.8178
 3484TIP3    H231868   6.660   0.287   6.100  1.0546  1.7819  0.0719
 3485TIP3   OH231869   3.840   4.578   1.957  0.0192 -0.7068  0.1358
 3485TIP3    H131870   3.770   4.522   1.992  0.6241 -2.7356 -1.7116
 3485TIP3    H231871   3.851   4.549   1.867  0.6449  2.2064 -0.8349
 3486TIP3   OH231872   0.316   3.586   0.008 -0.2674  0.0820 -0.0667
 3486TIP3    H131873   0.392   3.641  -0.013  0.7669 -1.1654  0.2427
 3486TIP3    H231874   0.244   3.624  -0.042  0.3517  1.8288  0.3165
 3487TIP3   OH231875   6.525   0.141   4.858  0.2549 -0.3476  0.0880
 3487TIP3    H131876   6.517   0.051   4.826 -0.3999 -0.6850  1.1329
 3487TIP3    H231877   6.583   0.134   4.934  0.3692  0.1498  0.0481
 3488TIP3   OH231878   6.270   6.295   4.311  0.5647 -0.4165 -0.5754
 3488TIP3    H131879   6.264   6.199   4.316 -3.2845 -0.2833  0.9237
 3488TIP3    H231880   6.190   6.326   4.354  2.0755  3.5375 -0.2042
 3489TIP3   OH231881   1.670   0.996  12.077  1.0219 -0.1683  0.4071
 3489TIP3    H131882   1.615   1.073  12.061  1.1867 -0.2721 -0.7380
 3489TIP3    H231883   1.618   0.923  12.042  0.7413 -0.6239  1.7435
 3490TIP3   OH231884   0.777   2.962   5.827 -0.2542 -0.2426 -0.2078
 3490TIP3    H131885   0.786   2.867   5.838 -2.1267 -0.5760 -1.0934
 3490TIP3    H231886   0.683   2.977   5.820  0.0297  1.6065 -0.7847
 3491TIP3   OH231887   1.741   1.290  16.520 -0.4938 -0.3447  0.6718
 3491TIP3    H131888   1.677   1.298  16.591  0.0414  0.0178  1.1281
 3491TIP3    H231889   1.826   1.300  16.563 -0.1943  1.2441 -0.1890
 3492TIP3   OH231890   6.205   3.077   0.339 -0.4344  0.0646 -0.4029
 3492TIP3    H131891   6.115   3.059   0.312 -0.4263 -2.2817  0.8874
 3492TIP3    H231892   6.259   3.042   0.267 -0.5138 -0.5128 -0.1810
 3493TIP3   OH231893   2.802   6.125  11.796 -0.1362  0.2628 -0.4740
 3493TIP3    H131894   2.881   6.090  11.838  0.5649  1.4519 -0.7589
 3493TIP3    H231895   2.730   6.099  11.854  0.9145  3.0182  2.3243
 3494TIP3   OH231896   1.814   6.776  15.331 -0.3872  0.2116  0.6688
 3494TIP3    H131897   1.821   6.707  15.264 -1.1978  0.3683  0.4118
 3494TIP3    H231898   1.861   6.741  15.406 -2.8029 -1.7325  1.4132
 3495TIP3   OH231899   2.975   5.801  14.777 -0.1145  0.0880 -0.0458
 3495TIP3    H131900   2.898   5.821  14.829 -0.6275 -1.3752 -0.1956
 3495TIP3    H231901   3.046   5.847  14.820 -0.4232 -1.4658  2.2807
 3496TIP3   OH231902   6.327   3.232  13.996 -0.3580  0.3813  0.2136
 3496TIP3    H131903   6.240   3.198  13.972  0.6323 -1.9480 -0.3423
 3496TIP3    H231904   6.388   3.164  13.969  1.7594  2.2846 -0.1215
 3497TIP3   OH231905   5.727   1.561  12.576  0.6908 -0.6510 -0.1822
 3497TIP3    H131906   5.775   1.540  12.656 -1.4228 -1.1680  0.9952
 3497TIP3    H231907   5.773   1.638  12.540  0.2848  1.1113  2.7905
 3498TIP3   OH231908   6.512   2.928   0.871 -0.3031  0.1769 -1.0017
 3498TIP3    H131909   6.537   2.931   0.963 -1.8579  0.2530 -0.5573
 3498TIP3    H231910   6.490   3.019   0.849 -0.8807  0.0009 -1.1637
 3499TIP3   OH231911   4.775   0.703   5.474 -0.3543  0.0895 -0.2793
 3499TIP3    H131912   4.769   0.636   5.542 -0.9554 -1.3099 -1.6387
 3499TIP3    H231913   4.700   0.685   5.417 -0.7047  2.1254 -0.5432
 3500TIP3   OH231914   4.786   0.175   0.281 -0.3629  0.1169  1.3328
 3500TIP3    H131915   4.745   0.260   0.267 -1.7976 -0.4571  1.9191
 3500TIP3    H231916   4.859   0.173   0.218 -1.7590  0.8145 -0.3739
 3501TIP3   OH231917   0.591   2.898   3.933 -0.2167 -0.2571 -0.1210
 3501TIP3    H131918   0.626   2.896   4.022  0.4148  0.0762 -0.3534
 3501TIP3    H231919   0.542   2.816   3.925 -0.2475 -0.3115  0.5161
 3502TIP3   OH231920   5.752   0.001   3.023  0.4607  0.0206 -0.0325
 3502TIP3    H131921   5.833   0.001   2.972  0.6074 -1.2647  0.1633
 3502TIP3    H231922   5.771   0.060   3.096  1.9235 -1.6369  1.0155
 3503TIP3   OH231923   1.035   2.938   4.022  0.4217  0.3869 -0.3225
 3503TIP3    H131924   1.004   2.989   3.947  0.6397  1.6424  0.4047
 3503TIP3    H231925   1.129   2.928   4.007  0.2245 -0.6134 -0.9231
 3504TIP3   OH231926   4.621   0.465   4.288  0.3787  0.0471  0.2289
 3504TIP3    H131927   4.659   0.393   4.237  1.6974  0.9622 -0.1328
 3504TIP3    H231928   4.576   0.421   4.361  0.1674 -1.1847 -0.6133
 3505TIP3   OH231929   6.376   1.549   4.715  0.3056  0.2732  0.1479
 3505TIP3    H131930   6.420   1.517   4.794  0.8086 -0.6433 -0.4953
 3505TIP3    H231931   6.342   1.470   4.673  0.6121  0.6889 -0.8912
 3506TIP3   OH231932   5.357   3.974  16.852 -0.7864 -0.6455  0.0941
 3506TIP3    H131933   5.371   3.973  16.946  1.3157 -0.3479 -0.1485
 3506TIP3    H231934   5.386   3.888  16.822  1.5842  0.3000 -0.5627
 3507TIP3   OH231935   2.484   1.876   2.442  0.1257 -0.5287 -0.0283
 3507TIP3    H131936   2.533   1.951   2.410  0.6806 -0.2440  1.4013
 3507TIP3    H231937   2.551   1.809   2.457  0.0826 -0.2507  1.6164
 3508TIP3   OH231938   4.017   5.241  14.596  0.0480  0.3325 -0.3340
 3508TIP3    H131939   4.022   5.309  14.663  0.5939  1.2632 -1.2877
 3508TIP3    H231940   3.936   5.194  14.615  0.2195  0.5459  0.9945
 3509TIP3   OH231941   6.121   0.617  12.805  0.5965 -0.5195  0.3267
 3509TIP3    H131942   6.074   0.536  12.787 -0.1204 -0.7434  2.7734
 3509TIP3    H231943   6.064   0.665  12.865  1.6640  1.1366  0.0876
 3510TIP3   OH231944   0.266   3.015  14.324 -0.2119 -0.1530  0.3519
 3510TIP3    H131945   0.275   3.107  14.350  1.1192 -0.2388  0.2813
 3510TIP3    H231946   0.314   2.966  14.391  0.5899 -0.6325 -0.5470
 3511TIP3   OH231947   5.901   1.331   5.450  0.3775 -0.0121  0.7298
 3511TIP3    H131948   5.833   1.353   5.514 -1.2065 -1.9303 -0.1682
 3511TIP3    H231949   5.923   1.415   5.409 -1.4273  0.6974  1.1048
 3512TIP3   OH231950   6.496   0.417  12.570  0.1273 -0.1111  0.1165
 3512TIP3    H131951   6.408   0.443  12.543 -0.3820 -1.6469  0.1798
 3512TIP3    H231952   6.486   0.388  12.661  0.3455 -1.7634 -0.3496
 3513TIP3   OH231953   4.966   6.158  11.035  0.2355 -0.2430 -0.2963
 3513TIP3    H131954   5.039   6.212  11.065 -0.4883  0.6355 -0.0901
 3513TIP3    H231955   5.002   6.108  10.962  1.3544 -0.6508  0.5080
 3514TIP3   OH231956   1.335   2.206   3.993  0.5888 -0.0799  0.0508
 3514TIP3    H131957   1.244   2.233   4.005  0.2197 -1.2802  0.1158
 3514TIP3    H231958   1.384   2.288   3.986 -0.4409  0.5869  0.4091
 3515TIP3   OH231959   5.969   0.200  16.476  0.6210 -0.1622  0.2275
 3515TIP3    H131960   5.891   0.173  16.525  0.1548  1.2542  0.3353
 3515TIP3    H231961   6.042   0.162  16.524  0.0765 -0.1899  1.0634
 3516TIP3   OH231962   2.225   2.827   3.531 -0.3623 -0.2246  0.6355
 3516TIP3    H131963   2.227   2.874   3.447 -0.1241 -1.5491 -0.1240
 3516TIP3    H231964   2.302   2.859   3.578  0.4346 -0.6488 -0.3289
 3517TIP3   OH231965   4.573   0.766   5.030  0.5600  0.2948 -0.0796
 3517TIP3    H131966   4.487   0.802   5.056 -0.4110 -2.4794  0.8844
 3517TIP3    H231967   4.562   0.740   4.939  0.0258 -0.8651  0.2917
 3518TIP3   OH231968   1.938   5.700  10.616 -0.1326  0.4970 -0.2463
 3518TIP3    H131969   1.977   5.728  10.534 -0.3011 -1.0573 -0.8996
 3518TIP3    H231970   1.846   5.725  10.609 -0.5232 -1.0544 -1.2855
 3519TIP3   OH231971   5.448   5.047   0.342  0.6465 -0.2752 -0.5286
 3519TIP3    H131972   5.496   5.110   0.288  1.2924 -0.3841 -0.0869
 3519TIP3    H231973   5.356   5.073   0.333  0.8028  0.0630 -1.2135
 3520TIP3   OH231974   3.707   4.826   5.443  0.4479 -0.6435 -0.0192
 3520TIP3    H131975   3.755   4.746   5.464 -2.8026 -2.4998  0.9744
 3520TIP3    H231976   3.673   4.810   5.355 -1.1318 -0.8832  0.6156
 3521TIP3   OH231977   2.601   0.114  11.165  0.1590  0.0982 -0.2162
 3521TIP3    H131978   2.610   0.021  11.186  0.8791  0.6289  2.0056
 3521TIP3    H231979   2.607   0.117  11.069  2.7834 -1.8803 -0.2252
 3522TIP3   OH231980   4.920   3.812  12.668 -0.3316  0.0595 -0.6193
 3522TIP3    H131981   4.922   3.864  12.749  3.4903  0.1037 -0.5639
 3522TIP3    H231982   4.871   3.733  12.692 -1.4147  1.1399  0.9702
 3523TIP3   OH231983   6.544   0.598   2.079  0.6374 -0.6522 -0.6404
 3523TIP3    H131984   6.460   0.555   2.090  0.4425  0.0076  0.5938
 3523TIP3    H231985   6.525   0.676   2.028  0.6513 -0.9524 -1.1089
 3524TIP3   OH231986   6.326   2.919  14.881  0.0841  0.5831 -0.3081
 3524TIP3    H131987   6.258   2.985  14.866 -1.0694 -0.7329 -1.1733
 3524TIP3    H231988   6.400   2.949  14.829 -0.6338  0.9158 -1.1755
 3525TIP3   OH231989   0.444   4.694  16.343  0.3156  0.3384  0.1539
 3525TIP3    H131990   0.450   4.713  16.249 -1.4931  0.6316  0.0662
 3525TIP3    H231991   0.366   4.740  16.372  1.3976  1.0898  2.0510
 3526TIP3   OH231992   0.042   4.725  16.705  0.0622 -0.1718 -0.0222
 3526TIP3    H131993  -0.032   4.710  16.646  0.2621 -0.1926 -0.2715
 3526TIP3    H231994   0.117   4.735  16.646  0.1244  0.6759  0.1847
 3527TIP3   OH231995   2.098   1.940  11.097 -0.3551  0.2837 -0.2588
 3527TIP3    H131996   2.083   2.022  11.144  2.2970  0.7201 -0.0644
 3527TIP3    H231997   2.160   1.892  11.151  0.0528 -0.7552 -1.5950
 3528TIP3   OH231998   0.134   4.832   2.461  0.7882 -0.3955 -0.1022
 3528TIP3    H131999   0.144   4.815   2.367  1.3193  2.3198 -0.6226
 3528TIP3    H232000   0.219   4.866   2.489  0.2242  0.1280  1.0421
 3529TIP3   OH232001   5.662   2.318   3.589  0.2701  0.2383  0.6051
 3529TIP3    H132002   5.626   2.309   3.501  0.9107 -2.0852  0.5337
 3529TIP3    H232003   5.699   2.407   3.590  2.6672 -0.5333 -2.4415
 3530TIP3   OH232004   5.093   0.885   2.020 -0.6505  0.0679 -0.6756
 3530TIP3    H132005   5.070   0.909   1.930  0.6458 -0.4557 -1.1743
 3530TIP3    H232006   5.136   0.963   2.055  2.6695 -0.9882 -1.9710
 3531TIP3   OH232007   3.624   6.317  13.337  0.0312  0.3962  0.1055
 3531TIP3    H132008   3.572   6.244  13.371 -0.3478  0.3524 -0.5563
 3531TIP3    H232009   3.560   6.387  13.324 -0.3064 -0.2842 -2.6594
 3532TIP3   OH232010   5.468   2.836   6.366  0.0664  0.5131 -0.2144
 3532TIP3    H132011   5.548   2.832   6.418  0.1658 -1.4580 -0.4618
 3532TIP3    H232012   5.498   2.856   6.277  0.2596  0.0371 -0.2568
 3533TIP3   OH232013   2.504   1.405  14.034  0.4024 -0.0208 -1.0160
 3533TIP3    H132014   2.534   1.332  13.979  1.8433 -0.8730  0.8128
 3533TIP3    H232015   2.524   1.378  14.123 -2.6766  0.9103  0.1055
 3534TIP3   OH232016   5.144   4.433   5.531 -0.1086 -0.2532  0.5673
 3534TIP3    H132017   5.216   4.451   5.470 -0.2941  1.7045  0.8540
 3534TIP3    H232018   5.141   4.510   5.587 -1.5661 -0.9099  1.4362
 3535TIP3   OH232019   5.792   3.471  14.469  0.5537  0.0338  0.1559
 3535TIP3    H132020   5.711   3.434  14.505  1.4424 -1.7163  0.4628
 3535TIP3    H232021   5.840   3.396  14.437  2.2772  0.9927  0.3944
 3536TIP3   OH232022   3.647   2.988   2.921 -0.2587 -0.0989 -0.7100
 3536TIP3    H132023   3.599   2.931   2.861 -0.4119  0.3446 -1.0158
 3536TIP3    H232024   3.639   3.076   2.882 -0.8480  0.2885  0.2534
 3537TIP3   OH232025   0.763   4.592   6.660  0.4940 -0.1297  0.2399
 3537TIP3    H132026   0.671   4.602   6.686 -0.1331  0.0064 -1.8144
 3537TIP3    H232027   0.774   4.652   6.586  1.8751 -1.0475 -0.3471
 3538TIP3   OH232028   1.931   6.421  15.625  0.1132 -0.2522 -0.3381
 3538TIP3    H132029   1.861   6.479  15.656  0.6111 -0.1900  0.6999
 3538TIP3    H232030   1.885   6.341  15.597 -0.3734 -0.2167  0.3551
 3539TIP3   OH232031   2.155   5.666  14.688 -0.1479 -0.0393  0.2594
 3539TIP3    H132032   2.190   5.624  14.610 -0.1303 -0.9180  0.7316
 3539TIP3    H232033   2.141   5.757  14.661  3.0048  0.5473  0.1914
 3540TIP3   OH232034   2.990   3.095  13.430 -0.1478  0.1050  0.6199
 3540TIP3    H132035   2.903   3.096  13.471 -0.9099  0.3604 -0.9311
 3540TIP3    H232036   3.049   3.123  13.499 -1.5152  1.5526  1.2817
 3541TIP3   OH232037   2.233   0.873  15.239 -0.1392  0.2360 -0.8276
 3541TIP3    H132038   2.171   0.823  15.187 -0.8214  0.1959  0.0150
 3541TIP3    H232039   2.211   0.853  15.330 -0.1532  1.7021 -0.4752
 3542TIP3   OH232040   0.204   0.373  16.873  0.0466  0.1153 -0.0353
 3542TIP3    H132041   0.111   0.385  16.856 -0.8275 -2.6101  2.1614
 3542TIP3    H232042   0.239   0.336  16.792 -1.4848 -1.6221  0.0276
 3543TIP3   OH232043   1.462   2.852  14.009 -0.2495  0.1483  0.2934
 3543TIP3    H132044   1.383   2.801  14.025 -1.0077  0.9568 -0.6680
 3543TIP3    H232045   1.432   2.943  14.013  0.0900  0.4560 -2.3948
 3544TIP3   OH232046   0.441   0.253  15.502  0.0785 -0.2155  0.0121
 3544TIP3    H132047   0.455   0.337  15.458 -0.3722 -0.0166  0.2383
 3544TIP3    H232048   0.462   0.271  15.594 -1.4577  0.0452  0.3251
 3545TIP3   OH232049   6.622   4.942   5.105 -0.2379  0.2875 -0.4739
 3545TIP3    H132050   6.559   4.872   5.086  0.8196 -1.4573  1.8923
 3545TIP3    H232051   6.682   4.942   5.031 -1.8379  0.6197 -1.8179
 3546TIP3   OH232052   5.236   2.211  14.718 -0.4027  0.3305 -0.1600
 3546TIP3    H132053   5.269   2.245  14.635 -1.1812  1.5669  0.0141
 3546TIP3    H232054   5.155   2.259  14.733 -1.5991 -1.6506  0.0946
 3547TIP3   OH232055   5.350   2.729   1.593 -0.0770 -0.1248 -0.0341
 3547TIP3    H132056   5.302   2.702   1.671  1.6780  0.0481  1.1817
 3547TIP3    H232057   5.348   2.653   1.536 -0.0794 -0.8104  0.8555
 3548TIP3   OH232058   3.527   1.109  15.527 -0.5485 -0.0087 -0.1066
 3548TIP3    H132059   3.573   1.038  15.483  0.0221 -0.3908  1.0700
 3548TIP3    H232060   3.451   1.067  15.568 -0.2256  0.0494  0.5682
 3549TIP3   OH232061   1.691   0.338  15.166  0.5709  0.3401  0.0784
 3549TIP3    H132062   1.777   0.380  15.171  0.1910  1.5027 -2.0314
 3549TIP3    H232063   1.673   0.309  15.256  3.6183 -0.9284  0.3923
 3550TIP3   OH232064   3.928   0.682  14.430  0.0282  0.4136  0.6781
 3550TIP3    H132065   3.912   0.595  14.465 -0.9526 -0.5157 -1.9122
 3550TIP3    H232066   3.864   0.738  14.475  0.5960 -0.1654  2.2769
 3551TIP3   OH232067   1.148   4.449   0.007 -0.1247 -0.3927  0.0601
 3551TIP3    H132068   1.077   4.509   0.027 -0.5551 -0.6547 -0.6654
 3551TIP3    H232069   1.225   4.489   0.047  0.0703  1.8860 -2.3637
 3552TIP3   OH232070   1.493   6.065   0.336  0.5032  0.2628 -0.4634
 3552TIP3    H132071   1.411   6.102   0.367  0.3162 -1.3876  1.1844
 3552TIP3    H232072   1.558   6.091   0.402  0.7125 -0.8108 -0.2241
 3553TIP3   OH232073   1.463   2.205   3.014 -0.0635  0.0347 -0.1605
 3553TIP3    H132074   1.481   2.293   2.979 -1.2597  1.0722  1.6787
 3553TIP3    H232075   1.384   2.216   3.067 -0.7749 -2.3696 -0.5877
 3554TIP3   OH232076   6.042   6.140   4.927  0.1667  0.0210  0.3606
 3554TIP3    H132077   5.954   6.172   4.907 -0.8431 -1.7842  1.5447
 3554TIP3    H232078   6.072   6.196   4.998 -0.7503 -0.3441  1.0692
 3555TIP3   OH232079   1.452   5.931   1.230  0.2065 -0.3248 -0.5704
 3555TIP3    H132080   1.410   5.897   1.309  2.2611 -1.4234  0.1030
 3555TIP3    H232081   1.379   5.945   1.169 -1.0822 -3.2486  0.1260
 3556TIP3   OH232082   2.371   2.796   0.387  0.0902 -0.4227 -0.4505
 3556TIP3    H132083   2.384   2.764   0.298  0.0988 -1.0727 -0.2198
 3556TIP3    H232084   2.430   2.743   0.441  0.0784 -0.0438 -0.0511
 3557TIP3   OH232085   5.628   5.581  11.388 -0.0623 -0.5874  0.5138
 3557TIP3    H132086   5.656   5.632  11.464 -1.4213  1.4125 -0.2435
 3557TIP3    H232087   5.680   5.616  11.315 -2.4555  1.3406 -0.4119
 3558TIP3   OH232088   2.845   3.587  14.456 -0.1709  0.2996 -0.3742
 3558TIP3    H132089   2.876   3.505  14.493 -0.3793  0.4695  0.1929
 3558TIP3    H232090   2.806   3.563  14.372 -2.6422 -0.6042  0.9372
 3559TIP3   OH232091   3.157   5.659  14.008  0.5836 -0.5000  0.1022
 3559TIP3    H132092   3.072   5.696  14.032  0.7481  0.0714 -0.1719
 3559TIP3    H232093   3.149   5.639  13.915  1.1626  0.7798 -0.2504
 3560TIP3   OH232094   3.673   5.868  15.487 -0.2444 -0.0287  0.0524
 3560TIP3    H132095   3.739   5.842  15.551 -0.8149  0.4738  0.8645
 3560TIP3    H232096   3.629   5.787  15.463 -0.4687 -0.1388  0.8139
 3561TIP3   OH232097   0.864   4.519  12.485 -0.2581 -0.6021  0.5733
 3561TIP3    H132098   0.898   4.570  12.559 -0.6566 -0.1175  0.4307
 3561TIP3    H232099   0.824   4.442  12.526 -1.9216  0.4432  1.0294
 3562TIP3   OH232100   4.837   3.841  10.650 -0.1145 -0.0370 -0.0719
 3562TIP3    H132101   4.801   3.844  10.562  1.2187 -0.0041 -0.6428
 3562TIP3    H232102   4.762   3.824  10.706 -1.1622  0.9985 -1.0979
 3563TIP3   OH232103   2.582   6.268  14.152  0.5130  1.0692  0.3479
 3563TIP3    H132104   2.592   6.209  14.227  0.2544 -1.9845 -1.8294
 3563TIP3    H232105   2.520   6.335  14.181 -0.4927 -0.6875  2.4727
 3564TIP3   OH232106   6.134   4.913  13.606  0.1829 -0.3086  0.1364
 3564TIP3    H132107   6.136   4.818  13.620  1.8948 -0.0966  1.8221
 3564TIP3    H232108   6.144   4.950  13.694  1.1760  1.4095 -0.6430
 3565TIP3   OH232109   3.336   6.018  15.933 -0.3097 -0.0289 -0.0938
 3565TIP3    H132110   3.304   6.084  15.995  0.4489  0.5155 -0.2700
 3565TIP3    H232111   3.298   6.044  15.849 -1.2716 -0.7200  0.1123
 3566TIP3   OH232112   1.757   0.263  12.539  0.1892  0.0215  0.0792
 3566TIP3    H132113   1.684   0.205  12.515 -0.6592  1.1543 -0.1668
 3566TIP3    H232114   1.715   0.346  12.563  1.3172  0.2659  1.3271
 3567TIP3   OH232115   3.779   0.543   0.914 -0.2806  0.5297 -0.3179
 3567TIP3    H132116   3.718   0.617   0.921  0.6236  1.2382  0.4011
 3567TIP3    H232117   3.828   0.559   0.834  0.5989  1.2720  0.3476
 3568TIP3   OH232118   2.726   6.257   0.563 -0.1057 -0.5557  0.1374
 3568TIP3    H132119   2.785   6.203   0.616 -0.7145 -1.8470 -0.4489
 3568TIP3    H232120   2.743   6.346   0.591  1.3327 -0.9992  0.7672
 3569TIP3   OH232121   6.238   6.071  14.895 -0.5542  0.5283  0.1093
 3569TIP3    H132122   6.213   6.152  14.939 -0.2144  1.0422 -0.6336
 3569TIP3    H232123   6.323   6.089  14.857 -0.4982 -0.1655 -0.1106
 3570TIP3   OH232124   4.465   4.669  14.343 -0.4512 -0.1713 -0.3014
 3570TIP3    H132125   4.440   4.695  14.254  0.5369  0.6421 -0.3512
 3570TIP3    H232126   4.385   4.630  14.380 -1.0741  0.1480 -1.2878
 3571TIP3   OH232127   2.561   4.313  14.178 -0.1498 -0.3498  0.4346
 3571TIP3    H132128   2.567   4.295  14.084 -0.2570 -0.8108  0.5136
 3571TIP3    H232129   2.550   4.227  14.219  0.4275 -0.2073  0.9144
 3572TIP3   OH232130   5.775   3.257  11.059  0.2050 -0.2488  0.2656
 3572TIP3    H132131   5.846   3.259  10.995  0.2598  2.5071  0.2583
 3572TIP3    H232132   5.696   3.269  11.007 -0.2433 -2.5497  0.3476
 3573TIP3   OH232133   4.341   3.260  15.407 -0.1463 -0.2841 -0.3641
 3573TIP3    H132134   4.320   3.353  15.411  1.4292  0.0685  0.8228
 3573TIP3    H232135   4.357   3.235  15.497  0.7744 -1.3712 -0.8027
 3574TIP3   OH232136   1.858   0.580   4.076  0.5181  0.0207 -0.0815
 3574TIP3    H132137   1.863   0.667   4.036  0.8502  0.1028  0.1289
 3574TIP3    H232138   1.922   0.528   4.026 -1.5195 -0.8489 -1.9742
 3575TIP3   OH232139   1.164   6.472   3.713  0.3530  0.1441  0.3540
 3575TIP3    H132140   1.154   6.510   3.626  0.8754  0.7195  0.5365
 3575TIP3    H232141   1.133   6.540   3.772  1.7818  0.5157  0.7165
 3576TIP3   OH232142   4.826   2.324  10.856 -0.1184  0.1094  0.5858
 3576TIP3    H132143   4.833   2.259  10.786  2.0586  1.2499 -0.3563
 3576TIP3    H232144   4.798   2.404  10.812  0.9142  0.7496  1.0359
 3577TIP3   OH232145   0.893   2.371  16.840 -0.5908  0.2973 -0.2525
 3577TIP3    H132146   0.937   2.287  16.853 -1.1642  0.0255 -0.0304
 3577TIP3    H232147   0.959   2.426  16.799  0.2856  0.2189  1.0170
 3578TIP3   OH232148   3.743   3.942  15.861  0.0515 -0.2297 -0.1075
 3578TIP3    H132149   3.746   3.892  15.942  0.6763 -0.1639 -0.0877
 3578TIP3    H232150   3.660   3.990  15.865 -0.2292 -0.7338  0.1831
 3579TIP3   OH232151   6.457   1.435  13.466 -0.1601  0.1506 -0.1540
 3579TIP3    H132152   6.444   1.478  13.551 -1.3056  0.8554 -0.6563
 3579TIP3    H232153   6.475   1.344  13.488 -0.1611  0.3797  0.8583
 3580TIP3   OH232154   5.095   1.259  11.597 -0.5478  0.0631 -0.1079
 3580TIP3    H132155   5.007   1.220  11.593 -0.2600 -0.5777 -0.3598
 3580TIP3    H232156   5.110   1.291  11.508  1.2534 -3.8976 -1.4685
 3581TIP3   OH232157   5.163   6.606  14.643  0.4703  0.4625 -0.5324
 3581TIP3    H132158   5.184   6.699  14.632 -0.9752  0.6725 -1.8428
 3581TIP3    H232159   5.084   6.592  14.591  0.7368 -1.5510 -0.4983
 3582TIP3   OH232160   5.742   1.950  14.511 -0.1198 -0.7763  0.1810
 3582TIP3    H132161   5.838   1.949  14.510 -0.1205 -1.6363 -1.0516
 3582TIP3    H232162   5.719   2.032  14.556  1.1890  0.0319 -0.5679
 3583TIP3   OH232163   4.180   1.321   4.377 -0.0188 -0.0549 -0.0098
 3583TIP3    H132164   4.144   1.232   4.381 -0.6010  0.2004  0.6863
 3583TIP3    H232165   4.275   1.307   4.371 -0.0747 -0.7327  0.4476
 3584TIP3   OH232166   5.610   0.296   5.604 -0.4172 -0.3462 -0.3783
 3584TIP3    H132167   5.702   0.314   5.627 -0.7592 -0.8621  1.5392
 3584TIP3    H232168   5.606   0.201   5.595 -0.5287 -0.2314 -1.6535
 3585TIP3   OH232169   1.828   5.902   6.313  0.0830  0.3980  0.0636
 3585TIP3    H132170   1.807   5.818   6.352  3.0690 -0.0565  0.9358
 3585TIP3    H232171   1.923   5.900   6.300 -0.1254  2.4341 -2.8280
 3586TIP3   OH232172   3.761   4.905  10.640  0.4101 -0.7340 -0.9884
 3586TIP3    H132173   3.787   4.834  10.699 -1.1022 -1.0947 -0.7031
 3586TIP3    H232174   3.786   4.984  10.687  2.1811 -1.0442 -1.3399
 3587TIP3   OH232175   6.669   5.327   0.845 -0.1567 -0.0292  0.3206
 3587TIP3    H132176   6.761   5.328   0.819 -0.2931 -1.3232 -0.2788
 3587TIP3    H232177   6.657   5.243   0.888 -1.2367 -0.2195 -0.3143
 3588TIP3   OH232178   5.042   2.451  11.420  0.3454  0.1656  0.5147
 3588TIP3    H132179   5.015   2.419  11.507 -2.8633  0.5593 -0.2148
 3588TIP3    H232180   5.103   2.384  11.388  2.4416  0.4954  3.3621
 3589TIP3   OH232181   2.707   4.497   1.218  0.2105  0.1306  0.2072
 3589TIP3    H132182   2.795   4.461   1.208  0.6044  1.1330 -0.1103
 3589TIP3    H232183   2.699   4.516   1.311  0.0344 -0.6515  0.3624
 3590TIP3   OH232184   6.227   1.900  15.935  0.0996  0.4658  0.0475
 3590TIP3    H132185   6.141   1.875  15.904  0.5980  0.2705 -1.2109
 3590TIP3    H232186   6.284   1.895  15.858  0.5812  3.8769  0.0291
 3591TIP3   OH232187   5.587   0.003   0.496  0.2299 -0.1066 -0.0272
 3591TIP3    H132188   5.537  -0.064   0.449  1.1778 -0.6654 -0.2566
 3591TIP3    H232189   5.648   0.038   0.431  1.4254 -0.7549  0.7072
 3592TIP3   OH232190   0.083   2.724   3.865 -0.2609  0.1451  0.5673
 3592TIP3    H132191   0.053   2.779   3.792  1.1985 -0.2935 -0.4162
 3592TIP3    H232192   0.064   2.635   3.837  0.1009 -0.0116  0.8117
 3593TIP3   OH232193   1.217   4.391  12.361 -0.5414 -0.2357  0.0544
 3593TIP3    H132194   1.166   4.311  12.351 -0.6152 -0.1856  0.0299
 3593TIP3    H232195   1.222   4.427  12.273 -0.4870 -0.2256  0.0620
 3594TIP3   OH232196   6.023   6.092  13.417  0.2226  0.0579  0.1409
 3594TIP3    H132197   6.068   6.008  13.420 -2.0544 -1.2398  0.1640
 3594TIP3    H232198   5.944   6.080  13.470 -0.7741  1.8000 -0.8216
 3595TIP3   OH232199   5.688   6.461   6.500  0.0663  0.2122  0.0648
 3595TIP3    H132200   5.727   6.549   6.505 -1.4982  1.0789 -1.8729
 3595TIP3    H232201   5.621   6.461   6.569 -0.2818  0.7497 -0.2650
 3596TIP3   OH232202   5.171   5.548  11.357 -0.7270  0.4124  0.1872
 3596TIP3    H132203   5.199   5.458  11.339 -0.2564  0.9058 -1.7177
 3596TIP3    H232204   5.229   5.577  11.428 -1.1829 -0.9009  1.1384
 3597TIP3   OH232205   0.329   4.306  15.077 -0.2680  0.1375  0.3323
 3597TIP3    H132206   0.329   4.400  15.096 -1.2841 -0.0379  1.3474
 3597TIP3    H232207   0.333   4.300  14.982 -0.9580  1.2351  0.2221
 3598TIP3   OH232208   3.282   5.335  16.151 -0.8523  0.5509  0.1092
 3598TIP3    H132209   3.296   5.244  16.175  1.6038  0.4476 -1.3262
 3598TIP3    H232210   3.208   5.333  16.090 -0.9008 -0.4638  0.1866
 3599TIP3   OH232211   0.380   3.550   2.117  0.3993  0.4136  0.3483
 3599TIP3    H132212   0.453   3.598   2.079 -1.0592  2.4398 -0.1033
 3599TIP3    H232213   0.369   3.473   2.061  2.8979 -0.6301  1.1712
 3600TIP3   OH232214   2.783   3.973  14.327  0.2214 -0.6266  0.1529
 3600TIP3    H132215   2.856   4.031  14.347  0.9737 -0.8669 -1.7352
 3600TIP3    H232216   2.814   3.919  14.255 -2.0204 -0.3634 -1.0980
 3601TIP3   OH232217   6.797   0.735   3.679  0.1702 -0.1891  0.0592
 3601TIP3    H132218   6.834   0.811   3.723  1.1998 -0.1766 -0.7844
 3601TIP3    H232219   6.756   0.684   3.749 -1.0887  1.4326  0.5505
 3602TIP3   OH232220   3.644   5.653  12.450  0.5222 -0.2030  0.0718
 3602TIP3    H132221   3.598   5.725  12.494  0.2953  0.3874 -1.1014
 3602TIP3    H232222   3.575   5.596  12.419  0.6919 -0.7444  0.6678
 3603TIP3   OH232223   4.895   0.592   4.005  0.3595  0.0927  0.0650
 3603TIP3    H132224   4.823   0.539   3.971  1.7303 -0.7144 -1.7679
 3603TIP3    H232225   4.898   0.572   4.098 -1.6338  0.0117  0.1637
 3604TIP3   OH232226   6.664   4.939   2.017 -0.1055 -0.5797 -0.1685
 3604TIP3    H132227   6.694   4.889   1.941  1.1368  1.2284 -0.9361
 3604TIP3    H232228   6.660   5.030   1.987 -1.4372 -0.0586  1.4183
 3605TIP3   OH232229   0.986   5.019  11.130 -0.2130  0.0321 -0.4737
 3605TIP3    H132230   1.061   4.975  11.089 -0.8611  1.2616 -3.2671
 3605TIP3    H232231   1.023   5.099  11.167 -0.1006  0.8807 -2.2734
 3606TIP3   OH232232   1.277   5.501   5.097 -0.0085 -0.6982  0.9268
 3606TIP3    H132233   1.210   5.507   5.029  0.5850 -0.4887  0.3448
 3606TIP3    H232234   1.252   5.567   5.162  0.3881  0.3641  0.0268
 3607TIP3   OH232235   3.256   0.965  15.589 -0.1917  0.4399 -0.3808
 3607TIP3    H132236   3.179   1.001  15.634  0.0002  1.3639 -0.7518
 3607TIP3    H232237   3.226   0.948  15.500 -0.5341 -1.2524  0.0374
 3608TIP3   OH232238   1.416   3.042  16.290  0.5487 -0.1860 -0.3393
 3608TIP3    H132239   1.366   3.011  16.215 -1.8292 -0.3021  1.1869
 3608TIP3    H232240   1.416   2.968  16.351  2.0759  0.0397 -0.0175
 3609TIP3   OH232241   1.212   4.505   5.343 -0.5001 -0.2397 -0.1742
 3609TIP3    H132242   1.191   4.413   5.360 -1.0474 -0.0445  0.2265
 3609TIP3    H232243   1.265   4.532   5.418 -1.2891  0.0839  0.2710
 3610TIP3   OH232244   5.689   5.792  14.381 -0.3221 -0.6891 -0.1371
 3610TIP3    H132245   5.676   5.882  14.412  2.8415 -0.3678  0.7033
 3610TIP3    H232246   5.644   5.737  14.445 -1.4948  0.2507 -0.1325
 3611TIP3   OH232247   3.742   4.385  12.036  0.3913  0.3552  0.7092
 3611TIP3    H132248   3.726   4.301  12.078  1.1298 -0.7389 -1.0888
 3611TIP3    H232249   3.831   4.378  12.001  0.2695  1.6862  0.0525
 3612TIP3   OH232250   0.818   2.960   2.017 -0.5089 -0.7115  0.4803
 3612TIP3    H132251   0.851   2.876   2.051 -1.7030 -0.7734  1.5920
 3612TIP3    H232252   0.855   3.026   2.076 -0.0375 -0.5094 -0.0398
 3613TIP3   OH232253   4.343   0.770   3.888 -0.6627 -1.0218  0.4157
 3613TIP3    H132254   4.334   0.695   3.947 -0.4498 -1.1842  0.2456
 3613TIP3    H232255   4.413   0.744   3.828 -1.1232 -1.0130 -0.1356
 3614TIP3   OH232256   1.532   6.141  14.510  0.0360 -0.0984  0.2644
 3614TIP3    H132257   1.547   6.213  14.571  1.2850  1.4149 -1.7244
 3614TIP3    H232258   1.596   6.074  14.536  0.1984  0.3078  0.9304
 3615TIP3   OH232259   0.496   5.239  12.046 -0.1189  0.6714  0.2876
 3615TIP3    H132260   0.412   5.215  12.086  1.3168 -2.3586  1.8578
 3615TIP3    H232261   0.526   5.158  12.005  2.5152  1.3546  0.7020
 3616TIP3   OH232262   0.210   4.130  14.564 -0.1516  0.4630  0.1538
 3616TIP3    H132263   0.183   4.137  14.472 -0.1272  1.4245  0.2120
 3616TIP3    H232264   0.128   4.119  14.612 -0.0148 -3.6936 -0.2361
 3617TIP3   OH232265   4.261   2.011   5.327 -0.1682 -0.2386  0.5475
 3617TIP3    H132266   4.257   1.958   5.407 -0.5002 -0.2039  0.5553
 3617TIP3    H232267   4.272   2.101   5.358  0.3492 -0.2912  0.5357
 3618TIP3   OH232268   6.512   0.025   0.763 -0.0452  0.1508 -0.5631
 3618TIP3    H132269   6.588   0.049   0.815  0.2586 -1.7023 -0.0870
 3618TIP3    H232270   6.437   0.050   0.817  0.2635 -1.6139  0.7777
 3619TIP3   OH232271   3.999   1.596   2.208 -0.6876 -0.4798  0.1048
 3619TIP3    H132272   4.064   1.666   2.205 -0.7519 -0.1527  3.2318
 3619TIP3    H232273   4.035   1.529   2.150  2.7891 -0.4939  1.9580
 3620TIP3   OH232274   1.570   2.358   3.786  0.2614  0.1722 -0.6110
 3620TIP3    H132275   1.562   2.269   3.750 -0.1039  0.0326 -0.1877
 3620TIP3    H232276   1.628   2.347   3.862 -2.2597 -0.2956  1.3945
 3621TIP3   OH232277   6.697   0.473  16.138  0.3964 -0.0690 -0.4601
 3621TIP3    H132278   6.780   0.503  16.100 -0.2399  0.2249 -1.6741
 3621TIP3    H232279   6.630   0.511  16.081 -0.5737 -0.4103  0.4288
 3622TIP3   OH232280   0.536   2.694  12.688  0.1748  0.3767 -0.0819
 3622TIP3    H132281   0.583   2.777  12.692 -0.4324  0.6944  2.8550
 3622TIP3    H232282   0.445   2.717  12.709  0.1621 -1.0609  1.7194
 3623TIP3   OH232283   5.277   5.137  13.345 -0.6285  0.6888  0.7144
 3623TIP3    H132284   5.301   5.201  13.412  1.9898  0.6357 -0.0477
 3623TIP3    H232285   5.320   5.169  13.266 -1.1443 -0.8329 -0.2068
 3624TIP3   OH232286   2.436   4.243   1.322  0.0380  0.3617  0.2887
 3624TIP3    H132287   2.407   4.313   1.381  1.3009  1.6626 -0.5577
 3624TIP3    H232288   2.513   4.206   1.366  0.3628  0.6326 -0.0487
 3625TIP3   OH232289   2.736   2.196  16.898 -0.0851 -0.0718  0.2688
 3625TIP3    H132290   2.658   2.216  16.949 -0.4577 -1.0836  0.1156
 3625TIP3    H232291   2.809   2.219  16.955 -0.4792  0.9497  0.3880
 3626TIP3   OH232292   3.138   2.231  12.415  0.4857 -0.0335  0.0865
 3626TIP3    H132293   3.099   2.267  12.336  1.1771 -0.7205 -0.5801
 3626TIP3    H232294   3.107   2.141  12.420  0.5997 -0.0556  0.4887
 3627TIP3   OH232295   5.315   0.082   3.483 -0.3115 -0.1285  0.3144
 3627TIP3    H132296   5.353   0.114   3.564  0.2852  0.3787 -0.1650
 3627TIP3    H232297   5.353   0.136   3.414 -0.0585 -1.1882 -0.4104
 3628TIP3   OH232298   3.112   1.126  11.663  0.6774 -0.3052  0.1365
 3628TIP3    H132299   3.053   1.118  11.588  0.0961 -2.1657  0.7405
 3628TIP3    H232300   3.111   1.219  11.684 -0.8344 -0.0630 -0.8405
 3629TIP3   OH232301   5.345   3.302   2.134  0.1120  0.1289  0.1833
 3629TIP3    H132302   5.331   3.236   2.067 -0.5113 -0.6618  1.0551
 3629TIP3    H232303   5.311   3.262   2.214  2.2709  0.3912  1.3086
 3630TIP3   OH232304   1.595   4.731  13.395  0.3713 -0.5242 -0.1998
 3630TIP3    H132305   1.642   4.796  13.447 -1.3611 -0.1954  1.0400
 3630TIP3    H232306   1.584   4.772  13.309 -1.5060  1.2925  0.8295
 3631TIP3   OH232307   3.806   3.570  14.664 -0.3742 -0.5032 -0.0930
 3631TIP3    H132308   3.736   3.506  14.675 -0.2697 -0.4510  0.9859
 3631TIP3    H232309   3.790   3.635  14.733  0.4930 -0.2705 -0.1003
 3632TIP3   OH232310   2.111   4.439  13.869  0.5218 -0.2518  0.0217
 3632TIP3    H132311   2.101   4.402  13.956 -0.8378 -2.7164 -1.0809
 3632TIP3    H232312   2.205   4.436  13.852  0.7021 -0.6089  1.0501
 3633TIP3   OH232313   1.092   3.026  16.266  0.2247 -0.6546 -0.1850
 3633TIP3    H132314   1.135   3.093  16.319  0.9272 -0.6761 -0.7237
 3633TIP3    H232315   1.007   3.064  16.244 -0.1459 -0.7022  1.0723
 3634TIP3   OH232316   3.644   3.357   2.950  0.1290  0.1767  0.5722
 3634TIP3    H132317   3.739   3.362   2.960  0.3683 -3.1750  1.0407
 3634TIP3    H232318   3.631   3.295   2.878 -1.7792  2.1175 -0.8831
 3635TIP3   OH232319   3.979   3.673  15.197 -0.7020  0.2588 -0.4014
 3635TIP3    H132320   3.928   3.713  15.268  0.9768  0.6674  0.6219
 3635TIP3    H232321   3.993   3.583  15.226 -1.3761 -0.0540 -1.0032
 3636TIP3   OH232322   3.686   0.380   3.633  0.5677 -0.5961 -0.2175
 3636TIP3    H132323   3.675   0.287   3.655  0.8062 -0.3184  1.0991
 3636TIP3    H232324   3.742   0.415   3.702  1.7310  0.2067 -1.5194
 3637TIP3   OH232325   6.388   0.795  11.381 -0.6748  0.3702 -0.3051
 3637TIP3    H132326   6.356   0.780  11.470 -1.8354  0.7206 -0.6445
 3637TIP3    H232327   6.314   0.771  11.325 -0.0514  0.4258 -1.1607
 3638TIP3   OH232328   5.804   6.639   5.035  0.1735  0.2790 -0.0263
 3638TIP3    H132329   5.796   6.598   5.122 -1.1681 -1.0876 -0.7473
 3638TIP3    H232330   5.820   6.732   5.054 -1.7688  0.3316  1.7340
 3639TIP3   OH232331   1.921   6.057   0.628  1.0887  0.5272  0.3442
 3639TIP3    H132332   2.003   6.061   0.578  0.3183  0.6125 -0.9506
 3639TIP3    H232333   1.924   6.135   0.684  0.8048  1.9226 -1.4705
 3640TIP3   OH232334   6.691   4.397  15.015 -0.2539  0.0090  0.1110
 3640TIP3    H132335   6.656   4.310  15.034  1.0187 -0.3778  0.7762
 3640TIP3    H232336   6.758   4.383  14.949  0.4557  0.3889  0.7408
 3641TIP3   OH232337   2.060   4.179  11.954 -0.2277 -0.4757  0.8827
 3641TIP3    H132338   2.082   4.168  11.861 -2.0663 -0.9613  0.4554
 3641TIP3    H232339   2.016   4.097  11.977 -2.7097  0.8543  1.2412
 3642TIP3   OH232340   5.676   0.473   2.740  0.1252 -0.3646 -0.3296
 3642TIP3    H132341   5.655   0.387   2.776  0.7413 -0.3966 -0.0174
 3642TIP3    H232342   5.592   0.515   2.726 -0.1760 -0.9746 -0.3657
 3643TIP3   OH232343   2.761   4.841  11.558 -0.5393  0.9613  0.4908
 3643TIP3    H132344   2.684   4.795  11.593  0.0677  0.3650  1.0585
 3643TIP3    H232345   2.818   4.854  11.634 -0.3513  1.9614  0.1875
 3644TIP3   OH232346   5.864   3.109   5.566  0.3514  0.1842  0.7452
 3644TIP3    H132347   5.913   3.035   5.601 -0.5512 -0.0424  1.5677
 3644TIP3    H232348   5.931   3.171   5.538  1.1448 -1.1614 -0.4932
 3645TIP3   OH232349   0.999   5.913   1.675 -0.4055  0.0446  0.2981
 3645TIP3    H132350   0.931   5.848   1.693 -1.4948  1.0507  0.0021
 3645TIP3    H232351   0.998   5.922   1.579 -0.4183  0.6271  0.3482
 3646TIP3   OH232352   6.299   5.384   6.245  0.5880 -0.4289 -0.1301
 3646TIP3    H132353   6.353   5.389   6.324  0.4327 -2.4294  0.1494
 3646TIP3    H232354   6.214   5.353   6.276  0.2989 -0.5259 -0.9969
 3647TIP3   OH232355   5.964   2.259  12.067  0.5541  0.4676 -0.3646
 3647TIP3    H132356   5.981   2.179  12.117  1.4866 -0.6668 -2.3575
 3647TIP3    H232357   6.001   2.241  11.981 -2.8850  1.4345 -2.2293
 3648TIP3   OH232358   4.269   6.070  16.044 -0.0379 -0.5947 -0.1406
 3648TIP3    H132359   4.249   6.054  15.951 -0.2456 -1.3900  0.0338
 3648TIP3    H232360   4.228   6.154  16.063  1.1867  0.2649 -1.1243
 3649TIP3   OH232361   0.167   2.307  13.833 -0.3313 -0.1213 -0.2625
 3649TIP3    H132362   0.196   2.215  13.836  2.2497  0.5572 -1.5868
 3649TIP3    H232363   0.143   2.327  13.924 -0.0434 -1.8416  0.2317
 3650TIP3   OH232364   2.655   1.025   3.611 -0.3169 -0.0822 -0.1753
 3650TIP3    H132365   2.661   1.070   3.695 -1.4242  1.4258 -0.8632
 3650TIP3    H232366   2.676   1.091   3.545  0.5173 -1.2267 -1.1122
 3651TIP3   OH232367   1.561   5.377  12.346  0.7051  0.0066 -0.2950
 3651TIP3    H132368   1.490   5.382  12.410  0.2023 -2.0675 -0.6077
 3651TIP3    H232369   1.595   5.466  12.340 -1.5495  0.9680  0.2279
 3652TIP3   OH232370   4.413   4.366   4.065  0.3307 -0.0684 -1.1570
 3652TIP3    H132371   4.421   4.458   4.038 -0.6390 -0.1125 -1.6502
 3652TIP3    H232372   4.318   4.350   4.065  0.4160 -0.7124  0.1520
 3653TIP3   OH232373   2.753   1.352  14.720  0.2993  0.2576  0.3561
 3653TIP3    H132374   2.674   1.312  14.757 -0.5543  0.6377 -0.9593
 3653TIP3    H232375   2.799   1.279  14.678 -0.6296  0.4123 -0.9858
 3654TIP3   OH232376   6.154   1.670   6.145 -0.3474 -0.2818 -0.0342
 3654TIP3    H132377   6.203   1.674   6.227 -2.3773  1.0346  1.1949
 3654TIP3    H232378   6.070   1.632   6.169 -1.3018  0.9178 -1.3285
 3655TIP3   OH232379   6.480   2.288   3.318  0.4377  0.5106 -0.1567
 3655TIP3    H132380   6.575   2.291   3.316  0.4696 -0.5443 -0.9742
 3655TIP3    H232381   6.455   2.364   3.371  1.6105  2.5163 -2.3178
 3656TIP3   OH232382   6.201   0.516   4.980 -0.4847  0.0033  0.1471
 3656TIP3    H132383   6.220   0.449   4.914 -0.0458 -0.4145  0.6825
 3656TIP3    H232384   6.282   0.524   5.030 -1.4817 -1.4648  2.1738
 3657TIP3   OH232385   3.531   4.068   2.287  0.3550 -0.3039  0.2176
 3657TIP3    H132386   3.539   4.081   2.381  0.3325  0.4555  0.1200
 3657TIP3    H232387   3.454   4.119   2.262 -0.1616 -1.2154 -0.0791
 3658TIP3   OH232388   1.431   4.662  13.770  0.1321  0.0118 -0.0912
 3658TIP3    H132389   1.465   4.710  13.845  1.9884 -0.0749 -0.8248
 3658TIP3    H232390   1.386   4.587  13.808  3.3632 -1.5595  0.9830
 3659TIP3   OH232391   1.695   4.429   6.606  0.1451  0.0665  0.3700
 3659TIP3    H132392   1.777   4.385   6.627  0.6303 -0.3264 -2.0700
 3659TIP3    H232393   1.642   4.363   6.562 -0.0569  1.2432 -1.2431
 3660TIP3   OH232394   2.788   1.350  13.861  0.0982  0.5092  0.1027
 3660TIP3    H132395   2.693   1.360  13.866 -0.1905 -1.4986 -0.5256
 3660TIP3    H232396   2.806   1.338  13.768  0.7261 -0.8842  0.3799
 3661TIP3   OH232397   4.133   2.396   0.900 -0.2157  0.5743  0.1405
 3661TIP3    H132398   4.220   2.355   0.897 -0.4299  0.0402  1.0317
 3661TIP3    H232399   4.072   2.323   0.885 -0.5647  0.7007  0.9227
 3662TIP3   OH232400   2.444   4.444  12.352 -0.3058  0.2184  0.2711
 3662TIP3    H132401   2.456   4.513  12.417 -0.1348  0.2288  0.2289
 3662TIP3    H232402   2.349   4.429  12.350 -0.3419  0.4434  0.2883
 3663TIP3   OH232403   3.972   0.867  11.601 -0.1893  0.1819 -0.1348
 3663TIP3    H132404   3.967   0.944  11.543 -1.0541 -0.5592 -1.0652
 3663TIP3    H232405   3.888   0.866  11.647 -0.2773 -0.3480 -0.3091
 3664TIP3   OH232406   4.413   6.750  12.881  0.2975 -0.2647 -0.1626
 3664TIP3    H132407   4.480   6.816  12.859  0.0232  0.1427  0.2035
 3664TIP3    H232408   4.367   6.788  12.956 -1.3601  0.1767 -1.3596
 3665TIP3   OH232409   0.835   4.708  15.335  0.4373 -0.0551  0.3739
 3665TIP3    H132410   0.892   4.632  15.323 -0.5065 -0.8639  0.8652
 3665TIP3    H232411   0.768   4.699  15.268  2.3839  2.4471 -2.1733
 3666TIP3   OH232412   3.252   2.428   0.355 -0.0165 -0.1020  0.1202
 3666TIP3    H132413   3.185   2.496   0.361 -1.2013 -1.2720  0.7598
 3666TIP3    H232414   3.310   2.458   0.285 -1.9024  0.3579 -1.3407
 3667TIP3   OH232415   5.575   3.704   5.083 -0.8352 -0.1232 -0.3443
 3667TIP3    H132416   5.651   3.732   5.032  0.1070  0.7080  1.4350
 3667TIP3    H232417   5.559   3.614   5.053  2.1229 -1.0973  0.5966
 3668TIP3   OH232418   0.839   4.986   4.074 -0.0055 -0.6068  0.0048
 3668TIP3    H132419   0.866   4.919   4.012  0.3802  0.0208 -0.5083
 3668TIP3    H232420   0.886   5.065   4.047 -0.8711  0.0135  0.2599
 3669TIP3   OH232421   6.600   0.019  11.706 -0.2176  0.7141  0.2409
 3669TIP3    H132422   6.616  -0.066  11.747 -0.5953  0.6857  0.3298
 3669TIP3    H232423   6.675   0.031  11.647  0.0547  0.5118  0.5359
 3670TIP3   OH232424   4.864   2.775  13.292  0.6742 -0.5574 -0.8615
 3670TIP3    H132425   4.776   2.742  13.310  1.2580 -2.3233 -1.0890
 3670TIP3    H232426   4.916   2.751  13.369  1.4576 -1.5653 -1.6665
 3671TIP3   OH232427   0.344   5.570   3.083 -0.3196  0.3330  0.3037
 3671TIP3    H132428   0.376   5.522   3.159  1.2903  1.3331  0.3063
 3671TIP3    H232429   0.315   5.503   3.022  1.7379 -0.6707  0.3479
 3672TIP3   OH232430   0.818   3.408  16.211 -0.1146 -0.1338  0.3550
 3672TIP3    H132431   0.757   3.334  16.211  1.2703 -1.4072  2.5370
 3672TIP3    H232432   0.889   3.380  16.269  0.8244  2.6467  0.7007
 3673TIP3   OH232433   3.123   4.018   5.140 -0.1141  0.3588 -0.3092
 3673TIP3    H132434   3.105   3.996   5.049  0.3081 -0.9068 -0.1186
 3673TIP3    H232435   3.217   4.002   5.150 -0.0554  1.0038  0.2136
 3674TIP3   OH232436   1.126   5.105  13.586 -0.1966 -0.0481 -0.3873
 3674TIP3    H132437   1.150   5.175  13.525 -0.3666  0.7908  0.4881
 3674TIP3    H232438   1.119   5.027  13.531  1.1636  0.3673 -1.2047
 3675TIP3   OH232439   5.975   1.943  12.698  0.1090 -0.0504  0.5829
 3675TIP3    H132440   5.931   1.914  12.618  0.8361  0.7899 -0.1464
 3675TIP3    H232441   6.067   1.948  12.674  0.1957  1.4043  1.0892
 3676TIP3   OH232442   0.448   4.452  13.502  0.2880  0.2547  0.0778
 3676TIP3    H132443   0.389   4.419  13.435 -0.4535  1.5604  0.0524
 3676TIP3    H232444   0.484   4.533  13.465  0.9453  0.2476  0.6855
 3677TIP3   OH232445   1.523   0.878   5.677  0.2552 -0.0843 -0.1482
 3677TIP3    H132446   1.552   0.883   5.768  0.0771  2.3796 -0.1652
 3677TIP3    H232447   1.518   0.969   5.648 -3.0796 -0.5691 -1.5701
 3678TIP3   OH232448   5.145   5.728  13.099 -0.2323  0.3655  0.0295
 3678TIP3    H132449   5.240   5.721  13.105 -0.0317  0.3382 -2.3014
 3678TIP3    H232450   5.122   5.798  13.160  1.6059  2.1970 -1.2484
 3679TIP3   OH232451   0.641   5.964  10.990 -0.4729  0.1987 -0.1396
 3679TIP3    H132452   0.651   5.876  10.954 -0.3650 -0.0609  0.4961
 3679TIP3    H232453   0.616   6.019  10.916 -1.1380 -0.4801 -0.4248
 3680TIP3   OH232454   2.003   0.296  11.388  0.6116 -0.1588  0.0462
 3680TIP3    H132455   1.997   0.239  11.311  0.9944 -1.2058  0.7714
 3680TIP3    H232456   1.979   0.383  11.355  1.0025 -0.5336 -1.3081
 3681TIP3   OH232457   3.525   0.631  14.503  0.0062  0.1072 -0.2093
 3681TIP3    H132458   3.526   0.726  14.489 -0.5756  0.2273  0.5152
 3681TIP3    H232459   3.548   0.620  14.595 -3.3144 -0.2302  0.6848
 3682TIP3   OH232460   3.684   0.188  13.797 -0.4172  0.0022  0.4383
 3682TIP3    H132461   3.615   0.250  13.822 -0.4410 -0.0060  0.3936
 3682TIP3    H232462   3.765   0.236  13.810 -0.2374 -0.8796  3.1799
 3683TIP3   OH232463   3.800   0.548   1.679 -0.4141 -0.3561  0.4229
 3683TIP3    H132464   3.846   0.464   1.685 -0.9764 -0.5734  2.2498
 3683TIP3    H232465   3.855   0.601   1.621  1.2430 -1.1720  1.1950
 3684TIP3   OH232466   0.831   5.106   5.381 -0.0746  0.5967  0.6598
 3684TIP3    H132467   0.813   5.031   5.324  1.0919 -0.3156  1.4647
 3684TIP3    H232468   0.857   5.068   5.464 -0.1990  1.9111  1.3323
 3685TIP3   OH232469   2.999   1.901   4.638 -0.3451 -0.7558  0.0640
 3685TIP3    H132470   2.978   1.883   4.546  0.0557  0.0345 -0.1942
 3685TIP3    H232471   2.998   1.996   4.645 -0.6333 -0.8161  0.9502
 3686TIP3   OH232472   2.776   0.252  12.728 -0.0222  0.6969  0.6236
 3686TIP3    H132473   2.865   0.229  12.754 -0.2487 -1.5412 -0.3534
 3686TIP3    H232474   2.787   0.309  12.653  0.6160  0.0304  0.1915
 3687TIP3   OH232475   1.986   0.935   2.684  0.0538  0.6099  0.0018
 3687TIP3    H132476   2.037   0.854   2.684  0.1006  0.6376 -0.3943
 3687TIP3    H232477   1.931   0.929   2.606 -0.4084  0.6686  0.3223
 3688TIP3   OH232478   2.078   5.277   5.139  0.2141 -0.2670  0.4509
 3688TIP3    H132479   2.117   5.359   5.109 -0.3543 -0.3867 -0.6507
 3688TIP3    H232480   2.004   5.262   5.080 -0.1756 -1.1647  1.1377
 3689TIP3   OH232481   6.192   0.629  14.357  0.5705  0.0300  0.0724
 3689TIP3    H132482   6.247   0.697  14.317  1.2466 -0.6210 -0.1285
 3689TIP3    H232483   6.116   0.623  14.300  1.2397 -0.4643 -0.7820
 3690TIP3   OH232484   1.608   0.836  14.296 -0.6665 -0.0897 -0.7067
 3690TIP3    H132485   1.590   0.896  14.223  0.0168  0.0104 -0.8043
 3690TIP3    H232486   1.614   0.750  14.255 -0.3586 -0.0437 -0.7629
 3691TIP3   OH232487   6.401   4.622  13.297 -0.1106  0.6059  0.0382
 3691TIP3    H132488   6.351   4.676  13.359  0.5161  2.8373 -1.2772
 3691TIP3    H232489   6.356   4.538  13.297 -2.1053  1.5926  1.0740
 3692TIP3   OH232490   3.113   5.156  11.290  0.1426 -0.0201 -0.5649
 3692TIP3    H132491   3.058   5.089  11.331 -0.0868  0.9633  0.8133
 3692TIP3    H232492   3.114   5.228  11.354  1.4473  0.7607 -1.4262
 3693TIP3   OH232493   5.730   1.563  13.367 -0.7486 -0.1914  0.5513
 3693TIP3    H132494   5.767   1.595  13.285  2.2275 -0.2144  1.7571
 3693TIP3    H232495   5.725   1.468  13.357 -2.7994 -0.0299 -0.4380
 3694TIP3   OH232496   6.076   5.225  13.394  0.0500  0.4637  0.6414
 3694TIP3    H132497   6.000   5.200  13.447 -0.4939  0.6837 -0.0088
 3694TIP3    H232498   6.110   5.142  13.361  0.3371  0.3333  1.2491
 3695TIP3   OH232499   3.324   3.643  15.871 -0.2000 -0.4834 -0.1125
 3695TIP3    H132500   3.374   3.624  15.791  1.2681  1.1822  0.3270
 3695TIP3    H232501   3.379   3.609  15.942 -0.7450 -0.5734  0.2688
 3696TIP3   OH232502   1.544   5.714  11.651  0.5050 -0.2472  0.1798
 3696TIP3    H132503   1.520   5.669  11.570 -0.2360  0.2088  0.1314
 3696TIP3    H232504   1.581   5.646  11.707 -0.4900 -0.8851  0.0722
 3697TIP3   OH232505   2.410   3.295   2.543  0.1923  1.2288  0.3530
 3697TIP3    H132506   2.422   3.388   2.523  0.8188  1.1090  0.1372
 3697TIP3    H232507   2.479   3.275   2.607 -0.0787  0.9653  0.5642
 3698TIP3   OH232508   4.832   3.102  16.735 -0.2524 -0.7846 -0.2736
 3698TIP3    H132509   4.795   3.160  16.802  0.0667 -1.2298  0.2873
 3698TIP3    H232510   4.840   3.158  16.658 -4.2476 -1.1655 -1.1898
 3699TIP3   OH232511   1.415   0.759  12.823 -0.5895 -0.5689  0.9764
 3699TIP3    H132512   1.500   0.791  12.852 -0.9918  1.0916  0.4237
 3699TIP3    H232513   1.378   0.830  12.771 -2.7486 -0.8328  2.0083
 3700TIP3   OH232514   4.183   0.715   3.640 -0.2291 -0.0254  0.3139
 3700TIP3    H132515   4.225   0.747   3.560  0.1044  0.7485  0.7893
 3700TIP3    H232516   4.229   0.760   3.711 -1.4878  0.4166  0.8753
 3701TIP3   OH232517   4.476   1.055  11.188  0.6567  0.3875 -0.6805
 3701TIP3    H132518   4.534   0.979  11.196 -0.1557 -0.2290 -0.5212
 3701TIP3    H232519   4.457   1.080  11.278 -0.6431 -0.4524 -0.7041
 3702TIP3   OH232520   2.734   5.355  13.550 -0.4033  1.0851 -0.0766
 3702TIP3    H132521   2.693   5.270  13.566 -2.2888  1.9667  0.0387
 3702TIP3    H232522   2.679   5.396  13.483  0.0848  2.4777  0.3462
 3703TIP3   OH232523   0.079   3.339   1.150  0.2412  0.0051  0.0472
 3703TIP3    H132524   0.160   3.288   1.163 -0.2695 -1.0480 -0.7189
 3703TIP3    H232525   0.109   3.419   1.107  0.9238 -0.2303  0.0584
 3704TIP3   OH232526   4.661   1.359  16.266  0.1383 -0.1523 -0.7289
 3704TIP3    H132527   4.569   1.383  16.259  0.6819  2.5219  0.3257
 3704TIP3    H232528   4.686   1.335  16.177 -0.9692  1.5681 -1.5512
 3705TIP3   OH232529   4.473   5.818  12.943  0.0660  0.3380 -0.3825
 3705TIP3    H132530   4.538   5.884  12.968  1.8067 -1.2818 -0.4324
 3705TIP3    H232531   4.456   5.770  13.024 -0.7590  0.4575 -0.4758
 3706TIP3   OH232532   0.971   0.912  16.034  0.1783  0.3778  0.1823
 3706TIP3    H132533   0.937   0.865  15.957 -0.8024  0.0431  0.8057
 3706TIP3    H232534   1.066   0.900  16.029  0.3294  1.7155 -1.8654
 3707TIP3   OH232535   4.007   1.134   3.605 -0.2880  0.9521  0.3989
 3707TIP3    H132536   4.063   1.057   3.617 -0.2609  1.1401  1.6529
 3707TIP3    H232537   3.922   1.098   3.581 -0.3969  0.4916  1.4288
 3708TIP3   OH232538   2.168   2.263   3.798 -0.1549  0.4146 -0.4625
 3708TIP3    H132539   2.121   2.266   3.714 -1.5085  1.3311  0.2963
 3708TIP3    H232540   2.165   2.170   3.823 -1.0799  0.3698 -0.7063
 3709TIP3   OH232541   5.172   0.574  15.970  0.0174 -0.0849 -0.3901
 3709TIP3    H132542   5.111   0.637  15.932  0.2512  0.9208  0.8339
 3709TIP3    H232543   5.217   0.536  15.895  0.8087  2.1712 -1.1406
 3710TIP3   OH232544   6.426   5.355   1.021 -0.2394 -0.2123  0.3349
 3710TIP3    H132545   6.473   5.392   0.946  0.6226  0.2916  1.0926
 3710TIP3    H232546   6.412   5.263   0.998 -2.9920  0.6258 -1.8557
 3711TIP3   OH232547   2.145   2.251   2.653  0.1670  0.0637 -0.1547
 3711TIP3    H132548   2.222   2.194   2.658 -0.3290 -0.5979  0.1908
 3711TIP3    H232549   2.152   2.307   2.730 -0.3433 -0.8540  0.5766
 3712TIP3   OH232550   6.629   5.438   2.375  0.3913  0.3995  0.1098
 3712TIP3    H132551   6.637   5.367   2.312 -0.4786 -0.3851  0.8416
 3712TIP3    H232552   6.689   5.414   2.446 -1.5377 -0.8321  1.4156
 3713TIP3   OH232553   6.757   3.254  15.585 -0.2648  0.5359  0.0410
 3713TIP3    H132554   6.788   3.341  15.611  0.4858  0.4985 -0.6752
 3713TIP3    H232555   6.792   3.195  15.653 -0.4352  0.7427  0.3090
 3714TIP3   OH232556   6.724   0.359   2.386  0.2235  0.2584 -0.0401
 3714TIP3    H132557   6.689   0.295   2.448 -1.3894 -0.5254 -1.6672
 3714TIP3    H232558   6.778   0.417   2.440  1.0240 -1.8989  1.6590
 3715TIP3   OH232559   2.296   5.965  14.911 -0.2319  0.0530  0.2124
 3715TIP3    H132560   2.323   5.960  14.819 -0.7759  1.1269 -0.0234
 3715TIP3    H232561   2.275   5.874  14.935  2.5827 -0.6871  0.1375
 3716TIP3   OH232562   5.533   3.543   1.948  0.2501  0.6503  0.6646
 3716TIP3    H132563   5.620   3.579   1.931 -0.2926  0.5814 -3.0892
 3716TIP3    H232564   5.550   3.455   1.980  1.5809  0.6376  0.0104
 3717TIP3   OH232565   1.152   5.778  13.401  0.2758  0.4358  0.2962
 3717TIP3    H132566   1.170   5.826  13.482 -0.1955  0.9290  0.1171
 3717TIP3    H232567   1.215   5.814  13.338  0.7781 -0.0921  0.4949
 3718TIP3   OH232568   1.405   6.653  11.834  0.4090 -0.3132  0.1317
 3718TIP3    H132569   1.440   6.728  11.786  1.0810  0.0657  1.1561
 3718TIP3    H232570   1.363   6.599  11.768 -0.5770  1.2331 -0.5644
 3719TIP3   OH232571   2.687   1.748  13.915  0.1472 -0.3508 -0.3854
 3719TIP3    H132572   2.782   1.757  13.921 -0.0453  1.2412  1.5785
 3719TIP3    H232573   2.669   1.742  13.821  2.1475 -0.1811 -0.8236
 3720TIP3   OH232574   0.226   2.244   4.596 -0.2076  0.6649  0.2057
 3720TIP3    H132575   0.179   2.203   4.668 -0.6768  0.1302 -0.3864
 3720TIP3    H232576   0.310   2.199   4.592  0.3651  1.5956  1.2433
 3721TIP3   OH232577   2.943   5.231  16.521  0.2658 -0.2869 -0.1484
 3721TIP3    H132578   3.030   5.249  16.559  0.5631 -0.4178 -0.7489
 3721TIP3    H232579   2.962   5.179  16.443 -0.4210 -1.0452  0.1891
 3722TIP3   OH232580   1.549   3.710   5.689  0.0161 -0.0184  0.1261
 3722TIP3    H132581   1.629   3.762   5.694  0.7493 -1.0528 -0.3440
 3722TIP3    H232582   1.562   3.639   5.752  0.9853 -2.1053 -2.2337
 3723TIP3   OH232583   3.383   1.004   3.018 -0.2930 -0.1056 -0.7608
 3723TIP3    H132584   3.365   0.936   2.953 -0.0685 -0.9701  0.0571
 3723TIP3    H232585   3.322   0.986   3.089 -0.8572  1.1149 -0.9074
 3724TIP3   OH232586   4.501   1.550  16.582 -0.1661  0.2517  0.2383
 3724TIP3    H132587   4.493   1.645  16.570 -2.2269 -0.0445 -1.2597
 3724TIP3    H232588   4.569   1.523  16.521  0.5317  0.7739  0.7746
 3725TIP3   OH232589   2.627   2.230  15.282  0.1289  0.0442 -0.3058
 3725TIP3    H132590   2.626   2.164  15.212 -1.9138 -0.1298 -0.1792
 3725TIP3    H232591   2.638   2.179  15.362 -2.4206 -0.3535 -0.1145
 3726TIP3   OH232592   2.148   5.071  13.514  0.1448  0.2707 -0.1142
 3726TIP3    H132593   2.125   5.130  13.586  1.5335 -0.6805  1.1634
 3726TIP3    H232594   2.156   4.985  13.555  0.2919 -0.4258 -1.5459
 3727TIP3   OH232595   4.698   2.529   1.886  0.0299 -0.1204  0.3086
 3727TIP3    H132596   4.686   2.434   1.879  1.3483 -0.2746 -0.2463
 3727TIP3    H232597   4.613   2.562   1.914 -0.1279 -1.5891  1.7284
 3728TIP3   OH232598   0.556   5.241  13.726 -0.0112  0.2378 -0.3963
 3728TIP3    H132599   0.470   5.224  13.685  0.4539  0.4000 -1.4688
 3728TIP3    H232600   0.537   5.305  13.795 -1.2764 -2.1038  1.5752
 3729TIP3   OH232601   1.554   4.958  16.643 -0.2096 -0.1328  0.7618
 3729TIP3    H132602   1.530   5.030  16.702 -0.1946 -1.3988  2.3776
 3729TIP3    H232603   1.472   4.937  16.598 -0.3161  0.6034  0.5881
 3730TIP3   OH232604   5.631   1.420  14.058  0.0284  0.3676 -0.0705
 3730TIP3    H132605   5.550   1.450  14.100  1.1784  1.9989  1.1236
 3730TIP3    H232606   5.657   1.343  14.108 -0.5721  0.0642 -0.2153
 3731TIP3   OH232607   1.811   3.116  14.864 -0.2422 -0.1012 -0.1501
 3731TIP3    H132608   1.893   3.123  14.913 -1.2399  0.2211  1.5226
 3731TIP3    H232609   1.743   3.141  14.926 -1.4179  2.2903 -2.2539
 3732TIP3   OH232610   5.148   6.412  11.088 -0.1095  0.4583 -0.3821
 3732TIP3    H132611   5.073   6.434  11.143 -0.4891  1.4632 -1.2758
 3732TIP3    H232612   5.131   6.455  11.005  0.5194 -0.9238 -1.2718
 3733TIP3   OH232613   3.023   0.043   0.684  0.3732 -0.2286 -0.2102
 3733TIP3    H132614   2.947   0.098   0.666  1.0073  1.7250  2.5723
 3733TIP3    H232615   2.997  -0.009   0.760  1.9747  0.9509  1.1991
 3734TIP3   OH232616   1.218   1.904  17.054  0.1325 -0.1630 -0.3932
 3734TIP3    H132617   1.302   1.919  17.097 -0.5966  0.4883  0.8415
 3734TIP3    H232618   1.154   1.952  17.106 -0.6318  1.8751 -2.9696
 3735TIP3   OH232619   5.423   4.645   5.526  0.0061  0.0424 -0.2208
 3735TIP3    H132620   5.475   4.641   5.606  0.7490  1.5942 -0.6078
 3735TIP3    H232621   5.476   4.600   5.460  0.3503  0.6248 -0.3432
 3736TIP3   OH232622   1.952   4.034  17.063  0.0241 -0.2710  0.0166
 3736TIP3    H132623   1.952   4.013  16.970  2.1818  0.4427 -0.2075
 3736TIP3    H232624   2.028   4.092  17.074 -0.6680  0.3214  2.0800
 3737TIP3   OH232625   4.662   3.786   1.450  0.0042  0.1656  0.3384
 3737TIP3    H132626   4.646   3.783   1.355 -2.2785 -3.8895  0.6050
 3737TIP3    H232627   4.575   3.796   1.488 -0.0371 -3.9469  1.8594
 3738TIP3   OH232628   6.056   0.300  12.525 -0.0567  0.3128  0.5598
 3738TIP3    H132629   5.988   0.338  12.469 -1.2430  0.5807  2.0980
 3738TIP3    H232630   6.054   0.206  12.505  0.4061  0.5557 -0.7039
 3739TIP3   OH232631   2.553   2.349   0.855 -0.0196 -0.0451 -0.6001
 3739TIP3    H132632   2.614   2.275   0.860 -0.2870 -0.4007 -2.0545
 3739TIP3    H232633   2.468   2.307   0.842  0.0873  0.5008 -3.6618
 3740TIP3   OH232634   4.175   2.192  12.609 -0.5270 -0.5593  0.0132
 3740TIP3    H132635   4.149   2.283  12.621 -0.6543 -0.6465  0.4126
 3740TIP3    H232636   4.120   2.161  12.537  1.4081  0.4473 -2.0231
 3741TIP3   OH232637   5.003   5.494  13.112 -0.2646 -0.0514 -0.0548
 3741TIP3    H132638   4.918   5.515  13.074  0.8699 -0.5551 -3.1421
 3741TIP3    H232639   5.050   5.578  13.112 -0.2586 -0.0521  0.3273
 3742TIP3   OH232640   4.905   5.099   1.645  0.5616  0.0646 -0.5562
 3742TIP3    H132641   4.818   5.133   1.623  0.7150  1.5472  0.9219
 3742TIP3    H232642   4.948   5.087   1.560 -0.1409  1.9500 -1.2292
 3743TIP3   OH232643   6.412   5.609  13.937  0.1816 -0.4369 -0.0188
 3743TIP3    H132644   6.367   5.524  13.935  0.5569 -0.6640  0.6696
 3743TIP3    H232645   6.343   5.673  13.954 -0.0467 -0.6561 -0.1237
 3744TIP3   OH232646   3.147   4.718   2.122 -0.0002  0.2804 -0.3511
 3744TIP3    H132647   3.221   4.769   2.088 -0.2136 -1.3323 -3.6695
 3744TIP3    H232648   3.180   4.679   2.203  1.9280  1.5490 -0.4591
 3745TIP3   OH232649   5.747   2.304  14.877 -0.4113 -0.2516  0.2129
 3745TIP3    H132650   5.842   2.298  14.872 -0.4480  0.0378 -2.7893
 3745TIP3    H232651   5.726   2.280  14.967  2.5263  0.4440  1.1865
 3746TIP3   OH232652   4.433   2.604   1.087  0.0204 -0.3598 -0.8134
 3746TIP3    H132653   4.382   2.685   1.083 -3.0910 -2.0168  1.1755
 3746TIP3    H232654   4.407   2.555   1.009 -2.8603 -1.8106  0.8894
 3747TIP3   OH232655   2.208   4.612  12.469  0.3047 -0.0121  0.0084
 3747TIP3    H132656   2.154   4.541  12.503  1.5166 -0.8480  0.2729
 3747TIP3    H232657   2.146   4.679  12.441 -1.0554 -2.1062 -2.4773
 3748TIP3   OH232658   2.393   0.978   1.342 -0.2161 -0.3031 -0.4297
 3748TIP3    H132659   2.419   1.060   1.299 -0.6644 -1.1675 -2.4378
 3748TIP3    H232660   2.310   0.955   1.302 -0.7077 -1.1388  1.0045
 3749TIP3   OH232661   6.307   4.015   5.328 -0.1346 -0.0251 -0.5749
 3749TIP3    H132662   6.232   4.072   5.311 -1.4851 -1.2342  0.9405
 3749TIP3    H232663   6.382   4.061   5.291 -1.3200  2.2032 -0.3623
 3750TIP3   OH232664   2.443   5.428  16.191  0.2073 -0.8568  0.1072
 3750TIP3    H132665   2.477   5.512  16.222 -0.4649  0.0426 -1.4667
 3750TIP3    H232666   2.502   5.403  16.119 -1.8202  0.3345 -2.1359
 3751TIP3   OH232667   1.615   2.517  15.461 -0.6822  0.1712 -0.4724
 3751TIP3    H132668   1.689   2.464  15.489 -0.4461  0.9170  0.3775
 3751TIP3    H232669   1.572   2.544  15.542 -1.3240  0.5332 -0.9179
 3752TIP3   OH232670   3.548   4.079   1.992  0.1371 -0.0285 -0.3482
 3752TIP3    H132671   3.456   4.107   1.998  0.8040  2.1480  0.7082
 3752TIP3    H232672   3.568   4.047   2.080  0.9078  1.4403  0.0508
 3753TIP3   OH232673   2.144   5.405  13.988 -0.3062 -0.2138  0.6582
 3753TIP3    H132674   2.152   5.456  14.069  0.0096  0.5824  0.1438
 3753TIP3    H232675   2.064   5.354  14.000 -1.1781  1.1127  0.8246
 3754TIP3   OH232676   4.686   5.085  11.394 -0.7922 -0.2453 -0.3034
 3754TIP3    H132677   4.772   5.082  11.352 -0.8054 -1.8935 -0.2792
 3754TIP3    H232678   4.705   5.102  11.486 -0.6292  1.1365 -0.5642
 3755TIP3   OH232679   1.073   5.711  15.879  0.0777  0.4954  0.3653
 3755TIP3    H132680   1.162   5.689  15.851  0.0648  0.1043  0.6233
 3755TIP3    H232681   1.028   5.735  15.798  0.0312 -0.6569  0.0372
 3756TIP3   OH232682   0.351   0.925  12.439  0.0202 -0.0086 -0.1291
 3756TIP3    H132683   0.287   0.875  12.490 -0.8219 -0.5208 -1.6224
 3756TIP3    H232684   0.345   1.014  12.475  0.3855 -0.5884  1.4896
 3757TIP3   OH232685   3.094   4.484   1.346  0.4182 -0.6334 -0.2303
 3757TIP3    H132686   3.053   4.517   1.425  1.3178 -0.5336  0.2069
 3757TIP3    H232687   3.173   4.538   1.336  1.0488 -1.5680 -0.4110
 3758TIP3   OH232688   6.809   1.983  10.878 -0.4310  0.8515 -0.0756
 3758TIP3    H132689   6.820   1.908  10.820 -0.9410 -1.5288  2.6879
 3758TIP3    H232690   6.733   2.030  10.843  0.6219  0.8647 -2.5570
 3759TIP3   OH232691   6.078   0.062   2.542 -0.8782  0.1314  0.5497
 3759TIP3    H132692   6.093   0.156   2.532  0.4119 -0.2773 -3.4355
 3759TIP3    H232693   5.983   0.052   2.540 -1.0088  1.2980 -1.2913
 3760TIP3   OH232694   5.872   4.371   4.731  0.0040  0.5962  0.4458
 3760TIP3    H132695   5.880   4.290   4.681 -1.0172  1.1568 -0.6794
 3760TIP3    H232696   5.793   4.412   4.697  0.9464  2.4664  0.4170
 3761TIP3   OH232697   1.454   5.092   5.690  0.1652 -0.0088 -0.8188
 3761TIP3    H132698   1.520   5.032   5.653  0.4405  0.8384 -1.7404
 3761TIP3    H232699   1.402   5.119   5.614 -0.7801 -0.0762 -0.2093
 3762TIP3   OH232700   4.712   2.407  16.745 -0.1310  0.5645 -0.3426
 3762TIP3    H132701   4.704   2.332  16.803  0.6007  0.7657  0.0310
 3762TIP3    H232702   4.798   2.444  16.765  0.9842 -0.4259 -2.8325
 3763TIP3   OH232703   0.133   2.391   3.845  0.5214  0.1315 -0.5050
 3763TIP3    H132704   0.128   2.343   3.928 -0.9609 -0.5094 -0.9269
 3763TIP3    H232705   0.044   2.386   3.810  0.8826  1.2903 -1.6411
 3764TIP3   OH232706   6.650   3.240  14.215 -0.3412 -0.1112  0.1264
 3764TIP3    H132707   6.559   3.257  14.192  0.1127  0.6143 -1.3198
 3764TIP3    H232708   6.663   3.284  14.299 -2.3149 -3.5551  2.4496
 3765TIP3   OH232709   6.603   1.654   5.837  0.3111  0.2216  0.1361
 3765TIP3    H132710   6.524   1.679   5.790  0.5331 -0.1063 -0.4225
 3765TIP3    H232711   6.661   1.729   5.829 -0.5144  1.0966  1.8908
 3766TIP3   OH232712   0.949   2.162  12.622  0.3508  0.1720 -0.2948
 3766TIP3    H132713   1.042   2.161  12.601  0.4947  0.9828  0.2535
 3766TIP3    H232714   0.909   2.208  12.549  0.5006  0.6005 -0.1109
 3767TIP3   OH232715   1.917   4.864  17.050  0.6915  0.3763  0.0451
 3767TIP3    H132716   1.973   4.941  17.057 -1.4100  2.5641 -3.8849
 3767TIP3    H232717   1.848   4.877  17.115  1.4776  0.7002  0.8269
 3768TIP3   OH232718   5.673   0.556  13.371 -0.2768 -0.0897 -0.5449
 3768TIP3    H132719   5.699   0.589  13.457 -2.9451 -1.5052  0.9455
 3768TIP3    H232720   5.642   0.467  13.388  0.2770 -0.9073 -3.2309
 3769TIP3   OH232721   4.363   5.983   6.078  0.0886  0.8276  0.0338
 3769TIP3    H132722   4.456   5.981   6.054 -0.0174  0.0620 -0.3366
 3769TIP3    H232723   4.332   5.894   6.062 -1.6193  1.9019 -3.4556
 3770TIP3   OH232724   3.028   6.307  15.173 -0.5598  0.1192  0.7845
 3770TIP3    H132725   2.950   6.358  15.148  0.4954  1.5909  0.3243
 3770TIP3    H232726   3.003   6.216  15.157 -0.9482  0.7362 -3.1609
 3771TIP3   OH232727   3.366   2.186   1.538  0.5846  0.2087  0.0821
 3771TIP3    H132728   3.404   2.214   1.455  0.3051  3.2595  0.8689
 3771TIP3    H232729   3.273   2.175   1.519  1.0431 -3.1429 -0.8531
 3772TIP3   OH232730   5.604   0.898   6.299 -0.9184 -0.0717 -0.0132
 3772TIP3    H132731   5.633   0.810   6.274  0.2023 -0.1412  1.4347
 3772TIP3    H232732   5.516   0.885   6.335 -0.5179 -0.7109  0.7754
 3773TIP3   OH232733   3.267   6.726   0.195 -0.5790  0.8776  0.7898
 3773TIP3    H132734   3.221   6.658   0.244 -2.7490  0.2619 -1.8212
 3773TIP3    H232735   3.358   6.696   0.191 -1.1441 -1.0466  1.1298
 3774TIP3   OH232736   5.286   6.741  15.657 -0.2073 -0.5940  0.0912
 3774TIP3    H132737   5.192   6.722  15.665 -0.4412 -0.1347 -1.3635
 3774TIP3    H232738   5.298   6.764  15.565  1.2352 -0.0587  0.3967
 3775TIP3   OH232739   5.162   4.046   2.145 -1.0986  0.0396  0.6885
 3775TIP3    H132740   5.155   4.001   2.061  1.1891  0.9161 -0.0586
 3775TIP3    H232741   5.189   3.978   2.207  0.1370 -0.0956  0.0396
 3776TIP3   OH232742   0.665   4.594  12.174  0.1707  0.2223 -0.2938
 3776TIP3    H132743   0.750   4.553  12.190 -0.6294 -1.0037  1.0883
 3776TIP3    H232744   0.612   4.524  12.135 -1.2482 -0.1865  2.1787
 3777TIP3   OH232745   3.318   4.616   1.303 -0.0467  0.0449 -0.1645
 3777TIP3    H132746   3.330   4.653   1.216 -1.6809 -0.3463 -0.6002
 3777TIP3    H232747   3.368   4.673   1.361 -1.6355  2.3751 -0.9292
 3778TIP3   OH232748   5.177   5.270   5.064  0.4301  0.9596 -0.6027
 3778TIP3    H132749   5.161   5.179   5.089  0.5823  1.3558  1.0581
 3778TIP3    H232750   5.102   5.294   5.009 -1.6019  0.8960  1.9348
 3779TIP3   OH232751   5.826   6.011  14.696  0.1869  0.1279 -0.4311
 3779TIP3    H132752   5.902   5.954  14.695 -0.2449 -0.4518 -0.5686
 3779TIP3    H232753   5.829   6.054  14.781 -0.8205 -1.9482  0.7329
 3780TIP3   OH232754   4.950   3.767   5.615 -0.1984 -0.2826 -0.2565
 3780TIP3    H132755   4.864   3.806   5.606  0.3169  0.9918  0.1091
 3780TIP3    H232756   4.970   3.773   5.708  1.2438  1.6180 -0.6348
 3781TIP3   OH232757   0.068   4.684  15.520 -0.1452 -0.1155 -0.1030
 3781TIP3    H132758   0.050   4.612  15.580 -0.0102 -0.0242  0.0465
 3781TIP3    H232759   0.046   4.649  15.434 -3.5076  0.7321  0.2414
 3782TIP3   OH232760   4.390   4.156  10.873 -0.3962  0.7374 -0.0863
 3782TIP3    H132761   4.370   4.090  10.940 -0.6440 -0.6851 -1.5125
 3782TIP3    H232762   4.478   4.133  10.843 -0.2018  1.5032 -0.1220
 3783TIP3   OH232763   3.174   0.196   6.275 -0.2870  0.2593 -0.3445
 3783TIP3    H132764   3.236   0.269   6.284 -0.2313  0.6898 -3.3828
 3783TIP3    H232765   3.127   0.214   6.194 -1.5521 -2.1875 -0.2387
 3784TIP3   OH232766   1.560   1.346  11.657  0.7328  0.1786 -0.0923
 3784TIP3    H132767   1.482   1.382  11.700  0.9728  0.2831  0.2646
 3784TIP3    H232768   1.591   1.417  11.600  0.8442  0.3125  0.1334
 3785TIP3   OH232769   6.079   0.153   5.308  0.0639 -0.5118 -0.5586
 3785TIP3    H132770   6.024   0.125   5.234 -0.6985 -1.3407  0.3000
 3785TIP3    H232771   6.164   0.114   5.290  0.0649 -0.1982 -1.3029
 3786TIP3   OH232772   5.600   0.748  16.540 -0.2415 -0.2478  0.4284
 3786TIP3    H132773   5.515   0.789  16.528  0.3674  0.6263 -1.2150
 3786TIP3    H232774   5.653   0.781  16.468  1.3903 -1.0540  1.2000
 3787TIP3   OH232775   6.351   4.177  11.048 -0.1699 -0.2879 -0.6166
 3787TIP3    H132776   6.441   4.157  11.074 -0.9491 -1.3976  1.4205
 3787TIP3    H232777   6.352   4.168  10.952  1.7380 -0.8470 -0.5950
 3788TIP3   OH232778   6.744   2.972  14.250  0.6257  0.0037  0.0149
 3788TIP3    H132779   6.830   2.993  14.213  0.2569 -0.3191 -1.0575
 3788TIP3    H232780   6.689   3.046  14.226  0.5197  0.0601  0.4264
 3789TIP3   OH232781   5.697   5.234  11.006 -0.5399  0.6154  0.2386
 3789TIP3    H132782   5.766   5.168  11.003 -0.1709  1.0348 -1.3639
 3789TIP3    H232783   5.677   5.243  11.099  0.1368 -0.9774  0.5780
 3790TIP3   OH232784   1.746   2.879   3.246 -0.0438 -0.8481 -0.5795
 3790TIP3    H132785   1.745   2.971   3.271 -2.0262 -0.4464 -1.8447
 3790TIP3    H232786   1.674   2.840   3.295 -0.1578 -1.3678 -1.1444
 3791TIP3   OH232787   3.347   2.863   4.658 -0.2519  0.4430  0.8172
 3791TIP3    H132788   3.411   2.867   4.729 -0.5054 -0.0776  1.0766
 3791TIP3    H232789   3.278   2.805   4.690 -0.7251  0.7832  0.4322
 3792TIP3   OH232790   2.327   1.736  16.718  0.2902  0.2079  0.0549
 3792TIP3    H132791   2.301   1.827  16.731 -3.0888 -0.5489 -0.5866
 3792TIP3    H232792   2.292   1.690  16.794  1.5107 -0.6934  0.1137
 3793TIP3   OH232793   3.911   1.426   0.885 -0.0444  0.2453  0.2432
 3793TIP3    H132794   4.006   1.427   0.871 -0.0193 -1.0489  0.2126
 3793TIP3    H232795   3.890   1.334   0.899 -1.1240  0.6593  1.4818
 3794TIP3   OH232796   0.868   0.156   3.539 -0.3507 -0.1412 -0.1598
 3794TIP3    H132797   0.829   0.218   3.601  1.6450  1.8654 -0.7825
 3794TIP3    H232798   0.793   0.117   3.495 -1.7342  0.9370  1.1157
 3795TIP3   OH232799   0.508   4.402  12.501  0.3528 -0.1738 -0.6715
 3795TIP3    H132800   0.494   4.497  12.504  1.2042 -0.0028 -1.5872
 3795TIP3    H232801   0.561   4.383  12.579 -0.3589  0.0005 -0.1406
 3796TIP3   OH232802   5.063   1.876   4.589 -0.6648 -0.0798  0.4638
 3796TIP3    H132803   4.992   1.876   4.654 -0.0305  1.4808  1.2050
 3796TIP3    H232804   5.134   1.828   4.631 -0.5164  0.2822  0.6322
 3797TIP3   OH232805   6.736   5.852  15.352 -0.7019 -0.1893  0.0431
 3797TIP3    H132806   6.820   5.858  15.397 -1.1365  1.2764  0.7028
 3797TIP3    H232807   6.671   5.866  15.421 -1.5600 -2.1780 -0.2841
 3798TIP3   OH232808   5.670   1.510   0.533 -0.4675  0.5815  0.9275
 3798TIP3    H132809   5.581   1.475   0.539  0.4034 -2.1034 -0.5356
 3798TIP3    H232810   5.694   1.501   0.441  1.9848 -0.6030  1.5987
 3799TIP3   OH232811   0.166   2.684   1.843 -0.4036 -0.1280 -0.0511
 3799TIP3    H132812   0.216   2.673   1.924 -1.2632  0.3610  0.5604
 3799TIP3    H232813   0.190   2.772   1.813 -0.4418 -0.1265 -0.0763
 3800TIP3   OH232814   6.019   1.541  14.357  0.4948 -0.2199  0.4505
 3800TIP3    H132815   6.057   1.465  14.402  0.8590 -1.0483 -1.1666
 3800TIP3    H232816   5.969   1.503  14.284 -0.4810  1.0432  0.4293
 3801TIP3   OH232817   0.305   6.129  12.430  0.0431 -0.3296  0.4132
 3801TIP3    H132818   0.228   6.180  12.404 -1.1652 -0.9859  2.5118
 3801TIP3    H232819   0.370   6.195  12.456 -0.3386  0.1927  0.0617
 3802TIP3   OH232820   2.009   0.786  12.729 -1.1638 -0.5874  0.6501
 3802TIP3    H132821   1.940   0.728  12.696 -0.5976  0.1732 -2.0342
 3802TIP3    H232822   2.001   0.866  12.676  1.0656 -0.0432  1.0427
 3803TIP3   OH232823   5.184   3.015  16.452 -0.3763  0.0130 -0.3325
 3803TIP3    H132824   5.247   3.081  16.480  0.1069 -0.1832 -0.9239
 3803TIP3    H232825   5.229   2.968  16.381 -1.2521 -0.0056 -0.8891
 3804TIP3   OH232826   4.693   4.510  15.746  0.6305 -0.3779 -0.1617
 3804TIP3    H132827   4.712   4.506  15.652 -1.3329 -0.2207 -0.5953
 3804TIP3    H232828   4.630   4.581  15.756  0.6729 -0.5031  1.2635
 3805TIP3   OH232829   5.562   3.635  11.880 -0.8131 -0.3121  0.4946
 3805TIP3    H132830   5.621   3.562  11.901  1.5719  1.2578 -0.4249
 3805TIP3    H232831   5.620   3.709  11.862 -3.1217  1.6841  0.7273
 3806TIP3   OH232832   0.664   3.700   4.349  0.7340  0.4900  0.0307
 3806TIP3    H132833   0.757   3.695   4.331  0.9834  0.9342  1.1089
 3806TIP3    H232834   0.651   3.787   4.388  0.1960 -0.2264  1.5428
 3807TIP3   OH232835   0.693   0.843  13.718 -0.0198 -0.0548 -0.1739
 3807TIP3    H132836   0.741   0.921  13.690 -0.6499  0.3640 -0.0884
 3807TIP3    H232837   0.664   0.802  13.637 -1.4538  0.9135 -0.1663
 3808TIP3   OH232838   0.533   5.912   0.630 -0.4085  0.3733 -0.0494
 3808TIP3    H132839   0.593   5.964   0.683  0.7190  0.2589 -1.1609
 3808TIP3    H232840   0.449   5.957   0.637  0.2617  1.6589 -0.0203
 3809TIP3   OH232841   0.726   3.734  16.755 -0.0201  0.1727 -0.0329
 3809TIP3    H132842   0.767   3.723  16.670 -0.9045  1.5340 -0.6792
 3809TIP3    H232843   0.632   3.740  16.735 -0.2761  0.0571  1.0813
 3810TIP3   OH232844   1.009   2.874   5.069  0.0164 -0.2039 -0.1616
 3810TIP3    H132845   0.958   2.818   5.010 -0.7532  2.0472 -1.7627
 3810TIP3    H232846   1.017   2.823   5.149 -0.8301 -2.4862 -1.4227
 3811TIP3   OH232847   1.193   4.214   3.913  0.2874  0.3519  0.0370
 3811TIP3    H132848   1.194   4.260   3.997  0.7365 -0.8049  0.6930
 3811TIP3    H232849   1.154   4.128   3.934 -1.5343  0.7891 -1.3507
 3812TIP3   OH232850   4.449   2.936  10.769  0.5640  0.4103  0.1567
 3812TIP3    H132851   4.430   2.868  10.705 -0.3160 -0.1638  1.0058
 3812TIP3    H232852   4.444   3.018  10.720 -1.3279  0.0645 -0.2743
 3813TIP3   OH232853   4.678   4.813   1.652  0.1353  0.1242  0.2551
 3813TIP3    H132854   4.679   4.891   1.708  0.2048 -0.0985  0.5636
 3813TIP3    H232855   4.733   4.837   1.578 -1.7071  1.2440 -0.8320
 3814TIP3   OH232856   0.437   4.682   3.149  0.2229 -0.1615 -0.3154
 3814TIP3    H132857   0.368   4.738   3.111  0.3557  0.0444 -0.2514
 3814TIP3    H232858   0.394   4.639   3.222  0.3280  0.4356  0.1084
 3815TIP3   OH232859   6.118   3.977  12.890 -0.4839  0.5720  0.0600
 3815TIP3    H132860   6.108   3.973  12.985  0.7512 -0.2189  0.1873
 3815TIP3    H232861   6.055   4.042  12.861 -1.0019  0.6916  1.4063
 3816TIP3   OH232862   3.533   1.380   2.222 -0.4261  0.1961  0.0385
 3816TIP3    H132863   3.478   1.444   2.176 -0.5242  0.3720  0.3932
 3816TIP3    H232864   3.607   1.431   2.254  1.7173 -0.5775 -3.1895
 3817TIP3   OH232865   2.459   0.262   1.348  0.2883  0.4058 -0.4721
 3817TIP3    H132866   2.371   0.224   1.344 -0.3755  1.8612 -0.5744
 3817TIP3    H232867   2.459   0.329   1.279  1.3323  0.6938 -0.2024
 3818TIP3   OH232868   5.927   0.804   5.948  0.5450  1.1138 -0.2681
 3818TIP3    H132869   5.887   0.789   6.033 -1.5580  2.2757 -0.9712
 3818TIP3    H232870   5.999   0.865   5.966  0.9029  0.3918  0.8202
 3819TIP3   OH232871   0.280   1.184  17.032  0.2175  0.3699  0.6285
 3819TIP3    H132872   0.224   1.216  16.961  0.4959  1.0814  0.7205
 3819TIP3    H232873   0.335   1.259  17.055 -0.6167  0.5036  2.3419
 3820TIP3   OH232874   1.676   1.052  12.686 -0.7138 -0.5577  0.6988
 3820TIP3    H132875   1.583   1.045  12.663 -0.9353  0.5425  1.2240
 3820TIP3    H232876   1.678   1.035  12.780 -0.6200  1.1532  1.0283
 3821TIP3   OH232877   5.306   3.886  13.856 -0.3692 -0.5472  0.6690
 3821TIP3    H132878   5.395   3.868  13.887  0.5759  2.8180  0.2856
 3821TIP3    H232879   5.275   3.801  13.823  2.0676 -2.1691  2.2215
 3822TIP3   OH232880   3.163   5.958   4.434  0.3372  0.0292  0.5630
 3822TIP3    H132881   3.139   6.023   4.368 -0.0739  0.3290  1.0013
 3822TIP3    H232882   3.258   5.948   4.424  0.4662  0.9831  0.7437
 3823TIP3   OH232883   6.503   3.275   1.534 -0.0127  0.0631 -0.1767
 3823TIP3    H132884   6.487   3.188   1.571 -0.8327 -0.0984 -0.8711
 3823TIP3    H232885   6.567   3.259   1.464  1.4600  0.3533  1.0691
 3824TIP3   OH232886   1.769   3.301   5.620  0.8873 -0.7361  0.2923
 3824TIP3    H132887   1.714   3.285   5.697  0.7478  0.8188  0.5637
 3824TIP3    H232888   1.711   3.347   5.559  0.9853 -1.9850 -0.7804
 3825TIP3   OH232889   2.667   5.166  13.133 -0.2510  0.3537 -0.1682
 3825TIP3    H132890   2.665   5.122  13.048 -1.1989  1.7615 -0.9290
 3825TIP3    H232891   2.596   5.230  13.128 -0.0033  0.8163  1.5140
 3826TIP3   OH232892   5.723   0.547  17.083 -0.1071 -0.0054 -0.2839
 3826TIP3    H132893   5.632   0.546  17.051 -0.7795  0.6315  1.4967
 3826TIP3    H232894   5.726   0.619  17.146  1.8983  0.5650 -0.9484
 3827TIP3   OH232895   4.248   0.646   4.446  0.2352  0.1431 -0.6037
 3827TIP3    H132896   4.257   0.554   4.473 -1.7060 -0.2747 -1.2592
 3827TIP3    H232897   4.338   0.679   4.446  0.9728 -1.7179 -0.2538
 3828TIP3   OH232898   4.292   1.186   2.765 -0.0782 -0.6074 -0.1770
 3828TIP3    H132899   4.366   1.167   2.708  1.1691 -0.5212  1.3205
 3828TIP3    H232900   4.224   1.220   2.707  1.5447  0.6118 -1.4606
 3829TIP3   OH232901   3.470   3.211  14.955  0.2927  0.1622  0.0012
 3829TIP3    H132902   3.521   3.200  15.035 -0.1365  0.2629  0.2937
 3829TIP3    H232903   3.499   3.295  14.920  0.8150 -0.0956 -0.2000
 3830TIP3   OH232904   4.884   6.000  15.761  0.0294 -0.0250  0.0518
 3830TIP3    H132905   4.843   5.917  15.737 -0.3436 -0.0344  0.7040
 3830TIP3    H232906   4.813   6.052  15.799 -0.2773  1.4616 -2.3235
 3831TIP3   OH232907   2.471   2.198  16.662 -0.0083  0.0596 -0.0664
 3831TIP3    H132908   2.486   2.198  16.756  2.0292 -1.1226 -0.3344
 3831TIP3    H232909   2.515   2.278  16.631  1.0827 -0.5830 -0.2193
 3832TIP3   OH232910   4.840   4.940  10.957  0.1958  0.0756 -0.9654
 3832TIP3    H132911   4.843   4.989  10.875  4.0567 -0.4351 -1.3302
 3832TIP3    H232912   4.909   4.874  10.947 -0.9839 -1.7111  1.7188
 3833TIP3   OH232913   1.182   1.640  14.935  0.0800  0.7630 -0.5512
 3833TIP3    H132914   1.152   1.724  14.968 -1.0307  0.1963 -0.0371
 3833TIP3    H232915   1.248   1.661  14.870 -0.8703  2.0638 -1.1284
 3834TIP3   OH232916   6.629   6.071  11.518 -0.2352 -0.3304 -0.0797
 3834TIP3    H132917   6.586   6.142  11.470 -0.5063 -0.7916 -0.5346
 3834TIP3    H232918   6.700   6.042  11.460  0.2997  0.0141  0.3984
 3835TIP3   OH232919   2.343   3.196  13.801 -0.1505  0.2250  0.1553
 3835TIP3    H132920   2.265   3.237  13.762  0.6552  2.6494  0.9168
 3835TIP3    H232921   2.380   3.144  13.730 -0.9184  1.3045 -1.0854
 3836TIP3   OH232922   0.006   4.068   2.933  0.2899  0.1345  0.4218
 3836TIP3    H132923   0.092   4.110   2.932 -0.0517  0.8484 -0.6764
 3836TIP3    H232924  -0.021   4.072   3.025  2.0526 -1.4736  1.0928
 3837TIP3   OH232925   5.602   0.977  14.665  0.0324 -0.5531 -0.0037
 3837TIP3    H132926   5.659   0.901  14.660 -0.0261 -0.5533 -0.7391
 3837TIP3    H232927   5.532   0.959  14.603 -0.2987 -0.1611  0.2503
 3838TIP3   OH232928   1.852   5.043  15.653  0.2609 -0.5568 -0.2834
 3838TIP3    H132929   1.825   5.023  15.743 -0.0116  0.3087 -0.1643
 3838TIP3    H232930   1.855   4.958  15.610 -0.1954 -0.9262  0.3867
 3839TIP3   OH232931   5.079   3.753  13.218 -0.2504  0.2888  0.0530
 3839TIP3    H132932   5.084   3.845  13.244  2.2313  0.0560  0.7116
 3839TIP3    H232933   5.078   3.755  13.122  1.5071  1.0262  0.0167
 3840TIP3   OH232934   5.838   0.358   1.931 -0.2503  0.1168 -0.1510
 3840TIP3    H132935   5.839   0.338   1.837 -0.8133 -2.0363  0.2524
 3840TIP3    H232936   5.781   0.292   1.969 -0.5407  1.3318  1.6624
 3841TIP3   OH232937   4.887   5.319  14.844 -0.2272  0.1540 -0.2137
 3841TIP3    H132938   4.840   5.278  14.918  1.5442  0.3494  1.0744
 3841TIP3    H232939   4.840   5.401  14.829 -1.4425 -0.5189 -0.2417
 3842TIP3   OH232940   1.598   2.028  16.493  0.5355  0.5223  0.0132
 3842TIP3    H132941   1.642   2.093  16.547  0.8276  2.0573 -1.9551
 3842TIP3    H232942   1.545   2.079  16.432  0.7211 -1.0589 -1.5586
 3843TIP3   OH232943   1.071   6.453   4.334  0.1426  0.3989  0.4380
 3843TIP3    H132944   1.071   6.432   4.240 -0.1329  1.7930  0.1043
 3843TIP3    H232945   1.094   6.546   4.337 -0.4082  0.5030  1.7296
 3844TIP3   OH232946   5.121   5.535   5.412 -0.3841  0.5970 -0.1691
 3844TIP3    H132947   5.091   5.444   5.415  0.0805  0.4611  1.2268
 3844TIP3    H232948   5.077   5.577   5.486  1.5354  0.7957  0.9309
 3845TIP3   OH232949   3.409   4.351   4.969 -0.2811  0.1936  0.0318
 3845TIP3    H132950   3.414   4.256   4.981 -0.6110  0.0851 -0.6656
 3845TIP3    H232951   3.317   4.372   4.982 -0.2076  0.4228  0.1878
 3846TIP3   OH232952   2.872   5.362  16.158  0.5309  0.7786 -0.3265
 3846TIP3    H132953   2.856   5.421  16.231 -0.0567  1.5546 -1.0773
 3846TIP3    H232954   2.930   5.295  16.195  1.8033  2.1877  0.3596
 3847TIP3   OH232955   5.771   4.158  13.351  0.0894  0.3229  0.0477
 3847TIP3    H132956   5.859   4.131  13.323 -0.6411 -0.9010 -1.1388
 3847TIP3    H232957   5.732   4.079  13.389 -1.1660  0.3258 -1.1561
 3848TIP3   OH232958   1.290   5.672   4.237  0.5179 -0.3126  0.2895
 3848TIP3    H132959   1.277   5.749   4.181 -0.7594 -0.1377  0.7979
 3848TIP3    H232960   1.376   5.685   4.275  0.3606  0.8267  0.2966
 3849TIP3   OH232961   6.439   3.704   5.108  0.0086  0.0787 -0.4508
 3849TIP3    H132962   6.372   3.753   5.060 -1.2191 -0.4728  0.6381
 3849TIP3    H232963   6.404   3.696   5.197  1.1024 -1.0399 -0.0930
 3850TIP3   OH232964   2.113   6.020  13.857 -0.8583  0.0909  0.5914
 3850TIP3    H132965   2.196   6.065  13.874 -0.7770 -0.5932  2.2983
 3850TIP3    H232966   2.109   6.011  13.762  0.8908  0.3949  0.4541
 3851TIP3   OH232967   4.044   1.500   4.553 -0.1354  0.1715  0.1707
 3851TIP3    H132968   3.953   1.475   4.539 -0.8026  2.7255 -0.6847
 3851TIP3    H232969   4.095   1.435   4.506 -1.6156 -0.3977 -0.6958
 3852TIP3   OH232970   1.810   5.885  14.093 -0.4961 -0.4066 -0.3629
 3852TIP3    H132971   1.800   5.958  14.154 -1.2218 -0.2801 -0.6141
 3852TIP3    H232972   1.768   5.916  14.012 -0.1595 -0.8274 -0.7060
 3853TIP3   OH232973   2.282   5.613  14.440  0.5790 -0.8327 -0.4597
 3853TIP3    H132974   2.372   5.591  14.463  0.6622 -0.2641 -0.2223
 3853TIP3    H232975   2.278   5.603  14.345  1.0615 -0.2854 -0.5443
 3854TIP3   OH232976   3.440   0.087   2.265  0.1034  0.2750 -0.0264
 3854TIP3    H132977   3.416   0.172   2.229  2.8587  0.1114 -2.6633
 3854TIP3    H232978   3.530   0.100   2.297  0.2391 -1.4305  0.3744
 3855TIP3   OH232979   3.598   2.458  15.076  0.4805 -0.3314  0.2330
 3855TIP3    H132980   3.623   2.385  15.133  0.2905 -0.5848  0.0007
 3855TIP3    H232981   3.503   2.449  15.068  0.4868 -0.1968  0.0149
 3856TIP3   OH232982   2.340   5.889  14.407  0.4270  0.6344 -0.6224
 3856TIP3    H132983   2.432   5.888  14.430  0.6814 -0.3680 -1.6173
 3856TIP3    H232984   2.312   5.798  14.410  0.0115  0.6604 -2.3306
 3857TIP3   OH232985   1.168   3.966   0.415  0.7186 -0.7186  0.1183
 3857TIP3    H132986   1.204   3.906   0.350  1.1465 -1.3634  0.9221
 3857TIP3    H232987   1.204   3.935   0.498  1.7627  1.2281  0.4663
 3858TIP3   OH232988   3.938   2.013  11.493 -0.2359 -0.7267 -0.8464
 3858TIP3    H132989   3.973   2.102  11.493  0.8458 -1.0387  1.6385
 3858TIP3    H232990   4.013   1.958  11.468  1.0027 -1.2935  3.2924
 3859TIP3   OH232991   5.956   3.630  15.297 -0.1606  0.1668 -0.4897
 3859TIP3    H132992   5.897   3.591  15.233  0.2553 -0.8725 -0.2597
 3859TIP3    H232993   6.034   3.655  15.247  0.6028 -1.5892 -0.2837
 3860TIP3   OH232994   6.652   3.384   1.277 -0.5998 -0.5452  0.0940
 3860TIP3    H132995   6.731   3.350   1.234 -0.6367  0.4269 -0.7629
 3860TIP3    H232996   6.685   3.430   1.354 -0.5189 -2.1305  1.0530
 3861TIP3   OH232997   4.382   4.473   2.510 -0.0777  0.0352 -0.0950
 3861TIP3    H132998   4.446   4.497   2.577 -0.2035 -0.8575  0.3683
 3861TIP3    H232999   4.381   4.547   2.450  0.5053  0.5815  0.5461
 3862TIP3   OH233000   1.016   4.445  14.828 -0.0491 -0.2121 -0.1497
 3862TIP3    H133001   0.937   4.392  14.828 -0.8348  0.9116  0.8855
 3862TIP3    H233002   1.042   4.451  14.736  0.1652 -2.4754 -0.2862
 3863TIP3   OH233003   1.654   4.155   5.513 -0.1062  0.1969 -0.4252
 3863TIP3    H133004   1.681   4.246   5.505 -0.3897  0.4780  1.2929
 3863TIP3    H233005   1.612   4.150   5.599  1.9708 -2.0392  0.5896
 3864TIP3   OH233006   4.771   2.914  10.907 -0.0092 -0.2335  0.6463
 3864TIP3    H133007   4.735   2.916  10.818 -0.2041 -0.8802  0.7042
 3864TIP3    H233008   4.861   2.885  10.895 -0.1360 -0.6496  0.6872
 3865TIP3   OH233009   3.591   1.142   5.075 -0.4044 -0.7388  0.8268
 3865TIP3    H133010   3.573   1.216   5.132 -2.1440 -1.0792  0.7871
 3865TIP3    H233011   3.673   1.105   5.108 -0.3950  0.2016  1.8984
 3866TIP3   OH233012   4.432   5.484   5.025  0.2866  0.1387 -0.5404
 3866TIP3    H133013   4.495   5.459   5.093  0.8636  1.1477 -0.6911
 3866TIP3    H233014   4.445   5.420   4.955 -0.9812 -1.5135  0.6561
 3867TIP3   OH233015   2.537   3.486   0.536 -0.3902 -0.0388 -0.4501
 3867TIP3    H133016   2.593   3.503   0.460  2.4318 -3.1709  0.6674
 3867TIP3    H233017   2.553   3.559   0.595  2.6693 -0.7656 -0.2221
 3868TIP3   OH233018   2.625   6.537  16.693  0.0064  0.0703 -0.3577
 3868TIP3    H133019   2.595   6.503  16.609  2.5664  0.6601 -1.6432
 3868TIP3    H233020   2.628   6.461  16.751 -1.8705 -0.3300 -0.7274
 3869TIP3   OH233021   0.683   6.096  12.937 -0.5115  0.9645 -0.3543
 3869TIP3    H133022   0.705   6.096  13.031 -0.6379  0.0454 -0.3131
 3869TIP3    H233023   0.749   6.152  12.898  0.7612 -0.1924  0.0409
 3870TIP3   OH233024   4.337   3.954  11.072  0.0942 -0.1348  0.7409
 3870TIP3    H133025   4.409   3.948  11.135  0.1045  0.6776  0.8169
 3870TIP3    H233026   4.344   3.874  11.020  1.1727  0.0298  0.6183
 3871TIP3   OH233027   3.102   4.417  13.945 -0.1981 -0.1928  0.7960
 3871TIP3    H133028   3.183   4.445  13.988 -0.0318  0.4347  0.1060
 3871TIP3    H233029   3.038   4.483  13.970  0.5195  1.7015 -1.9179
 3872TIP3   OH233030   4.133   6.539   3.416 -0.0381 -1.0693  0.0389
 3872TIP3    H133031   4.133   6.516   3.509 -1.2875 -1.6055 -0.0671
 3872TIP3    H233032   4.224   6.563   3.396  0.1401 -0.4710  1.4990
 3873TIP3   OH233033   6.413   0.867  15.961  0.0826 -0.2002 -0.1934
 3873TIP3    H133034   6.450   0.950  15.992 -1.2753  0.1378  0.6088
 3873TIP3    H233035   6.342   0.894  15.902 -2.3589 -0.6344  2.3268
 3874TIP3   OH233036   3.759   6.194  13.105  0.0713  0.1499  0.0456
 3874TIP3    H133037   3.733   6.281  13.134  2.1045  0.5608  0.7923
 3874TIP3    H233038   3.737   6.136  13.178 -1.0697  0.0431 -0.3610
 3875TIP3   OH233039   4.986   6.556   1.421 -0.4897 -0.3732 -0.3956
 3875TIP3    H133040   4.935   6.520   1.349 -0.4235 -2.2020  0.3956
 3875TIP3    H233041   4.921   6.580   1.487 -0.4929  0.3135 -0.6450
 3876TIP3   OH233042   0.866   4.894  15.045 -0.2927  0.8638 -0.3269
 3876TIP3    H133043   0.959   4.901  15.065 -0.4572  1.9449  0.1256
 3876TIP3    H233044   0.855   4.805  15.011  0.5546 -0.0158  1.5209
 3877TIP3   OH233045   5.551   6.533  13.219  0.1178 -0.3940 -0.8250
 3877TIP3    H133046   5.504   6.506  13.140 -1.4299 -0.9719  0.2473
 3877TIP3    H233047   5.643   6.519  13.198 -0.2162 -0.0043 -2.7129
 3878TIP3   OH233048   5.700   5.607   4.475 -0.7201 -0.5328 -0.2187
 3878TIP3    H133049   5.674   5.516   4.468  1.2715 -1.0467 -1.7620
 3878TIP3    H233050   5.644   5.653   4.412  1.0690 -1.4140 -2.5697
 3879TIP3   OH233051   2.517   3.731  12.601 -0.0697 -0.2306  0.2447
 3879TIP3    H133052   2.466   3.729  12.682  1.0570  0.1625  0.9870
 3879TIP3    H233053   2.602   3.695  12.626  0.8274  1.3849 -0.3598
 3880TIP3   OH233054   2.242   4.810   6.490  0.1726 -0.0161 -0.2145
 3880TIP3    H133055   2.300   4.742   6.524  0.3348  0.1679 -0.1197
 3880TIP3    H233056   2.172   4.817   6.555 -0.8753 -1.4130 -1.1496
 3881TIP3   OH233057   3.482   1.962  12.123 -0.1721 -0.7024 -0.2902
 3881TIP3    H133058   3.453   2.042  12.168  0.4934 -1.0553  0.8174
 3881TIP3    H233059   3.578   1.965  12.130 -0.0324 -0.6635 -1.9155
 3882TIP3   OH233060   2.785   0.564  12.953  0.1360 -0.4662 -1.0057
 3882TIP3    H133061   2.702   0.564  13.001 -0.3042  0.8090 -1.7143
 3882TIP3    H233062   2.830   0.485  12.983 -0.6884 -0.4045  0.4991
 3883TIP3   OH233063   4.510   4.954  13.855  0.2931 -0.6501  0.5756
 3883TIP3    H133064   4.583   5.007  13.824 -0.6517  0.7247  0.6081
 3883TIP3    H233065   4.493   4.892  13.785  1.5640 -1.0865  0.6262
 3884TIP3   OH233066   1.332   1.307   2.074  0.2136  0.3427  0.8697
 3884TIP3    H133067   1.307   1.393   2.039  2.0059  0.9639  1.0488
 3884TIP3    H233068   1.391   1.270   2.009  1.2911  0.2655  1.8607
 3885TIP3   OH233069   3.270   0.700  12.770 -0.6504  0.3012 -0.0544
 3885TIP3    H133070   3.342   0.646  12.737  0.0075  0.3096  1.3124
 3885TIP3    H233071   3.247   0.757  12.697  1.9651  1.5902  0.0104
 3886TIP3   OH233072   5.877   6.747  14.188  0.3085  0.5974  0.0608
 3886TIP3    H133073   5.800   6.804  14.191  1.4049  2.1421 -0.0915
 3886TIP3    H233074   5.845   6.666  14.147 -0.8722  1.7856 -1.4897
 3887TIP3   OH233075   5.839   4.496   0.992  0.1301  0.1119  0.0255
 3887TIP3    H133076   5.896   4.553   1.043  1.1492  0.0174 -0.9681
 3887TIP3    H233077   5.793   4.555   0.932 -0.7304  0.1742  0.7459
 3888TIP3   OH233078   4.300   0.642  11.324  0.5509  0.4360 -0.2747
 3888TIP3    H133079   4.327   0.648  11.232  0.6760  0.0404 -0.2623
 3888TIP3    H233080   4.376   0.674  11.373  0.4431  0.7543 -0.3136
 3889TIP3   OH233081   0.615   5.530   3.968  0.1403 -0.3841 -0.1474
 3889TIP3    H133082   0.541   5.583   3.997  1.2191  1.0581  0.0513
 3889TIP3    H233083   0.608   5.449   4.019  0.2917  0.8760  2.0065
 3890TIP3   OH233084   6.258   1.386  14.441  0.0461  0.1945  0.0940
 3890TIP3    H133085   6.292   1.471  14.468  1.1311  0.3441 -1.6283
 3890TIP3    H233086   6.333   1.327  14.446 -0.8184 -0.8334  1.7995
 3891TIP3   OH233087   0.634   4.980  13.748  0.4930  0.1065  0.1624
 3891TIP3    H133088   0.626   5.072  13.720  0.3846  0.0838  0.1169
 3891TIP3    H233089   0.714   4.978  13.800  0.2231  0.3397  0.5978
 3892TIP3   OH233090   2.711   5.415  11.556 -0.2815  0.2088 -0.3558
 3892TIP3    H133091   2.705   5.460  11.472 -1.4307  1.7433  0.5016
 3892TIP3    H233092   2.802   5.426  11.583 -0.0658  0.2653 -1.0763
 3893TIP3   OH233093   5.026   4.573  17.025  0.0259 -0.3120  0.0114
 3893TIP3    H133094   4.956   4.638  17.029  0.0195 -0.3269  0.1389
 3893TIP3    H233095   4.997   4.504  17.085  1.3653  0.8541  2.1112
 3894TIP3   OH233096   1.835   3.094   3.417  0.2625 -0.0612  0.8188
 3894TIP3    H133097   1.895   3.080   3.491  0.6373 -3.6415 -0.0099
 3894TIP3    H233098   1.760   3.139   3.456  0.5244 -1.6702  3.3938
 3895TIP3   OH233099   2.788   4.621  10.467 -0.2481  0.6138 -0.1190
 3895TIP3    H133100   2.753   4.649  10.551  0.1642 -1.4007  0.7744
 3895TIP3    H233101   2.718   4.641  10.404 -0.8658  1.4473  0.8111
 3896TIP3   OH233102   1.841   5.801  13.221  0.3087  0.0631  0.3059
 3896TIP3    H133103   1.861   5.764  13.307 -0.3151  1.1171  0.9300
 3896TIP3    H233104   1.745   5.799  13.216  0.2988  0.8163  0.0157
 3897TIP3   OH233105   2.788   0.325   1.843  0.3506  0.1981 -0.1804
 3897TIP3    H133106   2.750   0.380   1.774  0.2189 -0.8413 -0.9657
 3897TIP3    H233107   2.721   0.323   1.911  0.4158  1.1072 -0.0724
 3898TIP3   OH233108   4.618   0.478  13.950 -0.1024  0.2621 -0.4072
 3898TIP3    H133109   4.536   0.442  13.915 -0.8711  0.9496  0.6355
 3898TIP3    H233110   4.643   0.546  13.887  1.0817 -1.6545 -2.1109
 3899TIP3   OH233111   0.116   3.723  12.210 -0.0985  0.2822  0.1814
 3899TIP3    H133112   0.130   3.727  12.304  0.7543 -0.0720  0.0709
 3899TIP3    H233113   0.196   3.758  12.171 -0.0536 -0.4599 -0.4296
 3900TIP3   OH233114   6.645   1.171   1.107 -0.1865 -0.0239  0.3110
 3900TIP3    H133115   6.653   1.154   1.201  0.2343 -1.5391  0.0256
 3900TIP3    H233116   6.659   1.086   1.066 -0.8265  0.5268 -1.1143
 3901TIP3   OH233117   1.550   1.486   1.449  0.2746  0.6856  0.3466
 3901TIP3    H133118   1.568   1.394   1.466 -0.5579  0.4758  0.1680
 3901TIP3    H233119   1.478   1.508   1.509 -0.5637  0.7887 -0.6611
 3902TIP3   OH233120   4.634   2.535  16.222  0.0177  0.4964  0.6758
 3902TIP3    H133121   4.681   2.485  16.288  1.6027  0.5065 -0.4030
 3902TIP3    H233122   4.702   2.570  16.165 -1.3028 -0.2969 -1.5254
 3903TIP3   OH233123   5.291   4.420   4.623 -0.0360 -0.3617 -0.4364
 3903TIP3    H133124   5.219   4.467   4.665  2.0618  1.7771  1.1274
 3903TIP3    H233125   5.264   4.329   4.622 -2.1730  0.1599  1.3881
 3904TIP3   OH233126   4.112   0.561  15.011  0.0970 -0.1455  0.5125
 3904TIP3    H133127   4.153   0.599  15.089 -1.1939  1.5846  0.4057
 3904TIP3    H233128   4.039   0.510  15.045  0.3471 -0.5134  0.5034
 3905TIP3   OH233129   2.180   6.722   2.599  0.3711 -0.1955  0.8021
 3905TIP3    H133130   2.150   6.777   2.672 -0.3562 -0.6525  0.8576
 3905TIP3    H233131   2.248   6.666   2.638  1.0562  0.5956  0.7641
 3906TIP3   OH233132   1.547   1.988  10.905  0.2661 -0.3394  0.1024
 3906TIP3    H133133   1.538   1.956  10.815  2.1583  1.0443 -0.6525
 3906TIP3    H233134   1.480   2.056  10.913 -0.4256 -0.9962  0.0320
 3907TIP3   OH233135   6.679   0.860   1.781  0.5892 -0.1849 -0.2546
 3907TIP3    H133136   6.648   0.941   1.740  0.3372 -0.2950 -0.2789
 3907TIP3    H233137   6.606   0.799   1.772  0.8319 -0.4615 -0.3655
 3908TIP3   OH233138   0.837   3.188  14.328  0.2955 -0.2761  0.1766
 3908TIP3    H133139   0.817   3.267  14.279 -0.8298  0.2207  1.3983
 3908TIP3    H233140   0.892   3.218  14.401  0.5398 -0.7441  0.1884
 3909TIP3   OH233141   6.418   1.198   5.646 -0.1035  0.8205  0.2822
 3909TIP3    H133142   6.405   1.248   5.727  0.7360 -0.2454  1.0960
 3909TIP3    H233143   6.368   1.118   5.659 -0.2256  0.7756 -0.4056
 3910TIP3   OH233144   1.381   4.685  15.606  0.7962  0.1882  0.4634
 3910TIP3    H133145   1.321   4.668  15.534 -0.8709  0.9648  1.5951
 3910TIP3    H233146   1.450   4.620  15.596 -0.8420 -1.5277 -0.2362
 3911TIP3   OH233147   6.103   4.736  13.184  0.0072 -0.3730 -1.0403
 3911TIP3    H133148   6.063   4.653  13.208 -0.1739 -0.4954 -1.7379
 3911TIP3    H233149   6.071   4.753  13.096 -1.3969  1.3425 -0.2400
 3912TIP3   OH233150   0.279   5.895  14.229 -0.2346 -0.6442 -0.1271
 3912TIP3    H133151   0.316   5.809  14.212 -0.6099 -0.5994 -1.2286
 3912TIP3    H233152   0.193   5.893  14.187 -0.4880  0.0616  0.3485
 3913TIP3   OH233153   5.193   0.331  14.763 -0.2143  0.7626  0.1434
 3913TIP3    H133154   5.201   0.400  14.698 -0.8725  0.4020 -0.3236
 3913TIP3    H233155   5.282   0.319  14.796  0.7938 -1.1079 -2.8329
 3914TIP3   OH233156   1.958   1.928  12.691  0.1850  0.0763  0.2279
 3914TIP3    H133157   2.020   1.905  12.760 -1.1067 -1.5082  0.9164
 3914TIP3    H233158   1.947   2.023  12.699  1.9881  0.3056  0.4926
 3915TIP3   OH233159   0.963   3.345   1.368  0.1949  0.4687 -0.1646
 3915TIP3    H133160   0.917   3.388   1.439  0.1930 -0.6002  0.4993
 3915TIP3    H233161   0.913   3.265   1.351  1.7446 -0.7135  0.5740
 3916TIP3   OH233162   4.272   3.576  16.278  0.2773  0.3081 -0.4902
 3916TIP3    H133163   4.348   3.632  16.262  0.3166  0.1058 -1.0447
 3916TIP3    H233164   4.198   3.624  16.241  0.3696 -0.1665 -1.3144
 3917TIP3   OH233165   4.567   5.735  11.569 -0.1037 -0.0432  0.4984
 3917TIP3    H133166   4.581   5.829  11.572 -0.0448 -0.0750  2.2470
 3917TIP3    H233167   4.604   5.708  11.485  1.7302  1.2068  0.8485
 3918TIP3   OH233168   0.732   1.812   2.435 -0.1429  0.6830  0.0718
 3918TIP3    H133169   0.750   1.744   2.500  0.6556  2.7320  2.1979
 3918TIP3    H233170   0.641   1.838   2.452  0.1260  1.3509  0.5798
 3919TIP3   OH233171   2.539   1.216  13.841 -0.7070 -0.1839  0.3133
 3919TIP3    H133172   2.604   1.155  13.807 -1.2630  0.4673 -2.0595
 3919TIP3    H233173   2.458   1.164  13.846 -0.4787 -0.4766  1.4762
 3920TIP3   OH233174   0.736   1.746   5.877  0.1331 -0.4869 -0.3120
 3920TIP3    H133175   0.797   1.808   5.916 -0.0616  0.4483 -1.4637
 3920TIP3    H233176   0.652   1.766   5.918  0.2603 -0.6505  0.0334
 3921TIP3   OH233177   1.775   6.658  12.043  0.2440  0.5685  0.7582
 3921TIP3    H133178   1.826   6.670  11.963 -0.6735  2.1446  0.3648
 3921TIP3    H233179   1.814   6.582  12.085  0.7417 -0.3363 -1.1961
 3922TIP3   OH233180   6.130   0.989   6.005  0.3426 -0.1888  0.1718
 3922TIP3    H133181   6.152   1.047   6.078  1.2422  1.3875 -1.2669
 3922TIP3    H233182   6.214   0.953   5.977 -0.2739 -2.8556  1.4844
 3923TIP3   OH233183   2.550   6.359   3.062 -0.3454  0.8016  0.0012
 3923TIP3    H133184   2.621   6.409   3.102 -0.8205  2.2787 -0.8834
 3923TIP3    H233185   2.514   6.419   2.996 -0.2592 -1.1101 -1.9048
 3924TIP3   OH233186   0.240   3.722   0.306  0.0508 -0.1329 -0.5036
 3924TIP3    H133187   0.216   3.767   0.387  3.1749  0.7908  0.0486
 3924TIP3    H233188   0.215   3.782   0.236  0.2506  0.5113 -0.0241
 3925TIP3   OH233189   4.953   4.342   3.541 -0.1369  0.4211 -0.9546
 3925TIP3    H133190   4.914   4.420   3.502  0.7738  0.5903 -1.5508
 3925TIP3    H233191   4.893   4.318   3.612  0.1110  2.2760 -0.0702
 3926TIP3   OH233192   2.820   1.928  11.614  0.0403 -0.0585 -0.3580
 3926TIP3    H133193   2.901   1.879  11.601 -0.0335 -0.1722 -0.3902
 3926TIP3    H233194   2.801   1.967  11.528  0.2591  0.2753 -0.2588
 3927TIP3   OH233195   4.496   0.414   4.516  0.2498 -0.1472  0.3722
 3927TIP3    H133196   4.515   0.321   4.531 -1.3028 -0.3221  1.5757
 3927TIP3    H233197   4.458   0.444   4.598 -1.8911  0.8289 -0.8858
 3928TIP3   OH233198   6.619   3.032   1.176 -0.0750 -0.1274 -0.6591
 3928TIP3    H133199   6.648   3.070   1.259 -1.2673 -1.3940  0.3780
 3928TIP3    H233200   6.700   3.008   1.131  0.5795 -1.3853  1.0951
 3929TIP3   OH233201   1.713   0.113   3.878 -0.1921 -0.7925  0.0642
 3929TIP3    H133202   1.763   0.032   3.891 -0.7533 -0.9448  1.3399
 3929TIP3    H233203   1.757   0.177   3.934 -1.0285 -0.7651  0.6945
 3930TIP3   OH233204   2.812   0.080  14.124 -0.7844 -0.2310 -0.1674
 3930TIP3    H133205   2.766   0.098  14.042 -0.2984 -1.6137 -0.7915
 3930TIP3    H233206   2.861   0.160  14.142  0.0321 -0.2797 -1.9000
 3931TIP3   OH233207   3.271   3.056   5.071  0.6487  0.2774  0.2402
 3931TIP3    H133208   3.240   2.966   5.065  4.1278 -0.9332 -2.6869
 3931TIP3    H233209   3.336   3.055   5.142 -1.7020  1.5054  2.6104
 3932TIP3   OH233210   0.135   5.635  11.997 -0.0079 -0.2347 -0.1615
 3932TIP3    H133211   0.057   5.601  12.040 -0.0446  0.1792  0.0996
 3932TIP3    H233212   0.105   5.716  11.955  0.1104 -0.4508 -0.6660
 3933TIP3   OH233213   3.100   4.846   6.208 -0.2001 -0.6470  0.3077
 3933TIP3    H133214   3.038   4.901   6.256  1.9803 -0.1790  2.8895
 3933TIP3    H233215   3.046   4.794   6.149 -2.9002  0.4101  1.6646
 3934TIP3   OH233216   0.983   0.476   4.234  0.6465 -0.2980 -0.4907
 3934TIP3    H133217   0.989   0.391   4.190  2.6735 -0.7673  0.5342
 3934TIP3    H233218   0.985   0.540   4.163  0.2470 -1.0816 -1.2260
 3935TIP3   OH233219   0.939   6.088   2.560  0.0973 -0.2900  0.1434
 3935TIP3    H133220   0.864   6.051   2.605  0.8484  1.7539  3.4564
 3935TIP3    H233221   0.926   6.183   2.567  2.0723  0.1025 -0.8411
 3936TIP3   OH233222   1.333   4.877   2.198 -0.7855 -0.2619  0.1945
 3936TIP3    H133223   1.364   4.855   2.110  0.3412  1.4434  0.1284
 3936TIP3    H233224   1.241   4.903   2.185 -0.1831  1.5490 -0.7872
 3937TIP3   OH233225   4.525   0.673  13.727  0.1786 -0.2717 -0.3970
 3937TIP3    H133226   4.561   0.762  13.718 -0.4623 -0.0942 -1.2731
 3937TIP3    H233227   4.600   0.615  13.711  0.5103  0.0979 -0.2127
 3938TIP3   OH233228   2.075   1.066   5.942 -0.2964 -0.1877  0.3085
 3938TIP3    H133229   2.055   1.087   5.851 -0.8963  0.0970  0.5025
 3938TIP3    H233230   2.096   1.150   5.982 -1.2264 -0.1485  0.7237
 3939TIP3   OH233231   1.717   4.567   3.256  0.0117 -0.3812 -0.4458
 3939TIP3    H133232   1.748   4.642   3.307 -0.2130 -1.8150  1.9961
 3939TIP3    H233233   1.686   4.605   3.174  0.0261  2.1724  0.6166
 3940TIP3   OH233234   0.155   2.560   4.131 -0.2901  0.7226  0.1627
 3940TIP3    H133235   0.228   2.570   4.192  1.2402  0.7404 -1.5927
 3940TIP3    H233236   0.190   2.588   4.047 -1.7647 -1.0569 -1.1199
 3941TIP3   OH233237   4.218   2.746  14.853 -0.0245  0.1856 -0.0186
 3941TIP3    H133238   4.193   2.727  14.943  0.1216  0.9086  0.1772
 3941TIP3    H233239   4.137   2.732  14.802  0.3434 -2.1677 -0.0950
 3942TIP3   OH233240   5.888   5.252  12.654  0.6107 -0.1499  0.0144
 3942TIP3    H133241   5.842   5.172  12.679  1.5151 -0.5896  0.2874
 3942TIP3    H233242   5.907   5.295  12.738  2.8515 -1.1832  0.0946
 3943TIP3   OH233243   1.464   3.898   6.361 -0.0325  0.6496  0.5877
 3943TIP3    H133244   1.505   3.984   6.359  0.2275  0.5670 -1.8491
 3943TIP3    H233245   1.525   3.842   6.312 -1.0286 -0.5003  0.6089
 3944TIP3   OH233246   2.444   4.420  10.469 -0.6185  0.6823  0.2793
 3944TIP3    H133247   2.514   4.396  10.530 -0.6773  1.3102  0.6009
 3944TIP3    H233248   2.410   4.336  10.438  2.0408  0.2785 -1.9579
 3945TIP3   OH233249   1.489   1.777  11.109  0.0651 -0.2452 -0.0567
 3945TIP3    H133250   1.396   1.767  11.127  0.2929  1.3621  2.5347
 3945TIP3    H233251   1.494   1.855  11.053 -0.1076  0.1386  0.4572
 3946TIP3   OH233252   5.372   0.280  15.276 -0.1782 -0.5135 -0.0833
 3946TIP3    H133253   5.412   0.300  15.360 -0.6418  1.9766 -0.3560
 3946TIP3    H233254   5.280   0.266  15.296 -0.1785 -0.5353 -0.1003
 3947TIP3   OH233255   2.823   6.004  17.000  0.5762  0.6167  0.6215
 3947TIP3    H133256   2.884   5.975  17.067  0.3098  2.4610  1.7494
 3947TIP3    H233257   2.826   6.100  17.005 -1.0363  0.7778 -0.5399
 3948TIP3   OH233258   0.624   1.137  15.076  0.1564  0.7679 -0.4954
 3948TIP3    H133259   0.552   1.201  15.078 -0.1405  0.4240  0.2327
 3948TIP3    H233260   0.685   1.167  15.144 -0.6109 -0.4109  0.7772
 3949TIP3   OH233261   3.209   5.744   3.839  0.1520 -0.4649  0.3663
 3949TIP3    H133262   3.269   5.790   3.780  0.9155 -1.1348  0.6058
 3949TIP3    H233263   3.154   5.814   3.876 -0.2129 -0.0177 -0.9707
 3950TIP3   OH233264   3.743   6.539  14.522  0.2496  0.2761  0.2956
 3950TIP3    H133265   3.681   6.478  14.481  0.2226 -0.1887  1.0177
 3950TIP3    H233266   3.820   6.535  14.465 -0.7582  1.7651 -1.2990
 3951TIP3   OH233267   1.227   2.319  16.293  0.1476 -0.0713  0.6134
 3951TIP3    H133268   1.181   2.344  16.373  0.6991  0.2391  0.8385
 3951TIP3    H233269   1.279   2.396  16.270  0.5395 -0.4070  0.3579
 3952TIP3   OH233270   6.501   6.412   0.574  0.0039  0.1942 -0.5929
 3952TIP3    H133271   6.557   6.350   0.527 -0.1707 -0.9810  0.6862
 3952TIP3    H233272   6.488   6.371   0.660 -1.5544  1.1839 -0.3359
 3953TIP3   OH233273   4.655   2.821  11.149 -0.3350  0.5890 -0.9378
 3953TIP3    H133274   4.590   2.762  11.112  0.7518 -0.2922 -1.5020
 3953TIP3    H233275   4.696   2.862  11.073 -0.4201  1.3513 -0.5799
 3954TIP3   OH233276   2.532   0.477   6.552 -0.3465 -0.0068  0.5024
 3954TIP3    H133277   2.480   0.400   6.573 -1.5304  0.2339 -1.3384
 3954TIP3    H233278   2.469   0.540   6.518  0.8711  1.0590  0.1391
 3955TIP3   OH233279   6.304   3.505  12.160  0.0539  0.8668  0.0295
 3955TIP3    H133280   6.391   3.466  12.148 -0.2993  0.2141 -0.5446
 3955TIP3    H233281   6.267   3.505  12.072 -1.5628 -1.3995  0.6074
 3956TIP3   OH233282   5.118   0.609   2.809 -0.1843 -0.4260  0.1581
 3956TIP3    H133283   5.133   0.515   2.810  2.0837 -0.1936 -2.2098
 3956TIP3    H233284   5.138   0.637   2.898 -1.8722 -2.2308  1.1930
 3957TIP3   OH233285   3.825   5.335   3.200 -0.1026 -0.1127 -0.0746
 3957TIP3    H133286   3.900   5.372   3.247  0.8136  0.1252 -1.6363
 3957TIP3    H233287   3.788   5.410   3.153 -0.4834 -0.4973 -0.3894
 3958TIP3   OH233288   2.238   2.539  13.136  0.2294  0.4461  0.4918
 3958TIP3    H133289   2.253   2.579  13.050  0.6897  0.7709  0.7161
 3958TIP3    H233290   2.166   2.478  13.122  1.2528 -0.5871 -0.4582
 3959TIP3   OH233291   1.545   4.768   0.938 -0.1617 -0.3599 -0.0989
 3959TIP3    H133292   1.545   4.726   0.853  1.7583  0.5369 -0.6026
 3959TIP3    H233293   1.624   4.735   0.981  1.5763  2.7402 -0.6160
 3960TIP3   OH233294   4.143   0.586  10.407  0.0821 -0.7541  0.3240
 3960TIP3    H133295   4.109   0.672  10.384  0.9387 -0.5591 -0.2761
 3960TIP3    H233296   4.112   0.528  10.336  0.3583 -0.7246  0.1755
 3961TIP3   OH233297   0.263   0.080   4.144 -0.1566 -0.4450 -0.1291
 3961TIP3    H133298   0.348   0.121   4.155 -0.7963  0.6246  1.0598
 3961TIP3    H233299   0.227   0.122   4.066 -0.4821  0.7496  0.6323
 3962TIP3   OH233300   2.566   1.356   3.061  0.0547  0.3730  0.3947
 3962TIP3    H133301   2.604   1.275   3.027  0.9249  1.2982 -0.9429
 3962TIP3    H233302   2.505   1.384   2.993 -0.2765  0.8175  0.8656
 3963TIP3   OH233303   2.534   2.951   1.586  0.1157  0.4091  0.9665
 3963TIP3    H133304   2.563   2.876   1.638 -0.3816  0.2632  1.0309
 3963TIP3    H233305   2.474   2.999   1.643 -2.6777 -1.2606 -0.3725
 3964TIP3   OH233306   1.427   6.282  13.213  0.1650  0.3889 -0.5192
 3964TIP3    H133307   1.522   6.271  13.213 -0.0054 -1.5083  1.1810
 3964TIP3    H233308   1.393   6.200  13.179 -0.9051  0.4437  0.3697
 3965TIP3   OH233309   4.696   4.444  11.913 -0.0983 -0.0604  0.0866
 3965TIP3    H133310   4.739   4.492  11.984  1.4285 -1.4103  0.1297
 3965TIP3    H233311   4.757   4.452  11.839  0.4601 -2.2664  0.2317
 3966TIP3   OH233312   1.895   1.160   5.029 -0.2657  0.3216 -0.6550
 3966TIP3    H133313   1.968   1.115   5.072 -1.2538  1.2409  2.1884
 3966TIP3    H233314   1.824   1.096   5.029 -0.4733  0.5450 -0.2364
 3967TIP3   OH233315   5.949   0.339  15.124 -0.2611 -0.4656  0.3819
 3967TIP3    H133316   5.938   0.351  15.030  3.1019  0.9798  0.0517
 3967TIP3    H233317   5.972   0.247  15.135 -1.7872 -0.9255 -0.0061
 3968TIP3   OH233318   6.712   4.327  10.797  0.5241 -0.6516 -0.0666
 3968TIP3    H133319   6.695   4.239  10.764 -0.1007 -0.2574 -0.8364
 3968TIP3    H233320   6.700   4.321  10.892  1.1478 -1.5386 -0.0331
 3969TIP3   OH233321   2.099   6.637   4.641 -0.3887  0.2691  0.2683
 3969TIP3    H133322   2.133   6.553   4.673  1.3978  0.8834  0.1163
 3969TIP3    H233323   2.122   6.700   4.710  1.3009  1.1763 -1.0485
 3970TIP3   OH233324   1.099   1.226  12.637  0.2262 -0.2895  0.0241
 3970TIP3    H133325   1.189   1.248  12.661  0.1218  1.2605 -0.8850
 3970TIP3    H233326   1.045   1.288  12.688 -0.3662 -1.4173  0.8138
 3971TIP3   OH233327   2.671   6.760   0.856 -0.9930  0.2252  0.0399
 3971TIP3    H133328   2.636   6.796   0.938 -1.1734 -0.0214  0.0731
 3971TIP3    H233329   2.762   6.739   0.877 -0.9612  0.4206  0.0964
 3972TIP3   OH233330   0.389   2.402  15.605  0.3260  0.2779 -0.2204
 3972TIP3    H133331   0.485   2.404  15.611  0.3490 -1.7651  0.8345
 3972TIP3    H233332   0.371   2.375  15.515  0.8623 -2.1855  0.3437
 3973TIP3   OH233333   4.816   2.867   0.243 -0.0838  0.1181  0.1971
 3973TIP3    H133334   4.870   2.942   0.268  1.1645 -0.2410 -1.2938
 3973TIP3    H233335   4.879   2.797   0.223 -1.1902 -1.0275  0.5823
 3974TIP3   OH233336   3.233   4.400  10.998 -0.5921  0.7590 -0.0841
 3974TIP3    H133337   3.255   4.313  10.965 -3.0275 -0.5292  1.3507
 3974TIP3    H233338   3.155   4.426  10.949 -0.5788  1.6237  0.3241
 3975TIP3   OH233339   6.029   0.114  15.869  0.1990 -0.3658  0.6000
 3975TIP3    H133340   6.062   0.074  15.789 -0.0606  0.8474 -0.1342
 3975TIP3    H233341   5.940   0.142  15.847  0.3552  0.5642  1.0999
 3976TIP3   OH233342   2.353   6.377   0.330  0.3217  0.3101  0.4592
 3976TIP3    H133343   2.357   6.287   0.362  0.7369  0.0648 -0.2778
 3976TIP3    H233344   2.444   6.403   0.318  0.1780  0.3529 -0.6410
 3977TIP3   OH233345   1.993   5.256   2.550  0.5503 -0.8188 -0.1790
 3977TIP3    H133346   1.947   5.327   2.506 -2.6861 -1.9403  1.0786
 3977TIP3    H233347   2.044   5.299   2.619  2.0753  0.5362 -2.0406
 3978TIP3   OH233348   5.439   6.127  12.713 -0.1861 -0.4275  0.2471
 3978TIP3    H133349   5.511   6.168  12.665 -0.3859 -1.4969 -1.0270
 3978TIP3    H233350   5.468   6.037  12.728 -1.2281 -0.8655 -0.2657
 3979TIP3   OH233351   1.777   6.140  16.864 -0.1994 -0.3197 -0.1650
 3979TIP3    H133352   1.810   6.092  16.789  2.4347  0.3876  0.4292
 3979TIP3    H233353   1.716   6.080  16.907  2.0650 -2.7094 -0.1010
 3980TIP3   OH233354   4.933   2.750   6.421 -0.2464  0.1601  0.3127
 3980TIP3    H133355   5.002   2.781   6.362  0.0403  1.1543  1.1291
 3980TIP3    H233356   4.978   2.696   6.486 -0.3068  0.3614  0.5269
 3981TIP3   OH233357   5.049   4.194   3.864 -0.1823 -0.4619  0.0451
 3981TIP3    H133358   5.077   4.148   3.943  0.1808 -0.2166  0.0640
 3981TIP3    H233359   4.998   4.268   3.895 -1.4786 -1.3013 -0.0123
 3982TIP3   OH233360   0.002   3.887  13.967  0.2134 -0.5315  0.0397
 3982TIP3    H133361  -0.066   3.933  14.016  0.1891  0.4488 -0.8687
 3982TIP3    H233362  -0.013   3.795  13.985  0.3604 -0.1969  2.0640
 3983TIP3   OH233363   2.726   4.322   3.643  0.0354 -1.0340 -0.4621
 3983TIP3    H133364   2.799   4.262   3.627  0.1575 -1.0285  0.0528
 3983TIP3    H233365   2.651   4.265   3.660  0.6015 -1.1138  2.1800
 3984TIP3   OH233366   3.447   0.101  13.489  0.4936 -0.0128 -0.0037
 3984TIP3    H133367   3.483   0.189  13.487  2.4023 -0.7335 -1.9403
 3984TIP3    H233368   3.520   0.046  13.517 -0.5222 -1.0539  0.6973
 3985TIP3   OH233369   6.732   1.005  10.520  0.0198  0.1867 -0.1980
 3985TIP3    H133370   6.779   1.085  10.498  0.1000  0.3412  0.5202
 3985TIP3    H233371   6.643   1.034  10.540  0.0282  0.0856 -0.0154
 3986TIP3   OH233372   4.061   1.775  12.293 -0.6854 -0.3566  0.8585
 3986TIP3    H133373   4.090   1.687  12.268 -0.5273 -0.5401  1.6736
 3986TIP3    H233374   4.038   1.767  12.385 -1.3142  0.3031  0.7615
 3987TIP3   OH233375   6.263   1.696   3.795  0.3756  0.1387 -0.2809
 3987TIP3    H133376   6.354   1.672   3.814  0.4040  0.3079 -0.1937
 3987TIP3    H233377   6.220   1.695   3.880 -0.2674 -2.1455 -0.5658
 3988TIP3   OH233378   5.612   3.781  15.410  0.3084 -0.0684 -0.0607
 3988TIP3    H133379   5.599   3.811  15.319 -0.7917 -0.6243 -0.0989
 3988TIP3    H233380   5.535   3.728  15.429  0.3686  0.2983  1.3204
 3989TIP3   OH233381   1.098   4.909  13.373  0.0760 -0.3806  0.2302
 3989TIP3    H133382   1.089   4.936  13.281  0.3218  1.0478  0.5893
 3989TIP3    H233383   1.190   4.885  13.382  0.9114  2.5494  0.7812
 3990TIP3   OH233384   2.705   0.617  16.847 -0.4526  0.2169  0.2939
 3990TIP3    H133385   2.720   0.566  16.768 -1.8476  0.1551  0.0485
 3990TIP3    H233386   2.626   0.579  16.886 -0.9483  1.5408  0.6309
 3991TIP3   OH233387   4.932   5.204  11.345  0.3626 -0.0485  0.3404
 3991TIP3    H133388   4.860   5.259  11.313  1.3946  0.6421 -0.8440
 3991TIP3    H233389   5.011   5.256  11.331  1.1942 -1.1340  0.8337
 3992TIP3   OH233390   0.194   3.974  12.775  0.1151 -0.1517  0.0252
 3992TIP3    H133391   0.109   3.935  12.756  0.5031 -0.7138 -0.6087
 3992TIP3    H233392   0.180   4.069  12.766 -0.2366 -0.2853 -0.9838
 3993TIP3   OH233393   2.584   0.506   4.024  0.4458 -0.6193  0.9493
 3993TIP3    H133394   2.567   0.511   3.930  2.0813  1.6860  0.6955
 3993TIP3    H233395   2.499   0.483   4.062 -0.6899  0.1998 -0.9368
 3994TIP3   OH233396   2.055   1.876  10.682 -0.1010 -0.2551  0.6723
 3994TIP3    H133397   2.074   1.842  10.595 -1.1643 -0.2154  0.4089
 3994TIP3    H233398   2.011   1.960  10.666 -1.2872 -0.7503  1.1951
 3995TIP3   OH233399   2.631   2.106   1.676  0.2992 -0.1871  0.2965
 3995TIP3    H133400   2.546   2.148   1.693  1.0226  1.2500  0.5279
 3995TIP3    H233401   2.659   2.141   1.592  0.0094 -1.8268 -0.5336
 3996TIP3   OH233402   5.503   1.033   5.301  0.2004  0.0632 -0.2852
 3996TIP3    H133403   5.432   0.981   5.337 -0.3328  0.5926 -0.5542
 3996TIP3    H233404   5.465   1.076   5.224  0.3342  1.6238  0.4921
 3997TIP3   OH233405   3.688   5.368  14.792  0.2609  0.6132  0.5755
 3997TIP3    H133406   3.715   5.424  14.864  1.5032  1.3933 -0.4502
 3997TIP3    H233407   3.752   5.298  14.790  0.7800  1.0928 -0.3084
 3998TIP3   OH233408   4.724   3.282  16.365  0.2980  0.5687 -0.2379
 3998TIP3    H133409   4.662   3.276  16.438  0.4656  2.2317  0.0801
 3998TIP3    H233410   4.797   3.227  16.390 -1.1585 -1.7780 -0.7988
 3999TIP3   OH233411   4.536   4.738  16.870  0.1028  0.6206  0.0965
 3999TIP3    H133412   4.497   4.651  16.869  1.0712  0.1755  0.3794
 3999TIP3    H233413   4.493   4.783  16.943  0.3170  0.0418  0.5857
 4000TIP3   OH233414   1.245   1.614   0.963 -0.3668 -0.3554  0.0427
 4000TIP3    H133415   1.196   1.645   0.887 -1.2442 -1.4815  0.1060
 4000TIP3    H233416   1.262   1.692   1.015  0.4584  0.4676 -1.4083
 4001TIP3   OH233417   4.554   0.777  12.130  0.3873  0.0915 -0.0163
 4001TIP3    H133418   4.595   0.863  12.121  0.1283  0.2629  0.4456
 4001TIP3    H233419   4.538   0.768  12.224  0.6034 -0.5474 -0.0380
 4002TIP3   OH233420   1.076   1.838  12.501  1.0440  0.5031 -0.0511
 4002TIP3    H133421   1.035   1.852  12.415  0.6573  0.9352  0.1996
 4002TIP3    H233422   1.118   1.922  12.521  3.1489 -0.2992 -0.8659
 4003TIP3   OH233423   2.246   4.648   5.978  0.1532 -0.3051 -0.1056
 4003TIP3    H133424   2.278   4.562   6.005 -0.4621 -1.1705 -1.9338
 4003TIP3    H233425   2.239   4.698   6.059 -1.9740 -2.8109  1.4181
 4004TIP3   OH233426   0.419   0.427  10.730 -0.2920 -0.0694 -0.1659
 4004TIP3    H133427   0.354   0.495  10.747  0.1189  0.9038 -2.1989
 4004TIP3    H233428   0.492   0.449  10.787 -0.4149  0.8397 -0.3440
 4005TIP3   OH233429   5.486   0.217  16.536  0.0785  0.1888  0.3787
 4005TIP3    H133430   5.528   0.301  16.556 -1.2071  0.6715  1.2186
 4005TIP3    H233431   5.434   0.197  16.614 -2.3080  0.3185 -1.0491
 4006TIP3   OH233432   3.098   6.183  13.056 -0.1368 -0.3681 -0.3107
 4006TIP3    H133433   3.027   6.234  13.017  0.0772 -1.1252 -1.7587
 4006TIP3    H233434   3.067   6.093  13.054 -0.4398 -0.3610  2.0689
 4007TIP3   OH233435   2.931   1.654  14.296  0.1364 -0.2270 -0.7483
 4007TIP3    H133436   2.921   1.722  14.363  0.2012 -0.6904 -0.2645
 4007TIP3    H233437   2.960   1.702  14.218  2.2692  0.0510  0.1608
 4008TIP3   OH233438   2.128   3.167   2.774 -0.3084  0.0480 -0.2883
 4008TIP3    H133439   2.220   3.173   2.798 -0.3678  1.0995 -0.3046
 4008TIP3    H233440   2.127   3.112   2.695  0.0156 -2.3935  1.2897
 4009TIP3   OH233441   4.689   3.254  11.916 -0.1659  0.0005  0.0828
 4009TIP3    H133442   4.632   3.202  11.973 -1.6440 -0.4267 -1.6800
 4009TIP3    H233443   4.664   3.229  11.828  2.1959  0.4758 -0.7978
 4010TIP3   OH233444   4.797   6.152  11.258  0.2492 -0.4178 -0.2626
 4010TIP3    H133445   4.849   6.155  11.178  0.0632  0.2710 -0.3609
 4010TIP3    H233446   4.756   6.238  11.263 -0.5564 -0.8117  0.0319
 4011TIP3   OH233447   1.845   4.165  12.748 -0.0632  0.3305 -0.1418
 4011TIP3    H133448   1.870   4.249  12.710  0.2465 -0.9027 -2.8428
 4011TIP3    H233449   1.894   4.161  12.831 -2.2031  3.9423  1.5619
 4012TIP3   OH233450   2.196   0.797   2.045 -0.2908 -0.2029  0.2699
 4012TIP3    H133451   2.150   0.836   1.970  1.3103 -0.1911 -0.7604
 4012TIP3    H233452   2.257   0.735   2.006  1.3956  0.6245  1.4539
 4013TIP3   OH233453   5.232   5.690   2.082 -0.0028  0.2592 -0.1699
 4013TIP3    H133454   5.281   5.730   2.154  2.0430 -1.3358 -0.6056
 4013TIP3    H233455   5.241   5.596   2.095 -1.9955 -0.0872 -0.9593
 4014TIP3   OH233456   2.624   2.318   3.202 -0.5597  0.0607 -0.1968
 4014TIP3    H133457   2.578   2.236   3.185 -1.0802  0.6644 -1.8860
 4014TIP3    H233458   2.694   2.321   3.137 -0.3419  0.8172  0.0570
 4015TIP3   OH233459   6.425   5.819  15.856  0.3155  0.6055  0.2371
 4015TIP3    H133460   6.407   5.725  15.849  1.2024  0.2724  1.8662
 4015TIP3    H233461   6.356   5.861  15.804 -1.7325 -0.8204  1.6356
 4016TIP3   OH233462   2.695   3.858  14.574 -0.5498 -0.9392  0.4973
 4016TIP3    H133463   2.725   3.881  14.487  1.0336 -1.2080  0.9421
 4016TIP3    H233464   2.775   3.836  14.623 -1.2015  0.7702  2.4912
 4017TIP3   OH233465   1.275   4.365  14.354 -0.7116 -0.2049 -0.1408
 4017TIP3    H133466   1.326   4.357  14.274 -0.3886 -1.5412  0.1856
 4017TIP3    H233467   1.198   4.416  14.328 -0.4547 -0.3504 -1.2235
 4018TIP3   OH233468   1.595   5.313   1.809 -0.6687 -0.2337 -0.3652
 4018TIP3    H133469   1.515   5.319   1.757 -1.0623 -0.0261  0.2542
 4018TIP3    H233470   1.631   5.402   1.807  1.1577 -0.9073 -3.1037
 4019TIP3   OH233471   3.655   5.274   1.270 -0.3483  0.5034 -0.6829
 4019TIP3    H133472   3.716   5.266   1.343 -1.7112  0.6677  0.5113
 4019TIP3    H233473   3.617   5.186   1.260  0.1653  0.3618 -1.5223
 4020TIP3   OH233474   3.689   3.820   0.303  0.4937  0.1090 -0.7817
 4020TIP3    H133475   3.620   3.869   0.259 -0.8094 -1.2370 -0.2955
 4020TIP3    H233476   3.677   3.729   0.274  0.3182 -0.6233  1.4010
 4021TIP3   OH233477   1.838   2.858   3.600 -0.0952  0.3426 -0.1624
 4021TIP3    H133478   1.873   2.938   3.639 -1.1435  0.2974  0.9318
 4021TIP3    H233479   1.757   2.885   3.556  0.5327  0.2012 -1.4637
 4022TIP3   OH233480   1.551   6.557  16.203  0.0535 -0.0391 -0.1374
 4022TIP3    H133481   1.594   6.637  16.171  1.5187 -0.9898 -0.6592
 4022TIP3    H233482   1.470   6.588  16.243  0.7696  1.7510  0.0353
 4023TIP3   OH233483   3.857   3.782   2.800  0.4576 -0.7515  0.0845
 4023TIP3    H133484   3.806   3.863   2.796  1.2007 -0.3185 -2.2725
 4023TIP3    H233485   3.889   3.769   2.711  3.9608 -1.3378  1.2696
 4024TIP3   OH233486   6.271   0.747  11.640 -0.3537  0.3491 -0.2567
 4024TIP3    H133487   6.176   0.738  11.631 -0.2854 -2.4925  0.9805
 4024TIP3    H233488   6.284   0.770  11.732  0.1974 -1.9836  0.3130
 4025TIP3   OH233489   4.343   4.735  11.779 -0.0261 -0.5184  0.3713
 4025TIP3    H133490   4.401   4.664  11.803  0.4671 -0.3060 -0.1705
 4025TIP3    H233491   4.319   4.717  11.688  1.1280  0.6671 -0.2034
 4026TIP3   OH233492   0.519   3.821  15.444 -0.7732 -0.6479  0.2273
 4026TIP3    H133493   0.453   3.763  15.407 -1.0639 -0.1769 -0.0073
 4026TIP3    H233494   0.599   3.768  15.448 -0.8181 -0.8105 -0.7824
 4027TIP3   OH233495   6.148   1.531  13.712 -0.2172  0.2099 -0.1474
 4027TIP3    H133496   6.103   1.614  13.695  1.1522  0.7494 -1.3172
 4027TIP3    H233497   6.116   1.504  13.798  0.7070  2.9273  1.1708
 4028TIP3   OH233498   2.767   1.191  11.087  0.0394 -0.2506  1.0177
 4028TIP3    H133499   2.795   1.278  11.116 -0.0894 -0.1039  0.7097
 4028TIP3    H233500   2.719   1.155  11.162 -0.5864  0.2619  0.8784
 4029TIP3   OH233501   4.877   4.184  13.332  0.1089 -0.4150  0.4340
 4029TIP3    H133502   4.802   4.220  13.380 -1.3234 -0.6539 -1.5258
 4029TIP3    H233503   4.910   4.257  13.280  1.5150 -0.2158  1.5515
 4030TIP3   OH233504   5.663   5.093  13.887 -0.2215 -0.3656  0.5778
 4030TIP3    H133505   5.710   5.155  13.831  0.9777 -0.3421  1.5756
 4030TIP3    H233506   5.577   5.083  13.845  0.1072  0.8012 -0.4220
 4031TIP3   OH233507   6.156   0.219   2.897 -0.2787 -0.5009  0.5867
 4031TIP3    H133508   6.225   0.259   2.949  0.1522 -1.7971  1.0414
 4031TIP3    H233509   6.075   0.245   2.941 -0.0946  0.9476  0.1036
 4032TIP3   OH233510   4.449   0.784   1.792  0.0536  0.2029 -0.2938
 4032TIP3    H133511   4.427   0.704   1.839 -0.3883  0.8944  0.6914
 4032TIP3    H233512   4.544   0.784   1.788  0.0683 -0.1916  0.0160
 4033TIP3   OH233513   5.045   3.220  11.588 -0.2537  0.8437  0.1584
 4033TIP3    H133514   5.017   3.142  11.637 -0.8449  0.6566 -0.4622
 4033TIP3    H233515   5.140   3.214  11.586 -0.1717  1.1353  1.7504
 4034TIP3   OH233516   6.562   1.615  16.817  0.7347 -0.0728 -0.3334
 4034TIP3    H133517   6.570   1.607  16.722  1.5735 -1.3200 -0.1823
 4034TIP3    H233518   6.555   1.525  16.848  1.4450  0.2596  0.8626
 4035TIP3   OH233519   0.024   4.040  16.884 -0.1196  0.1643  0.2100
 4035TIP3    H133520   0.054   3.973  16.822 -2.0590 -0.0618 -0.5529
 4035TIP3    H233521  -0.030   4.099  16.832  0.2154  1.4021  1.2113
 4036TIP3   OH233522   6.120   4.631   4.195 -0.5863 -0.3152 -0.0769
 4036TIP3    H133523   6.147   4.566   4.130 -1.2464  0.2392 -0.9269
 4036TIP3    H233524   6.108   4.581   4.276 -0.0767 -1.0672 -0.4564
 4037TIP3   OH233525   4.011   2.491   6.076  0.4178  0.4011 -0.4200
 4037TIP3    H133526   3.952   2.546   6.129  0.7543 -0.9062  1.3996
 4037TIP3    H233527   4.099   2.518   6.101  0.5839 -0.3624 -0.1563
 4038TIP3   OH233528   3.922   5.981   4.312 -0.2597 -0.0310  0.1296
 4038TIP3    H133529   3.957   6.066   4.285 -0.7836  0.7076  1.6830
 4038TIP3    H233530   3.969   5.918   4.258  0.7936  1.1770 -0.4233
 4039TIP3   OH233531   5.859   1.783   3.842 -0.2262 -0.0914  0.1565
 4039TIP3    H133532   5.904   1.757   3.762 -0.8017  0.6175 -0.4174
 4039TIP3    H233533   5.773   1.741   3.835 -0.5490  0.5839  0.0362
 4040TIP3   OH233534   3.467   6.560  15.752 -0.6100  0.0436 -0.1556
 4040TIP3    H133535   3.381   6.600  15.742 -1.1326 -1.2456 -1.1372
 4040TIP3    H233536   3.452   6.467  15.737  0.6285 -0.4863  1.6215
 4041TIP3   OH233537   4.031   6.569   6.384 -0.0720  0.7785  0.2671
 4041TIP3    H133538   3.979   6.640   6.347 -2.3253 -0.8115  0.2019
 4041TIP3    H233539   4.063   6.604   6.467 -0.0252  2.2841 -0.3507
 4042TIP3   OH233540   0.420   1.951  12.482  0.6215  0.7816 -0.0706
 4042TIP3    H133541   0.411   1.893  12.558  0.1105  1.9923  0.8296
 4042TIP3    H233542   0.473   2.023  12.513  1.2105  0.8407 -1.1667
 4043TIP3   OH233543   2.047   5.541  11.300  0.7518 -0.1331  0.2415
 4043TIP3    H133544   2.092   5.555  11.217  1.3829 -0.4508  0.5216
 4043TIP3    H233545   2.092   5.467  11.340 -0.4186 -0.8680  0.2621
 4044TIP3   OH233546   6.773   2.057  12.686  0.3364  0.1334  0.1145
 4044TIP3    H133547   6.868   2.056  12.698  0.2174 -0.1822  1.1392
 4044TIP3    H233548   6.742   1.982  12.737 -0.4504  0.1541 -0.3273
 4045TIP3   OH233549   1.637   6.260   1.075 -0.2054 -0.1615 -0.1760
 4045TIP3    H133550   1.637   6.226   1.165  1.9182  0.9887  0.3167
 4045TIP3    H233551   1.647   6.182   1.020 -0.2601 -0.7628  0.6565
 4046TIP3   OH233552   2.997   0.622  13.623  0.4322 -0.5050 -0.2498
 4046TIP3    H133553   2.934   0.594  13.689 -0.3265  1.2702 -0.1804
 4046TIP3    H233554   2.994   0.554  13.556 -2.0293 -0.1426 -0.5627
 4047TIP3   OH233555   6.712   3.218   5.154 -0.1178 -0.0824  0.0247
 4047TIP3    H133556   6.653   3.267   5.211  1.8058  1.6505  0.6415
 4047TIP3    H233557   6.705   3.261   5.070  0.3099  0.1514  0.1106
 4048TIP3   OH233558   6.279   5.378   5.050  0.5691  0.3112  0.5540
 4048TIP3    H133559   6.250   5.342   4.966  0.6950 -1.3906  1.1872
 4048TIP3    H233560   6.224   5.454   5.065  0.4214  0.5254 -0.9759
 4049TIP3   OH233561   6.146   0.132   1.648  0.1371 -0.3096 -0.0796
 4049TIP3    H133562   6.134   0.038   1.659 -1.0792 -0.1218  0.2841
 4049TIP3    H233563   6.162   0.143   1.554 -1.5033 -0.7130 -0.4363
 4050TIP3   OH233564   1.310   4.447   2.810  0.3000 -0.2074  0.5694
 4050TIP3    H133565   1.286   4.362   2.848  0.0957  0.6766  2.5303
 4050TIP3    H233566   1.395   4.467   2.848  1.4046 -0.4940 -1.6013
 4051TIP3   OH233567   2.408   3.787   0.438 -0.2494 -0.1840  0.3054
 4051TIP3    H133568   2.365   3.771   0.522 -0.2033  3.6265  1.2132
 4051TIP3    H233569   2.474   3.854   0.456 -0.5339  1.1045 -2.7979
 4052TIP3   OH233570   5.171   3.539   1.692  0.9152  0.3088 -0.1463
 4052TIP3    H133571   5.258   3.499   1.694  0.7027 -0.2102  2.4975
 4052TIP3    H233572   5.126   3.495   1.620  1.8390 -1.7614  0.4631
 4053TIP3   OH233573   6.244   3.215  14.274  0.1571  0.1165 -0.0676
 4053TIP3    H133574   6.256   3.242  14.183 -1.4371 -0.3463 -0.4414
 4053TIP3    H233575   6.184   3.280  14.311  0.7765  0.2932  0.6575
 4054TIP3   OH233576   1.045   1.978   6.532  0.3788  0.5511  0.9482
 4054TIP3    H133577   0.989   2.042   6.576  0.1177 -0.4279  2.0887
 4054TIP3    H233578   1.133   1.997   6.565  0.7379  1.9658 -0.6990
 4055TIP3   OH233579   6.339   1.581   5.076  0.0751 -0.1917 -0.4636
 4055TIP3    H133580   6.306   1.659   5.120  0.5459 -0.5743  0.5946
 4055TIP3    H233581   6.434   1.586   5.088  0.0568 -1.2631  0.2026
 4056TIP3   OH233582   2.088   1.380   3.804  0.5024  0.1744  0.0190
 4056TIP3    H133583   2.051   1.466   3.825  1.2032  0.3637  0.4987
 4056TIP3    H233584   2.102   1.383   3.709 -1.2525 -0.1233 -0.2897
 4057TIP3   OH233585   6.587   1.982  15.278 -0.1087  0.0551 -0.0320
 4057TIP3    H133586   6.496   1.955  15.263 -0.0145  0.6028 -1.6848
 4057TIP3    H233587   6.589   2.008  15.371 -1.5187 -0.3885  0.1438
 4058TIP3   OH233588   2.451   4.001  14.592  0.1604  0.1919 -0.0802
 4058TIP3    H133589   2.517   3.932  14.595  0.4118  0.3384 -1.5350
 4058TIP3    H233590   2.420   4.009  14.682  0.5479 -1.4026  0.2157
 4059TIP3   OH233591   4.945   3.332   4.296 -0.3128  0.5603 -0.0803
 4059TIP3    H133592   5.009   3.267   4.326 -1.6846  0.2586  2.4189
 4059TIP3    H233593   4.879   3.280   4.250 -1.0693  0.2096  1.3440
 4060TIP3   OH233594   4.720   4.930   3.457 -0.0888  0.0133 -0.3086
 4060TIP3    H133595   4.758   4.856   3.505  0.2875 -0.5797 -1.4785
 4060TIP3    H233596   4.628   4.905   3.444  0.0134 -0.2272 -0.6129
 4061TIP3   OH233597   4.786   2.424   3.818  0.0575  0.2774 -0.8950
 4061TIP3    H133598   4.768   2.418   3.912  0.9858  0.3847 -0.6996
 4061TIP3    H233599   4.701   2.441   3.778 -0.2649  0.7567 -0.0218
 4062TIP3   OH233600   4.001   2.256  13.263 -0.0193 -0.0672  0.1209
 4062TIP3    H133601   3.942   2.328  13.240  2.1575  1.8392  0.1815
 4062TIP3    H233602   3.986   2.190  13.195 -1.5440  0.7339 -0.3750
 4063TIP3   OH233603   5.373   3.229   5.195 -0.0735  0.6813 -0.8252
 4063TIP3    H133604   5.371   3.321   5.169 -2.3108  0.5143 -1.4334
 4063TIP3    H233605   5.332   3.182   5.123  0.6246 -0.7676 -0.3233
 4064TIP3   OH233606   4.496   4.315  16.247 -0.2373  0.3974 -0.4419
 4064TIP3    H133607   4.462   4.290  16.161 -0.7018  0.2814 -0.2288
 4064TIP3    H233608   4.530   4.404  16.234 -1.9903  1.1296 -0.3168
 4065TIP3   OH233609   4.813   5.528  13.508 -0.4298  0.2938  0.4683
 4065TIP3    H133610   4.756   5.589  13.461 -1.0985  0.3678  1.3608
 4065TIP3    H233611   4.810   5.557  13.599 -0.7140 -1.0283  0.8997
 4066TIP3   OH233612   4.762   4.466  11.575  0.1427 -0.0232  0.3616
 4066TIP3    H133613   4.854   4.451  11.552 -0.0109  1.3493 -1.4063
 4066TIP3    H233614   4.718   4.475  11.490 -1.6872 -0.8666  1.1743
 4067TIP3   OH233615   1.184   2.866  12.860 -0.0594 -0.3331  0.3226
 4067TIP3    H133616   1.191   2.959  12.841 -1.1705 -0.0940  0.9666
 4067TIP3    H233617   1.274   2.835  12.864  0.3252  0.1173 -2.5863
 4068TIP3   OH233618   1.706   0.660  15.842  0.3562  0.2734  0.0933
 4068TIP3    H133619   1.726   0.573  15.877  2.7173  0.8256  0.3016
 4068TIP3    H233620   1.728   0.720  15.914 -1.5756  1.0657  0.0778
 4069TIP3   OH233621   2.476   4.108  15.320 -0.2036 -0.6354  0.1642
 4069TIP3    H133622   2.529   4.088  15.397 -0.9672 -0.0712  0.8579
 4069TIP3    H233623   2.499   4.198  15.298 -0.3484 -0.6297  0.0348
 4070TIP3   OH233624   2.617   5.677  11.214 -0.8519  0.2555  0.3318
 4070TIP3    H133625   2.572   5.596  11.189  0.7287 -0.2920 -0.8760
 4070TIP3    H233626   2.591   5.741  11.147  2.9371 -1.0618 -2.7606
 4071TIP3   OH233627   6.231   2.578  15.793 -0.3155  0.4886  0.1226
 4071TIP3    H133628   6.205   2.492  15.826  0.1097 -0.1467 -1.1015
 4071TIP3    H233629   6.318   2.593  15.829 -0.3471  0.3623  0.2522
 4072TIP3   OH233630   5.808   5.373  16.271 -0.2459  0.9328  0.5597
 4072TIP3    H133631   5.748   5.337  16.338  1.0628 -2.0213  0.3091
 4072TIP3    H233632   5.868   5.429  16.320 -1.1479  1.2323  1.3511
 4073TIP3   OH233633   2.712   6.323  13.925  0.0990 -0.5422  0.2491
 4073TIP3    H133634   2.624   6.316  13.889 -0.4226  0.2278  1.3076
 4073TIP3    H233635   2.704   6.292  14.015  0.9622 -0.7067  0.2772
 4074TIP3   OH233636   5.365   0.515  13.604  0.1973  0.1752  0.3388
 4074TIP3    H133637   5.346   0.533  13.696 -0.4548 -0.0743  0.2564
 4074TIP3    H233638   5.348   0.422  13.593 -1.6791  0.5756 -0.4945
 4075TIP3   OH233639   4.349   6.582  11.752 -0.0588 -0.0681  0.3404
 4075TIP3    H133640   4.316   6.510  11.806 -0.6198  1.9084  2.8396
 4075TIP3    H233641   4.272   6.615  11.707 -0.4364  0.8601  1.6144
 4076TIP3   OH233642   3.703   1.405  12.194  0.2933  1.0133  0.4378
 4076TIP3    H133643   3.775   1.346  12.172  0.5166  0.9757  1.2371
 4076TIP3    H233644   3.646   1.404  12.117  0.0769 -0.5696  0.5910
 4077TIP3   OH233645   1.139   6.239  13.181 -0.5058  0.1959  0.4883
 4077TIP3    H133646   1.152   6.166  13.121  0.8450  1.2918 -0.6149
 4077TIP3    H233647   1.223   6.251  13.224 -1.3118 -0.2364  2.2924
 4078TIP3   OH233648   3.856   1.063  14.147  0.0877  0.1192  0.0008
 4078TIP3    H133649   3.932   1.023  14.191  0.3502 -0.4613 -0.9312
 4078TIP3    H233650   3.875   1.053  14.053 -1.0016  0.2416 -0.2490
 4079TIP3   OH233651   4.002   2.062  14.060  0.0755 -0.3001  0.4085
 4079TIP3    H133652   3.944   2.137  14.073 -0.9802 -0.7394 -1.4836
 4079TIP3    H233653   3.998   2.015  14.144 -3.2954 -0.9365  0.0426
 4080TIP3   OH233654   3.344   5.936   1.957 -0.4860 -0.2504 -0.0147
 4080TIP3    H133655   3.312   5.879   1.887  1.9566  0.9617 -2.2912
 4080TIP3    H233656   3.278   6.004   1.965 -0.4135  0.0617 -1.7916
 4081TIP3   OH233657   3.123   0.746   3.457  0.0078  0.2896  0.5037
 4081TIP3    H133658   3.148   0.764   3.367  0.6413 -0.2980  0.5550
 4081TIP3    H233659   3.206   0.726   3.501 -0.5003 -1.3560  0.7610
 4082TIP3   OH233660   1.343   2.211   0.049  0.2023  0.0553  0.8110
 4082TIP3    H133661   1.402   2.143   0.017  1.7277  0.4362  2.6590
 4082TIP3    H233662   1.255   2.176   0.031  0.9533 -1.3136 -0.4150
 4083TIP3   OH233663   2.054   5.392  13.347  0.0707 -0.0025 -0.1379
 4083TIP3    H133664   1.974   5.339  13.345  0.7187 -1.0124 -0.1172
 4083TIP3    H233665   2.069   5.417  13.256 -0.5379  0.6283 -0.0749
 4084TIP3   OH233666   6.539   2.080  11.303 -0.1584 -0.3377 -0.2693
 4084TIP3    H133667   6.565   2.111  11.216 -0.3003  0.0536 -0.1734
 4084TIP3    H233668   6.446   2.102  11.310  0.1504  0.8223  0.4829
 4085TIP3   OH233669   3.935   3.273  15.601  0.1527  0.2489 -0.0117
 4085TIP3    H133670   3.990   3.251  15.676 -2.8791  1.1044  2.6923
 4085TIP3    H233671   3.900   3.189  15.571  2.9108 -0.3458 -1.9683
 4086TIP3   OH233672   2.290   2.508   0.553  0.4751 -0.3838  0.0664
 4086TIP3    H133673   2.209   2.513   0.501  1.0366 -2.7468 -1.1362
 4086TIP3    H233674   2.266   2.549   0.637 -1.5391  0.2161 -0.7259
 4087TIP3   OH233675   3.387   0.398   4.380 -0.2012  0.4825  0.2539
 4087TIP3    H133676   3.293   0.418   4.381  0.1911  2.6009  0.0343
 4087TIP3    H233677   3.414   0.405   4.471 -0.0104  1.4399  0.1443
 4088TIP3   OH233678   0.454   5.598  12.870  0.0767 -0.5932  1.1755
 4088TIP3    H133679   0.546   5.605  12.847 -0.2787 -1.2587 -0.6079
 4088TIP3    H233680   0.454   5.585  12.965  1.6968  1.2173  1.4986
 4089TIP3   OH233681   6.510   2.637  15.429 -0.0109 -0.1426  0.0665
 4089TIP3    H133682   6.569   2.562  15.432  0.6089  0.2193 -1.8685
 4089TIP3    H233683   6.561   2.710  15.464  0.5814  0.0638 -1.1539
 4090TIP3   OH233684   4.745   2.066   1.501 -0.7091 -0.0563  0.0062
 4090TIP3    H133685   4.837   2.061   1.476 -1.2165  0.3915 -2.2549
 4090TIP3    H233686   4.699   2.080   1.418 -2.8376 -0.4894  1.0429
 4091TIP3   OH233687   2.154   3.051   3.891  0.4062 -0.1396  0.0869
 4091TIP3    H133688   2.142   3.085   3.980  1.4396 -1.4089  0.7412
 4091TIP3    H233689   2.219   3.110   3.852 -1.1084  1.2979 -0.3651
 4092TIP3   OH233690   5.435   0.505   5.565 -0.0312  0.1712  0.5549
 4092TIP3    H133691   5.498   0.437   5.588  0.3161 -0.3738 -1.7713
 4092TIP3    H233692   5.479   0.587   5.588  1.7495 -0.1705 -1.3107
 4093TIP3   OH233693   3.141   6.460  16.863 -0.1933  0.2716  0.1330
 4093TIP3    H133694   3.217   6.408  16.836  0.0598  0.9211 -0.4339
 4093TIP3    H233695   3.154   6.473  16.957 -0.1452 -0.5007  0.2379
 4094TIP3   OH233696   0.964   2.311   5.651 -0.1642  0.0810  0.5787
 4094TIP3    H133697   0.991   2.297   5.560 -1.0861  0.9536  0.1491
 4094TIP3    H233698   0.896   2.245   5.665 -0.0006 -0.0738  0.6433
 4095TIP3   OH233699   6.811   4.238   3.450 -0.6332 -0.4059 -0.3294
 4095TIP3    H133700   6.761   4.216   3.529 -1.5503  0.7914 -0.5523
 4095TIP3    H233701   6.820   4.333   3.454 -0.8240 -0.3159 -1.7502
 4096TIP3   OH233702   1.148   5.963  14.410 -0.0605 -0.3187 -0.2584
 4096TIP3    H133703   1.167   5.999  14.323  0.3944 -0.4558 -0.2202
 4096TIP3    H233704   1.180   6.031  14.470  0.6015 -0.6863 -0.1878
 4097TIP3   OH233705   5.188   6.252   3.027 -0.8189 -0.6411  0.5779
 4097TIP3    H133706   5.195   6.157   3.024 -0.7353 -0.6196 -0.8698
 4097TIP3    H233707   5.260   6.282   2.971 -1.0869  0.2627  0.7058
 4098TIP3   OH233708   4.287   5.429  12.921  0.0328  0.1978  0.6845
 4098TIP3    H133709   4.241   5.512  12.906 -1.2426 -0.2254  1.9965
 4098TIP3    H233710   4.256   5.400  13.007 -0.9279 -2.5267 -0.4805
 4099TIP3   OH233711   0.629   0.386   0.967  0.1445  0.4258 -0.1453
 4099TIP3    H133712   0.594   0.306   1.006  1.0782  1.2521  2.6420
 4099TIP3    H233713   0.552   0.438   0.944 -0.4560 -0.6865 -0.6900
 4100TIP3   OH233714   5.147   4.778  16.698  0.4975  1.0452 -0.0177
 4100TIP3    H133715   5.170   4.762  16.789 -2.5386  3.8065  1.4608
 4100TIP3    H233716   5.073   4.720  16.681 -0.3599  2.0802  0.0756
 4101TIP3   OH233717   6.485   6.106  13.995  0.4239  0.0262 -1.0210
 4101TIP3    H133718   6.511   6.173  13.933  2.8642 -0.6266 -0.8258
 4101TIP3    H233719   6.506   6.143  14.081 -0.4977 -0.0785 -0.7342
 4102TIP3   OH233720   1.972   1.749   1.698 -0.8570  0.0525 -0.2077
 4102TIP3    H133721   1.878   1.733   1.709 -1.3044  2.0961 -0.5235
 4102TIP3    H233722   1.982   1.842   1.718  1.3387 -0.4060  1.1186
 4103TIP3   OH233723   3.922   4.979   4.123 -0.3422  0.7306 -0.1735
 4103TIP3    H133724   3.836   5.010   4.095 -0.4581 -0.2308 -0.9264
 4103TIP3    H233725   3.919   4.884   4.110  0.5535  0.5936  0.5585
 4104TIP3   OH233726   5.521   1.931  13.932 -0.3569 -0.0863 -0.0583
 4104TIP3    H133727   5.525   2.019  13.894  1.2393 -0.3695 -0.6410
 4104TIP3    H233728   5.602   1.924  13.983 -1.4117 -0.5164  1.6110
 4105TIP3   OH233729   4.880   0.124  15.151 -0.5576  0.3422 -1.1678
 4105TIP3    H133730   4.834   0.206  15.168 -0.5345  0.5656 -2.1465
 4105TIP3    H233731   4.872   0.075  15.233 -1.4700  0.8882 -0.9161
 4106TIP3   OH233732   4.400   2.458  13.480 -0.3283  0.1322  0.4700
 4106TIP3    H133733   4.382   2.395  13.409  3.4322 -0.1596 -0.4810
 4106TIP3    H233734   4.361   2.418  13.558 -0.2656 -2.1816 -0.5773
 4107TIP3   OH233735   3.428   3.646  11.064 -0.1120 -0.3876  0.1494
 4107TIP3    H133736   3.352   3.602  11.026 -0.3569 -0.6989  0.9706
 4107TIP3    H233737   3.496   3.638  10.998 -1.4878  2.1529 -1.7428
 4108TIP3   OH233738   5.111   2.774   0.849 -0.1367  0.2920 -0.1189
 4108TIP3    H133739   5.190   2.748   0.896  0.7128  1.1620 -0.9905
 4108TIP3    H233740   5.054   2.697   0.851  0.2640  0.0128  1.4760
 4109TIP3   OH233741   1.698   1.892   3.498 -0.5596  0.1102  0.1093
 4109TIP3    H133742   1.683   1.908   3.591 -1.0792 -0.0060  0.0468
 4109TIP3    H233743   1.715   1.978   3.461 -0.0102  0.1194  0.3676
 4110TIP3   OH233744   5.494   2.039  13.335  0.6551 -0.2965 -0.2014
 4110TIP3    H133745   5.565   1.982  13.304  0.1154 -0.9267 -0.3167
 4110TIP3    H233746   5.494   2.027  13.430  1.4171  0.5737 -0.0744
 4111TIP3   OH233747   5.876   3.139  11.693  0.2606 -0.0922 -0.4846
 4111TIP3    H133748   5.971   3.138  11.681  0.6199 -0.9227  1.8419
 4111TIP3    H233749   5.845   3.066  11.639  1.1674 -0.8348 -0.0488
 4112TIP3   OH233750   0.747   2.993   4.941 -0.0575  0.5376  0.6608
 4112TIP3    H133751   0.783   2.910   4.910 -0.8126 -0.1324  1.5070
 4112TIP3    H233752   0.787   3.059   4.885  0.2186 -0.4328 -0.3191
 4113TIP3   OH233753   2.538   1.886  13.234 -0.2000  0.2134  0.6182
 4113TIP3    H133754   2.547   1.792  13.224 -0.5493  0.1219  1.1222
 4113TIP3    H233755   2.486   1.914  13.159  1.9043  0.3656 -0.8602
 4114TIP3   OH233756   4.439   6.501  13.829 -0.1189 -0.1292  0.1508
 4114TIP3    H133757   4.480   6.497  13.743 -1.2874 -0.5603 -0.4168
 4114TIP3    H233758   4.345   6.505  13.810 -0.8722 -5.0408  1.2984
 4115TIP3   OH233759   1.597   3.970  16.102  0.4290  0.0806 -0.5468
 4115TIP3    H133760   1.592   3.965  16.007  0.5448  0.9140 -0.6024
 4115TIP3    H233761   1.510   4.000  16.129  0.6987  0.8222 -0.4737
 4116TIP3   OH233762   3.394   4.082  16.496  0.1296  0.0633 -0.0665
 4116TIP3    H133763   3.427   4.164  16.534  1.0908 -1.0351  1.5985
 4116TIP3    H233764   3.302   4.100  16.478  0.4532  1.6921 -0.3058
 4117TIP3   OH233765   2.453   5.685  16.990 -0.1708  0.3921 -0.1308
 4117TIP3    H133766   2.450   5.603  17.039  0.1446  0.2192 -0.4070
 4117TIP3    H233767   2.526   5.675  16.929 -0.3848  0.7202 -0.4434
 4118TIP3   OH233768   3.393   4.085   4.995  0.0743  0.3706 -0.2773
 4118TIP3    H133769   3.335   4.055   4.925 -1.0706  1.2682  0.2529
 4118TIP3    H233770   3.443   4.007   5.020  0.0678 -0.0987 -1.6664
 4119TIP3   OH233771   5.735   1.459  14.738 -0.2405 -0.5868 -0.4577
 4119TIP3    H133772   5.770   1.495  14.657 -1.5688  0.3883 -0.6214
 4119TIP3    H233773   5.683   1.383  14.711  0.3930 -1.0724 -0.3622
 4120TIP3   OH233774   2.717   6.493   5.017 -1.2677 -0.3793  0.0876
 4120TIP3    H133775   2.783   6.526   5.078 -0.2470  1.5648 -1.9436
 4120TIP3    H233776   2.662   6.436   5.070  2.2319 -2.4427  1.8147
 4121TIP3   OH233777   2.932   5.687  13.475 -0.3517 -1.0015  0.5683
 4121TIP3    H133778   2.873   5.647  13.538 -1.2912 -0.3995  0.1025
 4121TIP3    H233779   2.958   5.615  13.418 -1.8430 -1.0513 -0.1224
 4122TIP3   OH233780   2.061   3.710  15.415 -0.2032  0.5546  0.3698
 4122TIP3    H133781   2.104   3.626  15.396 -1.4393 -0.6839  2.5859
 4122TIP3    H233782   2.129   3.775  15.403  1.5806 -1.0650  1.2153
 4123TIP3   OH233783   6.682   6.070   4.859 -0.2642  0.5089 -0.1030
 4123TIP3    H133784   6.642   5.985   4.839  1.0621 -0.0882 -0.3435
 4123TIP3    H233785   6.617   6.115   4.912  0.1472 -1.8589  2.7178
 4124TIP3   OH233786   3.435   3.068  11.306  0.7896 -0.0577  0.1024
 4124TIP3    H133787   3.487   3.076  11.226 -0.1305 -0.1775 -0.5229
 4124TIP3    H233788   3.374   2.997  11.289  0.1660  0.3199  0.6691
 4125TIP3   OH233789   4.000   0.534  14.726 -0.1704 -0.1908  0.4882
 4125TIP3    H133790   3.935   0.482  14.677  0.9661 -1.5949  0.3865
 4125TIP3    H233791   4.013   0.485  14.807  0.3076  0.4133  0.7837
 4126TIP3   OH233792   4.779   5.748  15.676  0.0384 -0.0975 -1.2158
 4126TIP3    H133793   4.862   5.716  15.640  0.2225 -1.0262 -0.0576
 4126TIP3    H233794   4.769   5.699  15.758 -1.3648  0.4359 -1.0456
 4127TIP3   OH233795   5.657   4.462  14.895 -0.7878  0.0704  0.3295
 4127TIP3    H133796   5.624   4.534  14.841 -1.8137 -0.4137  0.2883
 4127TIP3    H233797   5.662   4.497  14.983  0.7929  0.8357 -0.0299
 4128TIP3   OH233798   3.868   3.350   0.676 -0.0385  0.1268 -0.2712
 4128TIP3    H133799   3.929   3.336   0.605  0.1005 -0.9712  0.0474
 4128TIP3    H233800   3.828   3.264   0.691  0.7261  0.0528  1.6744
 4129TIP3   OH233801   3.084   4.276   4.250  0.2181  0.5826 -0.0127
 4129TIP3    H133802   3.131   4.207   4.296 -0.9462 -0.7908 -0.8083
 4129TIP3    H233803   3.141   4.299   4.177  0.0699 -0.4348 -0.4626
 4130TIP3   OH233804   6.025   3.097   4.517 -0.1864 -0.1067 -0.4854
 4130TIP3    H133805   6.112   3.084   4.553  0.5553  1.4843 -1.6059
 4130TIP3    H233806   5.969   3.109   4.595  0.2482 -2.6823  0.2996
 4131TIP3   OH233807   4.134   5.611  14.475 -0.0336  0.3496  0.0601
 4131TIP3    H133808   4.201   5.652  14.529  0.4608  0.9659 -0.9751
 4131TIP3    H233809   4.052   5.626  14.522  0.4065  0.6396  0.7519
 4132TIP3   OH233810   6.795   2.833  14.497 -0.0443  0.0870 -0.0261
 4132TIP3    H133811   6.798   2.891  14.421  2.1260 -0.6733 -0.6226
 4132TIP3    H233812   6.814   2.746  14.461 -0.2418 -0.4884  1.2160
 4133TIP3   OH233813   0.961   1.650   5.068 -0.2114  0.5168  0.0035
 4133TIP3    H133814   0.983   1.557   5.062  1.6982  0.9122  0.4235
 4133TIP3    H233815   0.888   1.654   5.130 -0.8959 -0.7668 -0.6877
 4134TIP3   OH233816   4.158   3.873  11.422  0.0588  0.2382  0.7674
 4134TIP3    H133817   4.190   3.810  11.357 -0.1569  1.1791 -0.3032
 4134TIP3    H233818   4.063   3.872  11.411 -0.0132  0.0934  1.3840
 4135TIP3   OH233819   0.234   0.268  14.825 -0.0092 -1.0035  0.0092
 4135TIP3    H133820   0.327   0.269  14.848  0.1100 -0.0000 -0.4337
 4135TIP3    H233821   0.190   0.232  14.902  0.6706 -0.7264  0.5352
 4136TIP3   OH233822   5.280   6.394  14.264  0.0654 -0.5650  0.6055
 4136TIP3    H133823   5.276   6.301  14.242 -1.2212 -0.4380  0.2447
 4136TIP3    H233824   5.218   6.436  14.204  2.2397  0.8666 -0.8134
 4137TIP3   OH233825   6.053   3.077   3.162 -0.3255  0.1268  0.2232
 4137TIP3    H133826   6.127   3.101   3.106 -1.4835  0.5598 -1.1730
 4137TIP3    H233827   6.091   3.072   3.250  1.6360 -0.9432 -0.6031
 4138TIP3   OH233828   3.985   4.343  13.950  0.0820  0.2629  1.1158
 4138TIP3    H133829   3.930   4.376  13.879 -0.5993 -1.6466  0.6877
 4138TIP3    H233830   4.075   4.355  13.919 -0.2099 -0.6994 -0.1607
 4139TIP3   OH233831   0.466   0.267  15.791  0.4532 -0.0230 -0.1316
 4139TIP3    H133832   0.458   0.358  15.764 -0.4795 -0.3052 -0.8703
 4139TIP3    H233833   0.475   0.271  15.886  0.2417  0.8299 -0.1403
 4140TIP3   OH233834   4.101   0.340   2.252  0.4357 -0.4962 -0.1503
 4140TIP3    H133835   4.087   0.371   2.341  2.2794 -1.5171  0.5581
 4140TIP3    H233836   4.027   0.282   2.234  0.1942 -0.5017  0.8185
 4141TIP3   OH233837   4.777   0.081   5.543 -0.2436  0.1404 -0.2702
 4141TIP3    H133838   4.868   0.110   5.543  0.3762 -1.6802 -0.0497
 4141TIP3    H233839   4.777   0.002   5.596 -1.6465 -0.8335 -1.6370
 4142TIP3   OH233840   5.765   0.506   5.345  0.2140 -0.3957 -0.4573
 4142TIP3    H133841   5.827   0.509   5.272  1.6062 -0.5716  0.6676
 4142TIP3    H233842   5.814   0.463   5.416 -1.5623 -1.5471  0.1492
 4143TIP3   OH233843   0.445   4.610   0.952  0.3423 -0.9351  0.5715
 4143TIP3    H133844   0.395   4.685   0.986  3.7248  0.7561  2.2598
 4143TIP3    H233845   0.443   4.546   1.023 -0.1385 -1.2693  0.2660
 4144TIP3   OH233846   0.648   0.699   4.236  0.5097 -0.3895 -0.2197
 4144TIP3    H133847   0.642   0.779   4.288 -1.4590 -0.7348  0.1844
 4144TIP3    H233848   0.609   0.723   4.151 -1.2595 -1.1780  0.3173
 4145TIP3   OH233849   4.728   1.785  11.900  0.3627 -0.3426 -0.2821
 4145TIP3    H133850   4.767   1.818  11.819  2.0713  2.0358  1.3760
 4145TIP3    H233851   4.799   1.739  11.944  0.2134  0.5870  0.9912
 4146TIP3   OH233852   0.189   5.359  13.138 -0.3295 -0.2700  0.4370
 4146TIP3    H133853   0.243   5.370  13.216 -0.1792 -0.7792  0.4076
 4146TIP3    H233854   0.222   5.279  13.097 -1.2295 -0.6997  0.5275
 4147TIP3   OH233855   1.053   6.376  15.145 -0.4236  0.0340 -0.1261
 4147TIP3    H133856   1.068   6.283  15.128  0.8623  0.1966 -0.0135
 4147TIP3    H233857   1.103   6.393  15.225 -1.5830  0.5797  0.5016
 4148TIP3   OH233858   4.482   6.061   1.221  0.3705 -0.0331 -0.6769
 4148TIP3    H133859   4.492   6.155   1.237 -0.0845 -0.2756  1.4141
 4148TIP3    H233860   4.389   6.044   1.238  0.7124 -1.0529  0.2469
 4149TIP3   OH233861   1.648   3.565  15.320  0.1122  0.3150 -0.2629
 4149TIP3    H133862   1.583   3.523  15.376  1.9823 -1.1713  0.9399
 4149TIP3    H233863   1.699   3.620  15.379  0.8845  0.2826 -0.8895
 4150TIP3   OH233864   0.013   1.577   4.464 -0.6711 -0.1270  0.5950
 4150TIP3    H133865  -0.073   1.537   4.453 -0.2123 -0.8829 -0.3271
 4150TIP3    H233866   0.066   1.511   4.508 -0.5595  0.3491  1.1916
 4151TIP3   OH233867   6.704   2.476  15.097  0.2491 -0.0620 -0.4762
 4151TIP3    H133868   6.783   2.529  15.090  0.0118  0.0665 -4.1296
 4151TIP3    H233869   6.709   2.415  15.024 -1.1899 -2.8396  1.5332
 4152TIP3   OH233870   1.929   1.088   1.559  0.0981  0.4958  0.2443
 4152TIP3    H133871   2.005   1.032   1.546 -0.4147 -0.5929  1.6654
 4152TIP3    H233872   1.853   1.032   1.542 -0.4119  0.9832  0.8280
 4153TIP3   OH233873   2.667   4.645  16.995 -0.0843  0.5275  0.7312
 4153TIP3    H133874   2.594   4.680  17.045  0.3471  1.4084  0.7661
 4153TIP3    H233875   2.652   4.677  16.906 -0.5381 -0.5478  0.4096
 4154TIP3   OH233876   3.108   5.753   2.833  0.7261 -0.0314 -0.0875
 4154TIP3    H133877   3.065   5.683   2.883  0.3467 -0.4050 -0.9163
 4154TIP3    H233878   3.071   5.833   2.869  1.6666 -0.2049  1.3382
 4155TIP3   OH233879   0.500   5.749  14.439  0.2477  0.1115  0.1839
 4155TIP3    H133880   0.496   5.808  14.364 -1.3300 -0.1499  0.0268
 4155TIP3    H233881   0.524   5.664  14.402 -1.8010 -0.3267 -0.2874
 4156TIP3   OH233882   5.746   4.869  12.428  0.0778  0.3230 -0.3330
 4156TIP3    H133883   5.767   4.784  12.465 -2.1936  0.0730  0.5626
 4156TIP3    H233884   5.664   4.894  12.471 -0.8310  1.6619 -2.6411
 4157TIP3   OH233885   3.661   5.693   3.801 -0.0579  0.2591  0.5218
 4157TIP3    H133886   3.681   5.733   3.885 -0.0004  0.5909  0.3503
 4157TIP3    H233887   3.576   5.650   3.815  0.6552 -0.9829  1.1877
 4158TIP3   OH233888   4.286   3.796  15.421 -0.2831  0.1658  0.1810
 4158TIP3    H133889   4.340   3.775  15.498 -0.7788 -1.5544  0.0988
 4158TIP3    H233890   4.324   3.877  15.387  2.4493 -1.0840 -0.0320
 4159TIP3   OH233891   1.922   0.317   1.399  1.2781 -0.0072  0.1799
 4159TIP3    H133892   1.877   0.351   1.321  1.9247 -1.0500 -0.6693
 4159TIP3    H233893   1.858   0.258   1.439  1.4189 -0.5349 -0.3459
 4160TIP3   OH233894   5.628   5.309  11.266  0.0707  0.1064  0.2183
 4160TIP3    H133895   5.623   5.401  11.290 -1.2480  0.8494 -2.5319
 4160TIP3    H233896   5.556   5.267  11.314 -2.5561  1.5423 -2.1781
 4161TIP3   OH233897   0.623   2.138   4.109  0.2256  0.3804  0.1732
 4161TIP3    H133898   0.688   2.156   4.041 -0.7812  2.2576 -0.3722
 4161TIP3    H233899   0.670   2.152   4.192  0.4181  2.3962 -0.2144
 4162TIP3   OH233900   4.103   5.346   5.203 -0.1043  0.1708 -0.4210
 4162TIP3    H133901   4.093   5.440   5.217  0.6642  0.6626 -2.6849
 4162TIP3    H233902   4.177   5.321   5.258 -0.3935  0.8639  0.2895
 4163TIP3   OH233903   4.078   0.929  16.719  0.8646  0.3595 -0.2469
 4163TIP3    H133904   4.062   0.944  16.812  1.8400  0.1577 -0.0417
 4163TIP3    H233905   4.127   1.006  16.690  1.4084 -0.0260 -0.3668
 4164TIP3   OH233906   2.595   4.730  14.783  0.1871 -0.2032 -0.0311
 4164TIP3    H133907   2.656   4.661  14.810  0.0493 -0.0181  0.7871
 4164TIP3    H233908   2.525   4.684  14.737  0.8095 -0.4477 -0.7651
 4165TIP3   OH233909   4.122   4.236  15.401 -0.4990  0.3843  0.0720
 4165TIP3    H133910   4.105   4.179  15.326  1.4874 -1.4914  0.9537
 4165TIP3    H233911   4.177   4.306  15.366 -0.7566  0.3117 -0.4904
 4166TIP3   OH233912   6.146   2.695  16.939 -0.1640  0.0167  0.1021
 4166TIP3    H133913   6.202   2.773  16.941 -1.7833  1.2322  2.3740
 4166TIP3    H233914   6.116   2.689  16.849  1.1547  1.1326 -0.4496
 4167TIP3   OH233915   4.243   2.490  15.965 -0.8976  0.1854 -0.1035
 4167TIP3    H133916   4.277   2.459  15.881  0.5395 -1.1978  0.9280
 4167TIP3    H233917   4.209   2.411  16.008  0.9167  0.3259  1.7263
 4168TIP3   OH233918   1.907   0.049   0.854  0.1771 -0.0617 -0.5277
 4168TIP3    H133919   1.844  -0.012   0.893  1.3175  0.1146  1.7333
 4168TIP3    H233920   1.861   0.133   0.853 -0.1748 -0.2500 -0.3724
 4169TIP3   OH233921   3.040   1.046   2.964  0.1486  0.7831  0.4192
 4169TIP3    H133922   3.042   0.952   2.982  0.1041  0.4622 -1.1295
 4169TIP3    H233923   3.120   1.079   3.006  0.2229  0.0367  0.8907
 4170TIP3   OH233924   2.235   1.855  12.774  1.0111  0.0096 -0.2600
 4170TIP3    H133925   2.263   1.942  12.748  2.1940 -0.5656 -1.0143
 4170TIP3    H233926   2.209   1.813  12.692 -1.3990  0.2552  0.3105
 4171TIP3   OH233927   4.170   3.829  14.357 -0.2301 -0.2932  1.0408
 4171TIP3    H133928   4.127   3.910  14.329 -0.0687  0.0438  1.7496
 4171TIP3    H233929   4.264   3.846  14.346 -0.2058 -0.4527  0.9993
 4172TIP3   OH233930   3.835   1.051   5.200  0.0714  0.3815  0.1787
 4172TIP3    H133931   3.881   1.097   5.130  0.3028 -1.2371 -0.7844
 4172TIP3    H233932   3.899   0.988   5.234 -0.5873 -0.0642  0.6276
 4173TIP3   OH233933   4.989   1.836   3.966 -0.2812  0.1368 -0.1671
 4173TIP3    H133934   4.995   1.914   3.911  0.3727  1.8892  2.2167
 4173TIP3    H233935   4.990   1.763   3.904 -1.4277  1.9850 -2.5348
 4174TIP3   OH233936   6.572   0.946  13.882  0.3437  0.0232 -0.1022
 4174TIP3    H133937   6.603   0.875  13.937 -0.6100 -1.0785 -0.9182
 4174TIP3    H233938   6.588   1.025  13.933 -0.5945 -0.9436  1.8206
 4175TIP3   OH233939   6.316   2.170   2.644  0.3545 -0.6650 -0.0389
 4175TIP3    H133940   6.281   2.109   2.580  0.4254  0.6572 -1.3931
 4175TIP3    H233941   6.287   2.256   2.614  1.3920  0.1060  1.0409
 4176TIP3   OH233942   2.928   0.359   4.976  0.1888 -0.4083 -0.6443
 4176TIP3    H133943   2.878   0.333   5.053  1.4950 -1.5073 -0.1081
 4176TIP3    H233944   2.868   0.411   4.924 -0.3330  1.5485  1.7472
 4177TIP3   OH233945   1.929   2.034   1.549 -0.6176  0.6453  0.2666
 4177TIP3    H133946   1.981   1.963   1.511 -1.1759  0.3054  0.1342
 4177TIP3    H233947   1.839   2.016   1.521 -0.8993  0.8879  1.0083
 4178TIP3   OH233948   5.216   4.258  11.778  0.2738 -0.2416 -0.7127
 4178TIP3    H133949   5.252   4.175  11.746 -0.0726 -1.2272  1.3101
 4178TIP3    H233950   5.294   4.309  11.802  0.4623 -0.3374 -1.1086
 4179TIP3   OH233951   1.255   0.246  11.157  0.8460  0.1617 -0.1081
 4179TIP3    H133952   1.185   0.310  11.168  1.1404  0.5443 -0.4286
 4179TIP3    H233953   1.335   0.299  11.159  1.2167 -0.3931  1.5329
 4180TIP3   OH233954   5.832   6.699  16.459  0.3336  0.0626  0.1604
 4180TIP3    H133955   5.827   6.633  16.529  0.0359  0.6248  0.6893
 4180TIP3    H233956   5.776   6.771  16.491 -3.6507 -1.4420 -2.6153
 4181TIP3   OH233957   6.511   2.205  14.184  0.1318  0.0923  0.5602
 4181TIP3    H133958   6.548   2.141  14.245  0.7283  1.0959  1.2750
 4181TIP3    H233959   6.491   2.154  14.105  2.5262 -0.5890  0.3322
 4182TIP3   OH233960   3.201   5.907  11.348 -0.2653 -0.0252 -1.1177
 4182TIP3    H133961   3.249   5.882  11.427  0.7234  1.4850 -1.1964
 4182TIP3    H233962   3.128   5.960  11.379 -0.7880 -0.7260 -1.1294
 4183TIP3   OH233963   5.803   2.625   0.817  0.2913  0.2322 -0.6371
 4183TIP3    H133964   5.725   2.654   0.865  0.9127  0.5473  0.2128
 4183TIP3    H233965   5.851   2.705   0.798  1.2745 -0.0806  0.4026
 4184TIP3   OH233966   2.978   4.834  12.288  0.4836 -0.1229  0.1918
 4184TIP3    H133967   2.950   4.883  12.366 -1.1198  0.9666 -1.0004
 4184TIP3    H233968   2.999   4.747  12.321 -1.9312 -0.2599  1.6054
 4185TIP3   OH233969   4.730   1.918  15.356  0.6700  0.0050  0.2080
 4185TIP3    H133970   4.676   1.993  15.376  1.3939  0.4262  0.6227
 4185TIP3    H233971   4.721   1.860  15.431  0.3109 -0.2147 -0.0003
 4186TIP3   OH233972   2.626   0.206   3.247  0.0396 -0.5768 -0.5745
 4186TIP3    H133973   2.697   0.154   3.210 -0.9986 -1.0186 -2.0518
 4186TIP3    H233974   2.651   0.219   3.338  1.3379 -1.8907 -0.7023
 4187TIP3   OH233975   4.867   3.380   0.359 -0.5456  0.4871 -0.0548
 4187TIP3    H133976   4.880   3.419   0.273 -0.4237 -0.3762 -0.4385
 4187TIP3    H233977   4.803   3.310   0.344 -2.3711  1.8518  0.9986
 4188TIP3   OH233978   1.017   1.744   0.356 -0.3955  0.2669 -0.5030
 4188TIP3    H133979   0.985   1.750   0.266  1.5599  2.7705 -1.1499
 4188TIP3    H233980   0.940   1.722   0.408 -1.5763 -1.2558 -2.7377
 4189TIP3   OH233981   6.117   2.291   0.439 -0.2101  0.1614 -0.4992
 4189TIP3    H133982   6.187   2.233   0.469 -0.4581  0.4280  0.6594
 4189TIP3    H233983   6.142   2.378   0.472 -1.5898  0.0823  0.8894
 4190TIP3   OH233984   4.517   3.077   3.426 -0.1981 -0.1348  0.1551
 4190TIP3    H133985   4.539   3.012   3.360  2.0851 -0.3634  1.0447
 4190TIP3    H233986   4.492   3.027   3.503  1.7181 -0.0631  0.8930
 4191TIP3   OH233987   5.000   6.255  13.041  0.5888 -0.8176 -0.0804
 4191TIP3    H133988   4.961   6.170  13.017  2.9225 -1.8163 -0.6299
 4191TIP3    H233989   5.036   6.288  12.959  1.3633 -0.2129  0.4983
 4192TIP3   OH233990   1.680   1.314   2.278  0.1909  0.0195 -0.2849
 4192TIP3    H133991   1.671   1.388   2.337 -1.5377 -1.2819  1.1946
 4192TIP3    H233992   1.695   1.353   2.192  0.7048  2.0138  0.6525
 4193TIP3   OH233993   1.561   5.243   0.822  0.5769  0.7752 -0.0302
 4193TIP3    H133994   1.629   5.178   0.806 -1.2886 -1.2509 -0.1180
 4193TIP3    H233995   1.504   5.204   0.888 -0.6657  2.2624 -0.1555
 4194TIP3   OH233996   2.782   4.141  11.606 -0.2111  0.1835  0.0182
 4194TIP3    H133997   2.797   4.154  11.512  0.2621 -0.4020  0.0103
 4194TIP3    H233998   2.803   4.049  11.621  2.0892  0.8101  1.1398
 4195TIP3   OH233999   3.308   6.554  12.846 -0.2456  0.0064 -0.0537
 4195TIP3    H134000   3.262   6.510  12.918  0.6472 -0.9737 -0.0508
 4195TIP3    H234001   3.246   6.552  12.773  0.1547 -2.3353 -0.4043
 4196TIP3   OH234002   5.180   3.632  10.780  0.6778  0.2729  0.1974
 4196TIP3    H134003   5.224   3.571  10.838 -0.2155  0.5132  1.1603
 4196TIP3    H234004   5.121   3.577  10.727  1.0724  0.1196 -0.0834
 4197TIP3   OH234005   5.435   0.826  16.207  0.2637  0.4759  0.2050
 4197TIP3    H134006   5.342   0.810  16.217  0.2438  0.4673  0.0086
 4197TIP3    H234007   5.460   0.777  16.129  0.6314 -0.3136  0.7968
 4198TIP3   OH234008   6.723   2.676   4.194 -0.4268  0.6029  0.0670
 4198TIP3    H134009   6.810   2.648   4.167 -0.3262  0.9208  0.0587
 4198TIP3    H234010   6.665   2.605   4.165 -0.1710  0.3845  0.0858
 4199TIP3   OH234011   5.603   3.948  11.870  0.2666  0.4633 -0.3771
 4199TIP3    H134012   5.574   3.945  11.961  0.8568 -0.8798 -0.2135
 4199TIP3    H234013   5.697   3.965  11.875  0.7094 -1.6191 -0.6081
 4200TIP3   OH234014   1.286   6.280   0.062 -0.6999  0.1845 -0.3895
 4200TIP3    H134015   1.309   6.353   0.120 -0.1904 -0.5166  0.3112
 4200TIP3    H234016   1.300   6.315  -0.027  1.3803  0.3681 -0.0330
 4201TIP3   OH234017   3.347   0.821   2.702  0.0362 -0.2229 -0.2819
 4201TIP3    H134018   3.421   0.883   2.702 -0.4328  0.3563 -0.6942
 4201TIP3    H234019   3.295   0.848   2.626 -0.7015 -0.5008  0.1232
 4202TIP3   OH234020   1.782   3.686   1.297 -0.0887 -0.0148 -0.1532
 4202TIP3    H134021   1.724   3.670   1.223  0.0957 -1.8051  0.0391
 4202TIP3    H234022   1.839   3.757   1.268  0.4063 -1.1005 -2.0170
 4203TIP3   OH234023   1.835   0.961  14.448  0.3090 -0.0722 -0.0624
 4203TIP3    H134024   1.819   1.043  14.495 -1.0197  1.0735 -2.3327
 4203TIP3    H234025   1.750   0.936  14.413  0.6140 -2.6594  0.8338
 4204TIP3   OH234026   1.685   0.684   5.354  0.0956 -0.2147 -0.4522
 4204TIP3    H134027   1.665   0.770   5.317  0.8678 -0.1207 -0.6696
 4204TIP3    H234028   1.731   0.638   5.284  0.4700 -0.4826 -0.0365
 4205TIP3   OH234029   0.968   1.035  15.532  0.2335  0.5102  0.3798
 4205TIP3    H134030   0.919   1.102  15.580  0.6098  2.9500 -2.3902
 4205TIP3    H234031   0.934   1.039  15.443  1.2068 -2.1574 -0.2116
 4206TIP3   OH234032   5.077   0.743   1.479 -0.1303 -0.1682  0.0514
 4206TIP3    H134033   5.136   0.788   1.539 -0.3832 -0.2170  0.3433
 4206TIP3    H234034   5.123   0.742   1.395 -1.0835  2.8084 -0.6286
 4207TIP3   OH234035   0.376   4.384  12.973 -0.3198 -0.1980  0.2882
 4207TIP3    H134036   0.350   4.476  12.975 -0.2155 -0.1571  2.3081
 4207TIP3    H234037   0.301   4.338  12.934 -0.5538  0.6758 -0.3151
 4208TIP3   OH234038   5.135   2.409  15.542 -0.0067 -0.1319  0.0825
 4208TIP3    H134039   5.179   2.386  15.461  0.1780 -1.1401  0.4566
 4208TIP3    H234040   5.111   2.325  15.581 -1.3604  0.3590  0.3843
 4209TIP3   OH234041   1.228   6.132   2.536 -0.3616 -0.3755 -0.1189
 4209TIP3    H134042   1.263   6.125   2.447 -2.7233  0.0612 -1.1752
 4209TIP3    H234043   1.144   6.085   2.532 -1.0979  0.7075  1.5256
 4210TIP3   OH234044   3.059   2.185   4.041  0.0400 -0.2940 -0.1707
 4210TIP3    H134045   3.114   2.172   4.118 -0.7974  0.7193  0.6160
 4210TIP3    H234046   3.121   2.208   3.971  0.6369  0.7903  0.6907
 4211TIP3   OH234047   6.703   1.978  11.485 -0.5326 -0.4888  0.0237
 4211TIP3    H134048   6.623   1.996  11.435 -1.6435 -1.7075  1.2751
 4211TIP3    H234049   6.679   1.904  11.541  1.4341 -0.7470  0.5662
 4212TIP3   OH234050   3.737   3.638   1.469 -0.4986  0.1343  0.1481
 4212TIP3    H134051   3.760   3.545   1.458 -0.0018  0.5626 -3.6387
 4212TIP3    H234052   3.815   3.676   1.510 -0.4421 -0.9845  1.1397
 4213TIP3   OH234053   5.758   4.113   3.276  0.1923 -0.0952 -0.2527
 4213TIP3    H134054   5.672   4.094   3.238  0.2512  1.4148 -1.2321
 4213TIP3    H234055   5.766   4.208   3.270  2.1143 -0.2389 -0.5618
 4214TIP3   OH234056   1.489   6.524   2.107  0.4050  0.8437  0.5369
 4214TIP3    H134057   1.583   6.507   2.119  0.6548  0.4437 -1.5486
 4214TIP3    H234058   1.450   6.436   2.102  0.3762  0.9281 -1.4065
 4215TIP3   OH234059   6.337   6.240   0.757 -0.8045 -0.0130 -0.3262
 4215TIP3    H134060   6.415   6.237   0.813 -0.4404 -1.0129 -0.8518
 4215TIP3    H234061   6.276   6.296   0.803  0.5393  1.5113 -0.2859
 4216TIP3   OH234062   1.329   0.632   1.227 -0.1548  0.4832  0.4347
 4216TIP3    H134063   1.297   0.542   1.222 -0.2898  0.5609 -0.2049
 4216TIP3    H234064   1.250   0.686   1.228 -0.0644  0.6338 -0.1662
 4217TIP3   OH234065   4.274   4.844   4.192 -0.5570 -0.3268  0.1484
 4217TIP3    H134066   4.202   4.907   4.201 -0.2304 -0.0546  1.0224
 4217TIP3    H234067   4.339   4.872   4.257  0.6249 -0.2004 -1.0406
 4218TIP3   OH234068   5.678   3.845  12.868  0.1925 -0.3798 -0.4452
 4218TIP3    H134069   5.650   3.797  12.946 -3.2436  0.1267 -1.2150
 4218TIP3    H234070   5.750   3.900  12.899  0.1336 -1.4932  1.9168
 4219TIP3   OH234071   3.843   5.504   1.137  0.0618 -0.1843 -0.3574
 4219TIP3    H134072   3.899   5.502   1.059  0.1528 -1.0547 -0.2833
 4219TIP3    H234073   3.904   5.509   1.211 -0.0394  1.2691 -0.3409
 4220TIP3   OH234074   6.634   4.707  13.069 -0.6186  0.3833 -0.1991
 4220TIP3    H134075   6.551   4.742  13.036  0.4233  0.9970 -2.3229
 4220TIP3    H234076   6.673   4.779  13.118 -1.1742  0.1808  0.5715
 4221TIP3   OH234077   1.889   4.957   1.901 -0.2023  0.3361  0.6551
 4221TIP3    H134078   1.891   4.921   1.812  0.2872  1.2178  0.2952
 4221TIP3    H234079   1.971   4.927   1.940  1.1803  2.6125 -0.3082
 4222TIP3   OH234080   4.143   1.074   6.185  0.0130  1.1496 -0.1998
 4222TIP3    H134081   4.098   1.083   6.269 -2.9430  1.5414 -1.6850
 4222TIP3    H234082   4.166   1.164   6.161 -0.6239  1.2324 -0.5235
 4223TIP3   OH234083   2.966   6.797   5.387 -0.5497 -0.3717  0.5650
 4223TIP3    H134084   2.966   6.835   5.475  1.0092 -0.5600  0.6713
 4223TIP3    H234085   3.004   6.865   5.331  0.5025 -1.0326  0.4391
 4224TIP3   OH234086   3.889   4.693   0.365 -0.1415 -0.1401 -0.5304
 4224TIP3    H134087   3.824   4.664   0.430 -1.6516  0.1524 -1.8610
 4224TIP3    H234088   3.906   4.784   0.387 -2.1894  0.5779 -1.7039
 4225TIP3   OH234089   2.567   5.869  11.017 -0.7478 -0.0219 -0.0910
 4225TIP3    H134090   2.579   5.829  10.931 -0.7560  0.7071 -0.4408
 4225TIP3    H234091   2.473   5.889  11.021 -1.2976 -2.4411  1.1785
 4226TIP3   OH234092   4.063   4.487   6.049 -1.1545  0.3183 -0.3908
 4226TIP3    H134093   4.006   4.416   6.019  0.9134 -1.2086 -0.9588
 4226TIP3    H234094   4.132   4.442   6.097 -0.1231  2.0467 -0.1924
 4227TIP3   OH234095   5.421   6.771  13.251 -0.1407 -0.0473  0.7044
 4227TIP3    H134096   5.386   6.779  13.162 -1.1850  1.9317  1.2389
 4227TIP3    H234097   5.493   6.708  13.243  1.5014  1.9583 -2.0696
 4228TIP3   OH234098   5.064   3.123  15.661 -0.2474  0.4437  0.1310
 4228TIP3    H134099   5.145   3.103  15.709 -0.1836  0.0023 -0.1519
 4228TIP3    H234100   4.994   3.090  15.718 -0.1836  0.1085  0.0159
 4229TIP3   OH234101   4.412   4.977  15.151  0.2715  0.1265  0.5036
 4229TIP3    H134102   4.454   4.968  15.236  0.6250 -2.1023  0.1631
 4229TIP3    H234103   4.448   4.905  15.099  0.4312  1.6997 -1.7117
 4230TIP3   OH234104   5.531   1.847  11.745 -0.4275 -0.0540 -0.4723
 4230TIP3    H134105   5.577   1.864  11.663  1.7298  0.3267  0.7621
 4230TIP3    H234106   5.508   1.754  11.740  3.3280 -1.1865  0.1249
 4231TIP3   OH234107   4.366   6.166  11.568  0.3146  0.2241 -0.3069
 4231TIP3    H134108   4.406   6.153  11.482  0.6001  1.2180 -0.3294
 4231TIP3    H234109   4.300   6.233  11.554 -1.0623 -1.0467 -0.1594
 4232TIP3   OH234110   3.766   1.882   1.849 -0.2171  0.7047  0.1965
 4232TIP3    H134111   3.851   1.849   1.876 -0.4838  0.4597  0.7567
 4232TIP3    H234112   3.731   1.814   1.791  0.8611  1.7663 -1.7992
 4233TIP3   OH234113   0.987   2.051  11.896  0.2511 -0.5878 -0.1036
 4233TIP3    H134114   1.044   2.096  11.833  0.7987 -1.0877  0.0350
 4233TIP3    H234115   0.919   2.012  11.842 -0.8714  1.2891 -0.1516
 4234TIP3   OH234116   2.014   3.469  12.726  0.6301 -0.2695  0.3677
 4234TIP3    H134117   2.018   3.549  12.674  3.8191 -0.5204  0.0093
 4234TIP3    H234118   2.029   3.399  12.663  1.3072 -0.8427  1.1495
 4235TIP3   OH234119   4.547   0.053  13.284 -0.4648 -0.3519  0.0647
 4235TIP3    H134120   4.577   0.134  13.241  0.5817 -0.0052  1.3675
 4235TIP3    H234121   4.617  -0.010  13.267  0.3120 -0.0067  1.7913
 4236TIP3   OH234122   6.117   4.225  12.011 -0.3706  0.2981  0.1902
 4236TIP3    H134123   6.072   4.291  12.062 -0.1050  1.6684 -1.2848
 4236TIP3    H234124   6.179   4.185  12.072 -1.0767  0.8609  1.2901
 4237TIP3   OH234125   4.698   5.667  15.927  0.4648  0.5623  0.4229
 4237TIP3    H134126   4.718   5.581  15.965  1.6132  1.0493  0.9424
 4237TIP3    H234127   4.632   5.704  15.986  0.2445  0.1992  0.4096
 4238TIP3   OH234128   0.755   6.485  13.571  0.2377  0.1220  0.3108
 4238TIP3    H134129   0.780   6.482  13.663  1.5281 -0.1158 -0.0122
 4238TIP3    H234130   0.660   6.484  13.571  0.2228 -0.0346  1.6350
 4239TIP3   OH234131   5.434   0.969  13.955 -0.1607  0.2124 -0.1781
 4239TIP3    H134132   5.480   1.019  13.887  0.3103 -0.1670 -0.1452
 4239TIP3    H234133   5.341   0.988  13.940 -0.0813 -0.1011 -1.1138
 4240TIP3   OH234134   3.667   1.585   1.203  0.1346 -0.2490  0.4558
 4240TIP3    H134135   3.733   1.529   1.243  0.6825 -0.8238 -1.1827
 4240TIP3    H234136   3.684   1.672   1.239  1.1070 -0.5949  0.8517
 4241TIP3   OH234137   4.964   6.415  15.098  0.2613  0.0126 -0.0846
 4241TIP3    H134138   4.879   6.386  15.133  0.4214  1.2089  1.4274
 4241TIP3    H234139   5.020   6.421  15.175  1.4677  0.1123 -0.9496
 4242TIP3   OH234140   2.348   4.518   4.618  0.4131  0.2264  0.5868
 4242TIP3    H134141   2.295   4.493   4.694  0.2352 -0.9891  0.0872
 4242TIP3    H234142   2.433   4.479   4.635  0.0802 -0.9439 -0.2933
 4243TIP3   OH234143   5.735   4.589  16.957  0.3961  0.2615  0.6277
 4243TIP3    H134144   5.747   4.674  16.999  3.1766 -0.2348  1.0058
 4243TIP3    H234145   5.725   4.527  17.030  1.2704 -0.0959  0.4518
 4244TIP3   OH234146   2.513   5.218  16.554  0.0365 -0.1566  0.0776
 4244TIP3    H134147   2.585   5.173  16.598 -0.6738 -0.0977  1.3559
 4244TIP3    H234148   2.520   5.190  16.463  1.6413 -0.1737  0.1753
 4245TIP3   OH234149   6.437   0.425   4.656 -0.3803  0.2190 -0.3724
 4245TIP3    H134150   6.379   0.361   4.695 -0.9154 -0.2340 -1.8449
 4245TIP3    H234151   6.461   0.388   4.571 -0.3515  1.7654 -1.0803
 4246TIP3   OH234152   1.151   4.114   1.050  0.2771  0.0671  0.0111
 4246TIP3    H134153   1.077   4.164   1.085 -1.3192 -2.5460  0.6459
 4246TIP3    H234154   1.138   4.116   0.955 -0.4808 -0.1892  0.1050
 4247TIP3   OH234155   4.421   1.926   4.055  0.1294 -0.5489  0.2629
 4247TIP3    H134156   4.513   1.918   4.078  0.2708  2.9703  1.4712
 4247TIP3    H234157   4.380   1.967   4.131 -1.4541  2.1383 -1.8282
 4248TIP3   OH234158   4.238   1.930  11.098 -0.0517 -0.0734 -0.5968
 4248TIP3    H134159   4.230   2.025  11.094 -0.1322  0.0561  1.5894
 4248TIP3    H234160   4.201   1.900  11.015  0.4419  1.8019 -1.5614
 4249TIP3   OH234161   6.419   5.847  16.734  0.4982 -0.3624  0.2800
 4249TIP3    H134162   6.398   5.873  16.644 -0.7526  1.5108  1.0665
 4249TIP3    H234163   6.395   5.922  16.787  1.5192 -1.3166  2.1738
 4250TIP3   OH234164   0.727   6.786   5.115 -0.1220  0.3137  0.6565
 4250TIP3    H134165   0.804   6.733   5.133  0.0069  0.5772  0.9002
 4250TIP3    H234166   0.712   6.776   5.021  0.1019  0.1158  0.6418
 4251TIP3   OH234167   1.273   4.210   0.297  0.5659  0.0265  0.8114
 4251TIP3    H134168   1.249   4.141   0.359  1.4786  0.2896  1.4929
 4251TIP3    H234169   1.323   4.165   0.229 -1.7826 -0.5269 -0.6355
 4252TIP3   OH234170   0.166   5.072  14.548  0.0845  0.1954  0.1930
 4252TIP3    H134171   0.187   5.002  14.485  0.3511  0.7071 -0.2978
 4252TIP3    H234172   0.115   5.135  14.497 -0.2795  0.2907  0.6721
 4253TIP3   OH234173   1.925   4.677  13.516 -0.0782  0.5319 -0.1881
 4253TIP3    H134174   1.877   4.597  13.535 -1.0712  0.8468 -1.2073
 4253TIP3    H234175   1.961   4.705  13.600  1.2564 -1.5588  0.0006
 4254TIP3   OH234176   1.733   5.620   4.523 -0.5805 -0.0773  0.3457
 4254TIP3    H134177   1.779   5.599   4.604  1.9346 -0.0951 -0.9688
 4254TIP3    H234178   1.706   5.711   4.533 -1.5048 -0.4740  1.6914
 4255TIP3   OH234179   3.991   6.375  15.794  0.2831  0.1785  0.2421
 4255TIP3    H134180   3.921   6.345  15.852  0.1102 -3.3378 -1.5220
 4255TIP3    H234181   3.948   6.436  15.734 -0.8653 -0.5302  0.3259
 4256TIP3   OH234182   1.359   0.822  12.407  0.4956  0.4000  0.3950
 4256TIP3    H134183   1.335   0.909  12.437  2.2267  1.0206  0.0707
 4256TIP3    H234184   1.333   0.820  12.315  0.2146  0.4604  0.4712
 4257TIP3   OH234185   2.138   6.494   5.234 -0.3753  0.0842 -0.3013
 4257TIP3    H134186   2.127   6.420   5.175 -2.2825 -0.6431  0.8700
 4257TIP3    H234187   2.076   6.559   5.202 -0.8632 -0.0130  0.4300
 4258TIP3   OH234188   1.491   1.897   0.890  0.2426 -0.3361  0.3168
 4258TIP3    H134189   1.489   1.902   0.794  1.6483  0.7857  0.3127
 4258TIP3    H234190   1.563   1.955   0.916 -0.2848 -0.4028  2.0752
 4259TIP3   OH234191   0.061   6.116   3.589 -0.7506 -0.7791  0.2293
 4259TIP3    H134192   0.023   6.047   3.534  0.0096 -0.6366 -0.5104
 4259TIP3    H234193   0.036   6.198   3.546  1.0193 -0.7025 -0.7521
 4260TIP3   OH234194   2.009   4.256  10.816 -0.0155 -0.5489 -0.2969
 4260TIP3    H134195   1.951   4.255  10.740 -0.9626 -0.4386  0.4076
 4260TIP3    H234196   2.052   4.171  10.816  0.0297 -0.5302 -0.9725
 4261TIP3   OH234197   5.217   3.406  10.547  0.0591  0.4322  0.8298
 4261TIP3    H134198   5.250   3.321  10.518  1.4131  1.3104 -0.3766
 4261TIP3    H234199   5.124   3.391  10.564  0.4586 -1.5067  1.6110
 4262TIP3   OH234200   1.824   0.223   0.358  0.2112 -0.8521  0.1919
 4262TIP3    H134201   1.745   0.274   0.379  0.4647 -0.4276  0.1432
 4262TIP3    H234202   1.819   0.209   0.263 -0.7827 -2.5110  0.4526
 4263TIP3   OH234203   3.908   6.469   1.905  0.0300 -0.8325  0.0877
 4263TIP3    H134204   3.815   6.452   1.921 -0.9037  2.7926 -0.4166
 4263TIP3    H234205   3.917   6.467   1.810 -0.4296  1.9125 -0.1123
 4264TIP3   OH234206   3.145   0.731  15.953  1.0426 -0.0688 -0.2081
 4264TIP3    H134207   3.228   0.691  15.979  1.1627 -0.4195 -1.0831
 4264TIP3    H234208   3.161   0.825  15.957  1.2381 -0.1246  0.3783
 4265TIP3   OH234209   2.413   0.528   3.551 -0.2724  0.4573 -0.3101
 4265TIP3    H134210   2.352   0.454   3.548 -1.5705  1.4895 -0.1850
 4265TIP3    H234211   2.358   0.605   3.534  0.8211  1.5183  0.7732
 4266TIP3   OH234212   6.324   0.818  16.209  0.2037  0.1343 -0.2193
 4266TIP3    H134213   6.362   0.836  16.123 -0.5639 -0.3419 -0.6714
 4266TIP3    H234214   6.264   0.745  16.194 -1.7459  1.5502  0.2193
 4267TIP3   OH234215   1.828   5.856  16.736 -0.0389 -0.4333 -0.8600
 4267TIP3    H134216   1.862   5.806  16.810  1.0327 -0.3138 -1.2527
 4267TIP3    H234217   1.903   5.867  16.678 -0.2329  1.6284 -0.7986
 4268TIP3   OH234218   0.803   5.254  16.104  0.5665  0.7012  0.7775
 4268TIP3    H134219   0.830   5.339  16.069  2.8429 -0.1970  0.1561
 4268TIP3    H234220   0.874   5.228  16.162  0.1993 -1.0420  0.5050
 4269TIP3   OH234221   5.654   3.322  14.786  0.8494 -0.1248 -0.2838
 4269TIP3    H134222   5.681   3.245  14.737 -0.6878 -0.5249 -0.5796
 4269TIP3    H234223   5.589   3.365  14.730 -0.1869 -0.0349  0.9184
 4270TIP3   OH234224   1.897   4.321  15.202  0.1235 -0.0864  0.3764
 4270TIP3    H134225   1.937   4.247  15.157 -0.9293 -0.5702  0.2064
 4270TIP3    H234226   1.840   4.280  15.267  0.1802  0.5941  0.8629
 4271TIP3   OH234227   0.253   1.121   1.000  0.1023  0.0101  0.3698
 4271TIP3    H134228   0.267   1.032   1.032  0.5082  0.5762  1.8615
 4271TIP3    H234229   0.172   1.116   0.949  0.2336 -1.2466  0.2546
 4272TIP3   OH234230   4.119   5.842   0.794  0.5018  0.0052  0.3537
 4272TIP3    H134231   4.126   5.911   0.728 -1.1057  1.4669  1.6433
 4272TIP3    H234232   4.201   5.848   0.844 -0.8097  3.1690  2.4107
 4273TIP3   OH234233   2.706   0.739   4.143  0.1939 -0.4133  0.2956
 4273TIP3    H134234   2.651   0.679   4.092 -1.5172  2.0612 -0.9496
 4273TIP3    H234235   2.694   0.711   4.234  1.1370 -3.1930 -0.3380
 4274TIP3   OH234236   3.289   2.388  13.620 -0.0655  0.0996 -0.1694
 4274TIP3    H134237   3.243   2.315  13.660  0.3709 -0.1231 -0.0709
 4274TIP3    H234238   3.313   2.444  13.694  0.5774 -0.2182 -0.1385
 4275TIP3   OH234239   3.008   2.972   3.352 -0.4530 -0.0190  0.0571
 4275TIP3    H134240   3.017   3.064   3.378 -1.7496  0.1485 -0.0603
 4275TIP3    H234241   3.096   2.948   3.322 -0.2385  1.3643 -0.5152
 4276TIP3   OH234242   1.309   5.045  11.370  0.0029  0.4698 -0.5209
 4276TIP3    H134243   1.228   5.069  11.325 -0.5138 -2.1197 -1.1522
 4276TIP3    H234244   1.364   5.008  11.300  0.5077 -0.5628  0.3903
 4277TIP3   OH234245   1.650   6.737   0.218  0.4163 -0.6056 -0.4503
 4277TIP3    H134246   1.704   6.659   0.231 -1.4841 -1.7271  1.0920
 4277TIP3    H234247   1.688   6.779   0.141  2.8452 -1.8613 -0.0469
 4278TIP3   OH234248   1.703   3.959  14.103 -0.2842  0.2029  0.2395
 4278TIP3    H134249   1.645   3.945  14.178 -0.4753 -0.2242  0.0114
 4278TIP3    H234250   1.771   3.892  14.113 -1.5126 -1.3430 -1.1660
 4279TIP3   OH234251   0.506   2.278   0.588  0.4499 -0.1268  0.8144
 4279TIP3    H134252   0.569   2.329   0.638 -0.2483  1.4801  0.1305
 4279TIP3    H234253   0.448   2.343   0.549 -1.5998 -1.5213  1.3574
 4280TIP3   OH234254   2.110   5.742   4.637  0.0043 -0.0505 -0.2931
 4280TIP3    H134255   2.114   5.685   4.714 -0.7488  0.7324  0.3488
 4280TIP3    H234256   2.157   5.694   4.570 -0.9099 -1.6131  0.1138
 4281TIP3   OH234257   2.090   3.357  14.863  0.5335 -0.3371  0.1357
 4281TIP3    H134258   2.177   3.330  14.833  2.4000  1.9140  3.0334
 4281TIP3    H234259   2.068   3.294  14.931  0.8345  0.2684  0.7965
 4282TIP3   OH234260   4.633   6.807   1.525  0.4951  0.0718  0.4872
 4282TIP3    H134261   4.538   6.812   1.538  0.5377  0.8785  0.5626
 4282TIP3    H234262   4.661   6.736   1.582  0.2721  1.5456  2.5550
 4283TIP3   OH234263   6.525   2.729   1.320  0.3026 -0.0470  0.2387
 4283TIP3    H134264   6.484   2.805   1.278  1.9143  1.2858  0.9250
 4283TIP3    H234265   6.481   2.723   1.405  0.3739  0.3349  0.3068
 4284TIP3   OH234266   4.881   2.765  15.258 -0.4195 -0.0260  0.5314
 4284TIP3    H134267   4.824   2.773  15.181 -1.7057 -0.0545  1.4421
 4284TIP3    H234268   4.885   2.854  15.294  1.0620  0.2130 -0.1441
 4285TIP3   OH234269   5.124   0.542  13.451 -0.0910  0.2701  0.4751
 4285TIP3    H134270   5.122   0.571  13.542  0.2764 -0.1191  0.6149
 4285TIP3    H234271   5.101   0.620  13.400 -0.7019  0.3896  0.9176
 4286TIP3   OH234272   4.587   2.105  13.149 -0.0818 -0.4598 -0.2207
 4286TIP3    H134273   4.592   2.145  13.236  0.6660  1.6457 -1.1543
 4286TIP3    H234274   4.574   2.012  13.166  2.0837 -0.4383  2.1809
 4287TIP3   OH234275   6.253   5.381  13.581  0.4296  0.1086  0.1358
 4287TIP3    H134276   6.214   5.298  13.555  0.0476  0.5114 -0.6165
 4287TIP3    H234277   6.324   5.395  13.518  1.7850 -0.5844  1.4451
 4288TIP3   OH234278   4.946   2.207  16.902 -0.1598  0.3621 -0.5586
 4288TIP3    H134279   5.026   2.163  16.931  0.5880  0.3624 -2.4976
 4288TIP3    H234280   4.876   2.144  16.919  0.6239 -0.7539 -1.3741
 4289TIP3   OH234281   5.927   6.486   4.176 -0.3510 -0.6204  0.1556
 4289TIP3    H134282   5.970   6.569   4.157  0.6439 -1.4041 -1.2275
 4289TIP3    H234283   5.993   6.433   4.221 -0.4444 -1.2045 -0.3711
 4290TIP3   OH234284   4.892   3.593  12.431  0.3025  0.1226  0.4270
 4290TIP3    H134285   4.824   3.656  12.408  1.2873  1.7493  1.8187
 4290TIP3    H234286   4.971   3.627  12.389  0.6894 -0.6685  0.4961
 4291TIP3   OH234287   6.781   5.871   2.833 -0.0736 -0.1435  0.3761
 4291TIP3    H134288   6.752   5.955   2.866  1.3076 -0.1002  1.5455
 4291TIP3    H234289   6.856   5.848   2.887 -0.4186 -2.1361  0.0976
 4292TIP3   OH234290   0.735   1.735   4.873  0.3504  0.2652  0.7013
 4292TIP3    H134291   0.761   1.732   4.781 -0.8138 -2.1655  0.3713
 4292TIP3    H234292   0.813   1.706   4.921  0.5785  0.3578  0.3922
 4293TIP3   OH234293   2.851   5.095  15.959  0.1200  0.7780  0.0553
 4293TIP3    H134294   2.779   5.129  15.906 -1.6636 -1.8189  0.6578
 4293TIP3    H234295   2.916   5.066  15.896 -0.6191  0.5402 -0.6109
 4294TIP3   OH234296   4.467   4.366  12.975 -0.5945  0.1330 -0.2597
 4294TIP3    H134297   4.470   4.319  13.058 -1.0589  1.3238  0.4512
 4294TIP3    H234298   4.554   4.353  12.937 -0.5260 -0.7975  0.2018
 4295TIP3   OH234299   5.031   2.139   3.046  0.1275  0.3290  0.0828
 4295TIP3    H134300   5.028   2.066   2.984 -0.4015  1.1617 -0.8923
 4295TIP3    H234301   4.944   2.140   3.086  0.1797  0.3477  0.1963
 4296TIP3   OH234302   6.413   0.154  16.627 -0.5981  0.2285  0.4440
 4296TIP3    H134303   6.460   0.083  16.584  0.9885  0.4294  1.7163
 4296TIP3    H234304   6.325   0.152  16.589  0.1533 -0.7664 -1.3740
 4297TIP3   OH234305   3.393   6.648  15.415  0.1875  0.3067 -0.0845
 4297TIP3    H134306   3.349   6.728  15.444 -0.8743 -1.0258  2.3246
 4297TIP3    H234307   3.368   6.583  15.480  3.0904 -1.3776 -0.4947
 4298TIP3   OH234308   5.364   1.281  13.564 -0.5647 -0.1800 -0.3268
 4298TIP3    H134309   5.269   1.285  13.580 -0.4969 -0.3647  0.1345
 4298TIP3    H234310   5.400   1.351  13.619 -0.2728 -1.1711  0.8006
 4299TIP3   OH234311   5.701   6.233  13.254 -0.6124 -0.1126 -0.0133
 4299TIP3    H134312   5.687   6.296  13.324  2.2503  0.7305 -0.0609
 4299TIP3    H234313   5.706   6.285  13.174 -0.3649 -0.6448 -0.3554
 4300TIP3   OH234314   3.031   0.140  12.819  0.2619 -0.2840  0.0271
 4300TIP3    H134315   2.967   0.081  12.860  0.0690 -0.5143 -0.6072
 4300TIP3    H234316   3.062   0.093  12.743 -2.4846  1.7379 -2.5982
 4301TIP3   OH234317   1.412   4.139  12.448 -0.3894 -0.3600 -0.3087
 4301TIP3    H134318   1.334   4.192  12.464 -0.1200 -0.3703  1.1912
 4301TIP3    H234319   1.457   4.185  12.377 -1.8067 -0.4401 -1.3126
 4302TIP3   OH234320   6.470   0.524   2.867 -0.1294 -0.3314 -0.0460
 4302TIP3    H134321   6.429   0.586   2.927 -2.7721  1.0856 -3.0037
 4302TIP3    H234322   6.411   0.449   2.866  0.1805 -0.5721 -0.4490
 4303TIP3   OH234323   6.288   2.824  11.498 -0.2715 -0.0646  0.5763
 4303TIP3    H134324   6.314   2.900  11.447 -1.0788 -1.2074 -1.6818
 4303TIP3    H234325   6.351   2.820  11.570  1.7223  0.9507 -1.0168
 4304TIP3   OH234326   3.507   5.814   0.565  0.7055 -0.4167 -0.0965
 4304TIP3    H134327   3.449   5.738   0.581 -1.6158  1.2093 -0.2628
 4304TIP3    H234328   3.511   5.821   0.470 -0.0597  0.3044 -0.0933
 4305TIP3   OH234329   3.149   2.105   5.785  0.1752  0.1325  0.3444
 4305TIP3    H134330   3.096   2.184   5.780 -2.4541 -1.4987  0.8038
 4305TIP3    H234331   3.185   2.106   5.874  0.4467  0.9311  0.2372
 4306TIP3   OH234332   3.859   1.929  15.655 -0.1324 -0.0316 -0.0348
 4306TIP3    H134333   3.882   1.867  15.724 -1.3122 -0.9040 -0.4059
 4306TIP3    H234334   3.774   1.901  15.623 -0.3685  1.3493 -0.7284
 4307TIP3   OH234335   5.760   0.773  11.153  0.0067  0.4111  0.0667
 4307TIP3    H134336   5.713   0.777  11.070  0.8779 -0.5032 -0.4976
 4307TIP3    H234337   5.821   0.847  11.150 -0.1948  0.5760  0.0391
 4308TIP3   OH234338   3.917   1.636  15.547 -0.2549 -0.2389  0.5094
 4308TIP3    H134339   3.849   1.570  15.539  1.1116 -1.9543  1.9435
 4308TIP3    H234340   3.990   1.602  15.496  1.1333 -0.8878  2.7446
 4309TIP3   OH234341   0.648   6.399   3.479 -0.0547 -0.2363  0.0714
 4309TIP3    H134342   0.628   6.318   3.527  1.0639 -0.3785  0.3181
 4309TIP3    H234343   0.744   6.402   3.476 -0.0544  1.4501  0.7009
 4310TIP3   OH234344   0.790   6.789   1.703 -0.5936  0.3656  0.3670
 4310TIP3    H134345   0.880   6.789   1.670 -0.8164 -2.6189 -0.5403
 4310TIP3    H234346   0.797   6.822   1.793  1.9640 -2.3848  1.3650
 4311TIP3   OH234347   4.463   5.376   1.212  0.0135  0.2370 -0.7820
 4311TIP3    H134348   4.396   5.378   1.144  0.3583  1.7122 -1.1238
 4311TIP3    H234349   4.527   5.442   1.185  2.7124 -2.4537 -1.5139
 4312TIP3   OH234350   4.957   0.358  13.637 -0.1136  0.2652 -0.3744
 4312TIP3    H134351   5.046   0.333  13.662  0.1963  0.3713 -1.3177
 4312TIP3    H234352   4.901   0.299  13.687  0.5077 -0.2508 -0.2653
 4313TIP3   OH234353   2.099   3.974   5.161 -0.4096  0.3697  0.3766
 4313TIP3    H134354   2.007   3.960   5.186 -0.8000 -0.3004 -1.2737
 4313TIP3    H234355   2.109   4.069   5.159 -0.6284  0.4432  2.0083
 4314TIP3   OH234356   4.336   0.164  13.408 -0.6476 -0.0810 -0.4001
 4314TIP3    H134357   4.287   0.083  13.394 -0.3498 -0.1977 -0.7643
 4314TIP3    H234358   4.428   0.136  13.413 -0.6876 -0.0249  1.4769
 4315TIP3   OH234359   3.932   1.630  13.119 -0.1464 -0.3036  0.5602
 4315TIP3    H134360   4.012   1.579  13.107 -1.1870 -1.8947  0.1422
 4315TIP3    H234361   3.925   1.641  13.214  1.2517  1.0279  0.5401
 4316TIP3   OH234362   6.141   3.343   4.818 -0.0463  0.3871  0.3939
 4316TIP3    H134363   6.182   3.363   4.902  0.1708 -0.2351  0.4420
 4316TIP3    H234364   6.189   3.267   4.785  0.5274  1.2088 -0.7625
 4317TIP3   OH234365   6.741   1.959   1.100  0.2483 -0.2855 -0.8959
 4317TIP3    H134366   6.812   1.905   1.065 -0.2341 -0.9236 -0.9269
 4317TIP3    H234367   6.661   1.911   1.075 -0.1621  0.0827 -0.3053
 4318TIP3   OH234368   0.394   6.551   5.315 -0.0290  0.3210 -0.3727
 4318TIP3    H134369   0.387   6.576   5.223  0.5619 -1.1358 -0.8463
 4318TIP3    H234370   0.381   6.633   5.363 -0.4730  1.0893 -1.7366
 4319TIP3   OH234371   6.388   6.049  12.116  0.2065  0.3863  0.8462
 4319TIP3    H134372   6.434   6.045  12.032 -1.1168 -5.0629  0.0354
 4319TIP3    H234373   6.456   6.036  12.182  0.6451 -1.1289  0.1264
 4320TIP3   OH234374   4.217   3.021  16.549  0.3411 -0.0959  0.0144
 4320TIP3    H134375   4.283   2.951  16.544  0.9231  0.4117  0.3728
 4320TIP3    H234376   4.268   3.100  16.567 -0.1913  0.6228 -1.4530
 4321TIP3   OH234377   4.665   4.392   4.800  0.2161  0.2252 -0.0855
 4321TIP3    H134378   4.742   4.433   4.839 -1.5780  0.9402  3.1750
 4321TIP3    H234379   4.627   4.461   4.745  1.2686  0.2495 -0.8020
 4322TIP3   OH234380   6.687   2.666   4.742 -0.1564 -0.4667  0.0808
 4322TIP3    H134381   6.768   2.716   4.752 -0.1149 -0.7517  1.2469
 4322TIP3    H234382   6.668   2.670   4.648  0.2704  1.0647  0.0385
 4323TIP3   OH234383   6.737   6.157   2.894  0.1269  0.2248 -0.6714
 4323TIP3    H134384   6.706   6.189   2.809 -0.3209  1.2246 -0.1544
 4323TIP3    H234385   6.657   6.148   2.946 -0.2309 -4.6883 -1.6174
 4324TIP3   OH234386   1.536   0.936  13.055 -0.4884  0.4661  0.6263
 4324TIP3    H134387   1.575   1.010  13.010  0.4637  0.1291  0.8661
 4324TIP3    H234388   1.610   0.879  13.076 -1.2032 -0.5929  0.3770
 4325TIP3   OH234389   0.180   2.907  11.503  0.2021  0.1483 -0.8623
 4325TIP3    H134390   0.095   2.924  11.544 -0.5825 -0.1880 -2.2528
 4325TIP3    H234391   0.239   2.972  11.541 -0.7810  0.6429 -0.1506
 4326TIP3   OH234392   5.091   3.218  13.157  0.5162 -0.0220 -0.7047
 4326TIP3    H134393   5.002   3.252  13.154  0.4480 -0.2916 -2.0788
 4326TIP3    H234394   5.118   3.229  13.249 -0.7827  0.4072 -0.3633
 4327TIP3   OH234395   4.736   4.784  14.169 -0.6789 -0.3700 -0.3920
 4327TIP3    H134396   4.776   4.823  14.246 -1.5084  1.5455 -0.8641
 4327TIP3    H234397   4.807   4.780  14.105 -0.4378 -0.1985 -0.1386
 4328TIP3   OH234398   5.809   6.637   0.190  0.0804  0.2733 -0.2502
 4328TIP3    H134399   5.829   6.727   0.216  1.4431  0.0196 -0.3608
 4328TIP3    H234400   5.727   6.616   0.236  0.7214  0.9283  1.2365
 4329TIP3   OH234401   1.418   1.345  13.821 -0.7912 -0.8934 -0.0129
 4329TIP3    H134402   1.399   1.253  13.804 -2.1003 -0.4473 -1.1913
 4329TIP3    H234403   1.348   1.393  13.775  0.0869  0.6976  0.2223
 4330TIP3   OH234404   2.474   0.061   2.748 -0.1937 -0.3010  0.7612
 4330TIP3    H134405   2.501  -0.009   2.808 -1.8486  1.0133  3.2343
 4330TIP3    H234406   2.499   0.142   2.793 -0.2039  0.7506 -1.0378
 4331TIP3   OH234407   5.559   1.127  13.764  0.0536  0.8447 -0.8297
 4331TIP3    H134408   5.649   1.112  13.735  1.2183  0.9036  2.4554
 4331TIP3    H234409   5.547   1.222  13.758 -0.1549  0.7711 -2.0288
 4332TIP3   OH234410   6.260   6.237  13.394  0.2177  0.0960 -0.2201
 4332TIP3    H134411   6.174   6.196  13.385  0.1934  0.0280  0.3148
 4332TIP3    H234412   6.302   6.190  13.466  0.8088 -0.0554 -0.6596
 4333TIP3   OH234413   0.660   3.976   2.496 -0.1245 -0.4007 -0.4453
 4333TIP3    H134414   0.659   3.908   2.563 -1.8444  0.8018  0.8626
 4333TIP3    H234415   0.712   3.939   2.424 -1.4890 -3.3158 -0.0757
 4334TIP3   OH234416   0.383   2.589  11.807 -0.3560 -0.2376 -0.2026
 4334TIP3    H134417   0.357   2.663  11.861  0.1990  0.3010 -0.6458
 4334TIP3    H234418   0.440   2.627  11.740  1.3199 -1.2926  0.5464
 4335TIP3   OH234419   2.164   6.299   4.454  0.3286  0.5141 -0.0991
 4335TIP3    H134420   2.170   6.255   4.539  0.3367  2.1716  0.8117
 4335TIP3    H234421   2.252   6.290   4.417  0.9894  1.6804  1.1041
 4336TIP3   OH234422   3.330   6.609   4.470 -0.4582  0.6347  0.1079
 4336TIP3    H134423   3.398   6.593   4.404  0.8582  1.9212  1.0866
 4336TIP3    H234424   3.303   6.522   4.497  1.8877  0.0341  0.7310
 4337TIP3   OH234425   2.526   0.280   4.814  0.6523  1.0133 -0.1199
 4337TIP3    H134426   2.562   0.343   4.877 -0.3384  2.9565 -1.4061
 4337TIP3    H234427   2.442   0.316   4.789  0.3103 -0.5369 -1.3895
 4338TIP3   OH234428   5.609   1.159  11.837  0.1374 -0.5897 -0.2938
 4338TIP3    H134429   5.528   1.111  11.854 -0.5104  0.2927 -0.7928
 4338TIP3    H234430   5.671   1.092  11.807 -1.0209 -0.9988 -1.9075
 4339TIP3   OH234431   1.983   0.538   0.236 -0.8700  0.0998  0.6219
 4339TIP3    H134432   2.055   0.593   0.267 -0.7772  0.5839 -0.4106
 4339TIP3    H234433   2.022   0.452   0.220 -0.1285  0.7441 -1.3933
 4340TIP3   OH234434   1.473   1.487   3.185 -0.2173 -0.5974  0.1724
 4340TIP3    H134435   1.473   1.575   3.223 -2.0054 -0.4979  0.0173
 4340TIP3    H234436   1.495   1.430   3.258 -1.9586 -0.2610  0.9982
 4341TIP3   OH234437   4.976   2.937   3.201  0.3216 -0.2920 -0.2677
 4341TIP3    H134438   4.959   3.022   3.159  0.4050 -0.5455 -0.8206
 4341TIP3    H234439   4.972   2.956   3.294 -0.3823  0.1773 -0.3819
 4342TIP3   OH234440   2.266   2.809   2.723 -0.2537  0.3678 -0.3091
 4342TIP3    H134441   2.209   2.887   2.720  1.0722  1.3290 -2.9087
 4342TIP3    H234442   2.354   2.843   2.710  0.4392 -1.5314 -0.8509
 4343TIP3   OH234443   6.557   6.343  11.956  0.2277 -0.0875 -0.6721
 4343TIP3    H134444   6.500   6.281  11.911 -0.1444 -0.6583  0.5211
 4343TIP3    H234445   6.517   6.428  11.941  0.1243 -0.2645 -1.4216
 4344TIP3   OH234446   5.000   4.920  13.065 -0.5639  0.1791  0.0608
 4344TIP3    H134447   4.932   4.864  13.102 -0.0815 -0.4924 -0.0533
 4344TIP3    H234448   4.953   4.983  13.011 -1.0022 -1.1703 -1.1889
 4345TIP3   OH234449   2.865   0.030   1.864  0.0116 -0.0581 -0.3611
 4345TIP3    H134450   2.957   0.055   1.865  0.5684 -1.7269 -2.4678
 4345TIP3    H234451   2.824   0.086   1.930  2.4217  1.0711  0.2828
 4346TIP3   OH234452   2.345   3.912  11.803  0.3534  0.3748  0.4984
 4346TIP3    H134453   2.303   3.876  11.881 -0.1851  1.2879  0.6447
 4346TIP3    H234454   2.412   3.848  11.780  0.7160  0.2407  1.8787
 4347TIP3   OH234455   6.699   2.835  12.550  0.1166  0.1891 -0.3605
 4347TIP3    H134456   6.738   2.911  12.594 -0.3185  1.1243 -1.5507
 4347TIP3    H234457   6.614   2.866  12.520 -0.5439 -1.1192  0.0951
 4348TIP3   OH234458   0.935   0.947   4.538  0.5214  0.2203  0.0678
 4348TIP3    H134459   0.869   0.999   4.491 -0.0494 -1.5170 -1.1640
 4348TIP3    H234460   1.017   0.965   4.491  1.1460  2.8108  1.9350
 4349TIP3   OH234461   5.277   1.606  14.003 -0.0162 -0.0745  0.2735
 4349TIP3    H134462   5.281   1.625  14.097 -0.9009  0.1380  0.2778
 4349TIP3    H234463   5.356   1.556  13.985  0.5296  0.5088  0.9937
 4350TIP3   OH234464   6.063   2.213   0.883  0.8187 -0.1432  0.0357
 4350TIP3    H134465   6.047   2.300   0.846 -0.6537  0.8699  2.7664
 4350TIP3    H234466   6.158   2.207   0.892  0.9154  1.3997  0.2637
 4351TIP3   OH234467   5.955   3.981   1.976  0.2425  0.6099  0.5932
 4351TIP3    H134468   5.871   3.934   1.974  1.2213 -1.2153  0.7240
 4351TIP3    H234469   5.930   4.073   1.983 -1.7674 -0.0103  3.2568
 4352TIP3   OH234470   6.022   2.551  13.173 -0.3639 -0.1298 -0.0256
 4352TIP3    H134471   6.022   2.474  13.230 -1.7283  0.9158  1.4856
 4352TIP3    H234472   6.074   2.525  13.097  1.7856 -1.4954  1.8003
 4353TIP3   OH234473   2.091   6.234   5.911  0.2957  0.2305  0.1316
 4353TIP3    H134474   2.054   6.225   5.998  1.4955 -1.4683  0.5175
 4353TIP3    H234475   2.143   6.314   5.914 -0.2602  0.5716  0.7383
 4354TIP3   OH234476   3.800   4.258   5.579  0.0350  0.3644 -0.2334
 4354TIP3    H134477   3.873   4.283   5.523  0.0556  1.9151  0.4464
 4354TIP3    H234478   3.762   4.182   5.535 -0.1285  1.6695 -2.5220
 4355TIP3   OH234479   6.647   2.062   5.966  0.8889  0.0706  0.4336
 4355TIP3    H134480   6.651   2.081   5.872  0.2408  1.0702  0.5919
 4355TIP3    H234481   6.585   2.126   6.001  0.5212 -0.7947  1.4234
 4356TIP3   OH234482   4.504   3.512   1.555  0.0362 -0.2312  0.4200
 4356TIP3    H134483   4.431   3.471   1.601  0.7131 -0.4509  1.3112
 4356TIP3    H234484   4.579   3.457   1.575  0.7097  0.7321  0.6060
 4357TIP3   OH234485   5.003   3.538   3.422  0.2936 -0.3251 -0.2642
 4357TIP3    H134486   5.078   3.496   3.464 -0.0043  0.0746  0.6855
 4357TIP3    H234487   4.928   3.484   3.448  0.2069 -0.5520 -0.9662
 4358TIP3   OH234488   3.415   4.856  11.014 -0.0469 -0.2315  0.5136
 4358TIP3    H134489   3.330   4.841  10.975 -0.0892  0.9313  0.1289
 4358TIP3    H234490   3.475   4.799  10.965 -0.3628  0.0365 -0.1956
 4359TIP3   OH234491   5.355   5.839  13.507  0.1848  0.0274 -0.1073
 4359TIP3    H134492   5.283   5.897  13.533  0.4038  0.5296 -0.5893
 4359TIP3    H234493   5.316   5.752  13.506 -0.7183  0.4035 -1.3524
 4360TIP3   OH234494   2.961   1.960  16.588  0.2095 -0.0225  0.2133
 4360TIP3    H134495   2.982   1.948  16.495 -1.4373  0.3509 -0.2411
 4360TIP3    H234496   3.042   1.936  16.634  0.9784 -0.4675 -1.2901
 4361TIP3   OH234497   2.869   0.243  11.479  0.1306  0.0306 -0.1199
 4361TIP3    H134498   2.784   0.200  11.468  0.4090  0.0079 -2.6989
 4361TIP3    H234499   2.920   0.182  11.532 -1.2468 -0.2053  1.0078
 4362TIP3   OH234500   1.484   4.049  13.163 -0.2737  0.1403 -0.1011
 4362TIP3    H134501   1.410   4.077  13.110 -0.3810  0.8056  0.3828
 4362TIP3    H234502   1.544   4.124  13.162  0.4014 -0.3996 -0.5037
 4363TIP3   OH234503   2.061   2.828   3.826 -0.0366  0.3391  0.8942
 4363TIP3    H134504   2.092   2.915   3.850  0.5507  1.0684 -2.1393
 4363TIP3    H234505   2.039   2.835   3.733 -1.7061 -2.2979  0.9944
 4364TIP3   OH234506   3.338   6.567   5.142  0.1232  0.3804  0.9906
 4364TIP3    H134507   3.347   6.565   5.238  0.8691 -3.6828  1.0078
 4364TIP3    H234508   3.428   6.570   5.110 -0.0733  0.5527  0.4497
 4365TIP3   OH234509   6.426   4.260  11.759 -0.0468 -0.3066 -0.3093
 4365TIP3    H134510   6.372   4.316  11.815 -2.0186 -0.5041 -1.8842
 4365TIP3    H234511   6.516   4.282  11.782 -0.7569  0.2557  2.2606
 4366TIP3   OH234512   4.008   0.592  12.782  0.3347  0.2932 -0.1514
 4366TIP3    H134513   4.022   0.594  12.876 -1.8654 -0.3375  0.2473
 4366TIP3    H234514   4.094   0.609  12.744  1.2536  0.5948  1.9552
 4367TIP3   OH234515   0.382   2.486  16.107 -0.1331  0.2622  0.1572
 4367TIP3    H134516   0.423   2.517  16.188 -1.1647  1.2913  0.3053
 4367TIP3    H234517   0.369   2.393  16.121 -0.8988  0.5337  1.4665
 4368TIP3   OH234518   6.368   4.983   1.660  0.1557  0.6169  0.9969
 4368TIP3    H134519   6.375   4.949   1.749 -2.1988 -1.2240  0.5804
 4368TIP3    H234520   6.390   4.908   1.604  1.2206  1.6397  0.0044
 4369TIP3   OH234521   1.603   6.494   4.491  0.1007  0.2229  0.4373
 4369TIP3    H134522   1.683   6.543   4.469 -0.1987  1.3025  1.6448
 4369TIP3    H234523   1.629   6.402   4.487  1.1661  0.5312 -0.0576
 4370TIP3   OH234524   4.240   5.884  13.141 -0.2377 -0.5688  0.0701
 4370TIP3    H134525   4.163   5.930  13.109  0.7241  0.6360 -0.6027
 4370TIP3    H234526   4.300   5.953  13.169  1.1875 -1.3765 -0.8228
 4371TIP3   OH234527   5.798   3.197  13.147  0.2194  0.0981  0.1299
 4371TIP3    H134528   5.832   3.261  13.209  0.4111  0.5753 -0.4555
 4371TIP3    H234529   5.852   3.209  13.068  0.9218 -1.4609  0.3318
 4372TIP3   OH234530   0.094   2.868  13.893  0.0125  0.2887 -0.1130
 4372TIP3    H134531   0.108   2.778  13.924  0.0108 -0.0363 -1.0387
 4372TIP3    H234532   0.006   2.867  13.856 -0.9285  1.2751  1.9481
 4373TIP3   OH234533   1.217   4.405   5.614 -0.1566  0.5472  0.6807
 4373TIP3    H134534   1.212   4.320   5.572 -1.1881  1.3906 -0.9811
 4373TIP3    H234535   1.188   4.389   5.704 -1.1063 -0.7024  0.1787
 4374TIP3   OH234536   2.320   4.037  16.181  0.2868 -0.0692 -0.6237
 4374TIP3    H134537   2.355   4.042  16.092 -3.3759 -0.1889 -2.2599
 4374TIP3    H234538   2.315   3.944  16.201  1.5953 -0.0342  0.0174
 4375TIP3   OH234539   6.139   4.618   1.586 -0.3781 -0.1213 -0.1470
 4375TIP3    H134540   6.234   4.615   1.581 -0.3682 -0.4317  0.1400
 4375TIP3    H234541   6.110   4.537   1.542 -0.4769 -0.3832  0.3901
 4376TIP3   OH234542   3.257   0.669  13.587  0.1945 -0.6579 -0.1875
 4376TIP3    H134543   3.164   0.681  13.605  0.6078  0.7864  1.1386
 4376TIP3    H234544   3.274   0.577  13.609 -0.8282 -0.8290 -0.0633
 4377TIP3   OH234545   6.583   0.613  11.330 -0.3773  0.0155  0.0381
 4377TIP3    H134546   6.587   0.577  11.241 -1.3946  0.5205 -0.2271
 4377TIP3    H234547   6.531   0.692  11.321 -1.7050 -0.6666  1.3155
 4378TIP3   OH234548   6.397   4.222  16.421 -0.0040 -0.2631  0.3519
 4378TIP3    H134549   6.460   4.291  16.399 -0.0535 -0.1776  0.4751
 4378TIP3    H234550   6.419   4.197  16.510 -0.6517  0.3289  0.6848
 4379TIP3   OH234551   5.115   0.183  11.184 -0.3652 -0.4677 -0.1706
 4379TIP3    H134552   5.113   0.177  11.279  0.4725 -2.5546 -0.2286
 4379TIP3    H234553   5.030   0.150  11.156 -1.0608  1.2294 -0.1488
 4380TIP3   OH234554   0.597   2.612  13.984 -0.1282 -0.5341  0.1203
 4380TIP3    H134555   0.579   2.530  13.939 -0.6329 -0.8116  0.8090
 4380TIP3    H234556   0.581   2.680  13.918 -0.5135 -0.9479 -0.2211
 4381TIP3   OH234557   5.920   5.119  14.438 -0.3031  0.4264  0.5710
 4381TIP3    H134558   5.919   5.091  14.347 -1.9476  0.4781  0.5424
 4381TIP3    H234559   5.974   5.198  14.439  0.9574 -0.3936 -0.0648
 4382TIP3   OH234560   6.642   0.909  11.357  0.7832  0.0595 -0.4393
 4382TIP3    H134561   6.632   0.938  11.267 -1.6130  1.0347  0.0631
 4382TIP3    H234562   6.572   0.845  11.370  1.3042 -0.3278  0.6382
 4383TIP3   OH234563   5.783   0.880   5.273  0.3569 -0.0799  0.3210
 4383TIP3    H134564   5.796   0.955   5.330  0.5731  0.4568 -0.4188
 4383TIP3    H234565   5.691   0.885   5.247 -0.0618 -0.9901  1.5245
 4384TIP3   OH234566   2.419   2.161  15.863 -0.0892  0.5669  0.0941
 4384TIP3    H134567   2.490   2.191  15.921 -0.6525 -0.0866  1.1527
 4384TIP3    H234568   2.361   2.236  15.856 -0.0982  0.6034  0.5119
 4385TIP3   OH234569   3.084   2.612  15.223 -0.4213 -0.1987  0.0215
 4385TIP3    H134570   3.085   2.566  15.140 -0.9072  2.8136 -1.8215
 4385TIP3    H234571   3.021   2.564  15.277 -0.4708 -1.9516 -1.4986
 4386TIP3   OH234572   3.925   5.441  12.278  0.3484  0.5304 -0.0999
 4386TIP3    H134573   3.902   5.508  12.342  0.2706 -0.6206  1.1159
 4386TIP3    H234574   4.004   5.474  12.235  0.1250  1.5366  0.2475
 4387TIP3   OH234575   0.438   0.157  11.108 -0.5551  0.4665  0.1043
 4387TIP3    H134576   0.478   0.133  11.024 -3.2675 -0.0110 -1.1723
 4387TIP3    H234577   0.507   0.204  11.155  0.8789  1.4067 -2.6957
 4388TIP3   OH234578   3.124   4.164  15.448 -0.6180 -0.1023  0.4943
 4388TIP3    H134579   3.194   4.126  15.396 -2.0364 -2.8364  0.3911
 4388TIP3    H234580   3.080   4.224  15.388  0.5627  0.3476  0.0510
 4389TIP3   OH234581   4.833   0.586   2.359 -0.8386 -0.2259 -0.1414
 4389TIP3    H134582   4.910   0.530   2.358 -0.3588  0.3854 -2.1418
 4389TIP3    H234583   4.763   0.532   2.323 -0.5074  0.2499 -1.5447
 4390TIP3   OH234584   1.310   4.516  12.739  0.6448  0.3944 -0.0680
 4390TIP3    H134585   1.358   4.591  12.775  0.2268  0.6286  0.0003
 4390TIP3    H234586   1.379   4.454  12.715  0.9676  0.5370  0.4639
 4391TIP3   OH234587   3.859   5.125  10.805  0.4746  0.2886 -0.0695
 4391TIP3    H134588   3.923   5.181  10.762  0.3740 -0.3470 -1.0661
 4391TIP3    H234589   3.775   5.169  10.788  0.3554 -0.3400 -1.1671
 4392TIP3   OH234590   6.641   1.911   2.348  0.0593 -0.2465 -0.4963
 4392TIP3    H134591   6.730   1.876   2.342  0.1065 -0.0067 -1.4543
 4392TIP3    H234592   6.586   1.843   2.309 -0.2319 -0.5382  0.3934
 4393TIP3   OH234593   0.113   3.893  11.276  0.4794 -0.0048 -0.2702
 4393TIP3    H134594   0.063   3.834  11.219  1.5574 -1.4597  0.2195
 4393TIP3    H234595   0.188   3.920  11.223  0.1322  0.7367 -0.3984
 4394TIP3   OH234596   0.086   2.131  14.232  0.4791 -0.1787  0.3578
 4394TIP3    H134597   0.159   2.112  14.173  2.1312 -1.3360  2.6418
 4394TIP3    H234598   0.095   2.067  14.303 -1.7182  0.8066  1.6218
 4395TIP3   OH234599   0.164   1.393   5.350  0.1343 -0.4618  0.2874
 4395TIP3    H134600   0.259   1.389   5.357  0.3560  0.8869 -1.2766
 4395TIP3    H234601   0.136   1.447   5.424  0.8987  1.4583 -0.7567
 4396TIP3   OH234602   4.575   4.260  12.306 -0.0483 -0.1863  0.2216
 4396TIP3    H134603   4.627   4.184  12.332  0.3057  0.2369  0.7607
 4396TIP3    H234604   4.576   4.257  12.210  0.6762 -0.3856  0.2254
 4397TIP3   OH234605   3.050   0.652   1.427  0.5804 -0.7927 -0.3234
 4397TIP3    H134606   3.118   0.673   1.363 -0.4192 -0.0874 -1.1846
 4397TIP3    H234607   3.002   0.734   1.440  1.6473 -0.4980  2.4922
 4398TIP3   OH234608   0.574   5.583  13.699 -0.3755  0.2691  0.0591
 4398TIP3    H134609   0.607   5.665  13.734  2.8550 -0.4602 -0.9174
 4398TIP3    H234610   0.584   5.521  13.771  1.1133 -0.0776 -0.4095
 4399TIP3   OH234611   6.194   4.884   0.585  0.3838  0.4435  0.7325
 4399TIP3    H134612   6.214   4.975   0.561 -1.4922  0.4483 -1.0889
 4399TIP3    H234613   6.239   4.871   0.669  1.9388  2.5544  0.3160
 4400TIP3   OH234614   3.291   5.694  12.039  0.1276 -0.4126  0.8150
 4400TIP3    H134615   3.247   5.763  12.089 -1.8916 -0.9848 -0.0696
 4400TIP3    H234616   3.321   5.738  11.959 -1.7755 -0.6457 -0.0708
 4401TIP3   OH234617   4.152   0.513   2.701  0.0514  0.1156  0.4979
 4401TIP3    H134618   4.174   0.600   2.667 -0.6870 -0.3802 -1.3770
 4401TIP3    H234619   4.056   0.512   2.704 -0.0036 -1.0616 -0.8041
 4402TIP3   OH234620   6.294   5.526  14.675 -0.6462  0.6803 -0.2065
 4402TIP3    H134621   6.210   5.487  14.699  0.1205 -0.6709  0.4179
 4402TIP3    H234622   6.351   5.451  14.658  0.5975  1.5505 -0.0311
 4403TIP3   OH234623   5.504   2.926   1.667 -0.1918  0.3618  0.0165
 4403TIP3    H134624   5.495   2.915   1.762 -1.6368  0.0562 -0.1321
 4403TIP3    H234625   5.460   2.849   1.630 -3.0465  2.2942 -0.9412
 4404TIP3   OH234626   5.896   0.133   4.609 -0.5089  0.1799 -0.1563
 4404TIP3    H134627   5.804   0.125   4.582 -0.4909  0.3741 -0.2782
 4404TIP3    H234628   5.912   0.055   4.661 -0.2653 -0.7216 -1.5181
 4405TIP3   OH234629   6.052   1.905  14.208  0.0262  0.3585  0.3046
 4405TIP3    H134630   6.104   1.985  14.213  0.0234  0.3238  1.2401
 4405TIP3    H234631   6.095   1.845  14.269 -1.1376  0.3636  1.1657
 4406TIP3   OH234632   3.420   5.025  13.616  0.5119  0.6862  0.3177
 4406TIP3    H134633   3.328   5.049  13.607  0.0011  0.8065  4.0887
 4406TIP3    H234634   3.466   5.080  13.552 -1.9266  1.1981 -1.1041
 4407TIP3   OH234635   3.730   2.583   6.338  0.7573  0.3649  0.4827
 4407TIP3    H134636   3.818   2.619   6.353 -0.3687  3.2249  0.9554
 4407TIP3    H234637   3.702   2.621   6.255 -0.0143 -0.5557  0.3049
 4408TIP3   OH234638   0.689   2.234  11.245 -0.3934 -0.2141 -0.2537
 4408TIP3    H134639   0.711   2.311  11.193 -1.1592 -0.7322 -1.3835
 4408TIP3    H234640   0.593   2.235  11.251 -0.3532 -0.5470  0.5625
 4409TIP3   OH234641   2.013   4.526   2.277 -0.0429  0.5111  0.1255
 4409TIP3    H134642   2.029   4.458   2.211  2.8338 -0.8816  2.0556
 4409TIP3    H234643   2.043   4.607   2.236  0.4674 -0.1066 -0.7479
 4410TIP3   OH234644   1.066   0.584   2.668 -0.0875  0.7798 -0.3612
 4410TIP3    H134645   1.062   0.596   2.763 -0.6023 -2.3234  0.1379
 4410TIP3    H234646   1.049   0.671   2.631  2.0577  2.5095  2.3348
 4411TIP3   OH234647   5.079   0.749  16.529 -0.3251 -0.8290  0.1045
 4411TIP3    H134648   5.026   0.741  16.609  0.5839  0.1244  0.8311
 4411TIP3    H234649   5.166   0.719  16.555 -0.1540 -1.0517 -0.6992
 4412TIP3   OH234650   3.268   5.493   4.756  0.5421  0.2702  0.0114
 4412TIP3    H134651   3.248   5.429   4.824 -2.0794  0.0863 -0.8097
 4412TIP3    H234652   3.321   5.560   4.800  1.0615 -1.1095  1.5580
 4413TIP3   OH234653   3.335   2.201  11.489  0.1594 -0.0365  0.1960
 4413TIP3    H134654   3.263   2.142  11.466  2.3617 -3.0044  0.2540
 4413TIP3    H234655   3.405   2.179  11.427  1.3273  2.1447  0.6209
 4414TIP3   OH234656   4.934   3.805   0.351  0.0460  0.3897 -0.0599
 4414TIP3    H134657   4.997   3.866   0.390  1.7244 -1.3112  0.0412
 4414TIP3    H234658   4.871   3.788   0.422 -0.5813  2.0921 -0.1519
 4415TIP3   OH234659   3.452   3.153   2.454  0.2958 -0.3761 -0.0176
 4415TIP3    H134660   3.390   3.107   2.510  0.0430 -1.5953 -1.2329
 4415TIP3    H234661   3.409   3.158   2.369  1.5392 -0.5669 -0.6872
 4416TIP3   OH234662   6.465   1.282   2.548  0.1638 -0.3409  1.1839
 4416TIP3    H134663   6.383   1.308   2.591  0.4422  1.1782  0.8667
 4416TIP3    H234664   6.461   1.187   2.544 -1.2125 -0.3412  1.9124
 4417TIP3   OH234665   0.309   3.252   1.361 -0.2583  0.1157 -0.1258
 4417TIP3    H134666   0.388   3.292   1.396  0.6385  1.0653 -2.9067
 4417TIP3    H234667   0.248   3.248   1.435  2.2880 -0.5288  2.0897
 4418TIP3   OH234668   6.808   5.583  13.112 -0.2664 -0.5138  0.0770
 4418TIP3    H134669   6.837   5.666  13.073 -1.7479  0.0326  0.0598
 4418TIP3    H234670   6.885   5.527  13.110  0.6583  0.7323 -0.2911
 4419TIP3   OH234671   6.714   4.103  14.327  0.1563  0.0293 -0.3298
 4419TIP3    H134672   6.674   4.074  14.245  0.3896  0.6421 -0.6655
 4419TIP3    H234673   6.808   4.086  14.315  0.3983  1.5304 -0.8150
 4420TIP3   OH234674   4.855   5.899  11.994 -0.2087  0.9787  0.7136
 4420TIP3    H134675   4.887   5.981  11.955 -1.1489  0.3205 -1.6317
 4420TIP3    H234676   4.800   5.928  12.068  1.6028  2.2942  1.6299
 4421TIP3   OH234677   2.571   0.218   4.328 -0.3402 -0.2253  0.0223
 4421TIP3    H134678   2.530   0.145   4.374 -0.1493 -0.0375  0.4995
 4421TIP3    H234679   2.632   0.177   4.267 -0.5407 -0.4785 -0.0066
 4422TIP3   OH234680   0.939   1.278   2.922  0.4168 -0.4992  0.8374
 4422TIP3    H134681   0.957   1.279   3.016  1.5752 -1.1438  0.6376
 4422TIP3    H234682   0.977   1.359   2.890 -0.8165  0.1831  1.0553
 4423TIP3   OH234683   5.489   3.810  15.169 -0.0352  0.3026  0.3030
 4423TIP3    H134684   5.512   3.738  15.109 -1.2948 -1.3158  1.6622
 4423TIP3    H234685   5.420   3.858  15.123  0.0561 -0.0141 -0.1704
 4424TIP3   OH234686   0.141   4.212   6.417  0.3893  0.4694 -0.6635
 4424TIP3    H134687   0.180   4.140   6.468  0.9850  0.5437 -1.0053
 4424TIP3    H234688   0.048   4.207   6.436  0.5429  0.1822  0.0492
 4425TIP3   OH234689   2.952   0.509  17.091 -0.5377 -0.1297  0.1067
 4425TIP3    H134690   2.891   0.436  17.092 -0.2505 -0.3727  0.1236
 4425TIP3    H234691   2.929   0.560  17.013  0.3675 -1.1881 -0.8866
 4426TIP3   OH234692   6.776   0.009   2.437 -0.5933  0.5375  0.2924
 4426TIP3    H134693   6.785  -0.087   2.435  0.4457  0.6338 -0.8575
 4426TIP3    H234694   6.710   0.025   2.504  1.0491 -0.8524  2.3874
 4427TIP3   OH234695   3.681   5.941   5.808  0.4234 -0.7509  0.4497
 4427TIP3    H134696   3.727   5.981   5.882  2.2091  0.2255 -1.0973
 4427TIP3    H234697   3.608   5.999   5.791 -0.5171 -1.4301  1.9094
 4428TIP3   OH234698   4.737   0.723  16.283  0.6200 -0.1830 -0.0235
 4428TIP3    H134699   4.651   0.695  16.312  0.8761  0.3547  1.3413
 4428TIP3    H234700   4.796   0.652  16.309  0.6305 -0.4818 -0.8205
 4429TIP3   OH234701   5.919   3.693   2.163  0.6512 -0.1071  0.0933
 4429TIP3    H134702   5.871   3.620   2.203  1.1771 -0.6217 -0.1931
 4429TIP3    H234703   5.911   3.764   2.226  0.2819 -0.4689  0.4649
 4430TIP3   OH234704   5.076   0.822   5.075  0.7070  0.3387  0.3017
 4430TIP3    H134705   5.105   0.731   5.078  2.5949  0.8451 -0.8656
 4430TIP3    H234706   4.983   0.818   5.098  0.3482 -2.0555 -1.1913
 4431TIP3   OH234707   2.529   6.669  15.502  0.3680  0.4916 -0.0973
 4431TIP3    H134708   2.600   6.611  15.473 -1.0820 -1.8869  0.8895
 4431TIP3    H234709   2.457   6.650  15.443 -0.1472  1.3306  0.2418
 4432TIP3   OH234710   3.996   0.236   3.009  0.8609 -0.6713 -0.1422
 4432TIP3    H134711   4.012   0.187   3.090 -0.9598  0.6680  1.1073
 4432TIP3    H234712   3.961   0.320   3.039 -1.3116 -0.6867 -2.3626
 4433TIP3   OH234713   0.655   3.951   3.337 -0.2428  0.2760 -0.5515
 4433TIP3    H134714   0.604   3.972   3.416  0.2986 -0.9449  0.1673
 4433TIP3    H234715   0.611   3.874   3.301  1.1577 -0.9281  0.1985
 4434TIP3   OH234716   0.469   1.815   4.932 -0.5325  0.8873 -0.1216
 4434TIP3    H134717   0.560   1.788   4.920 -0.8759 -0.6489  0.5402
 4434TIP3    H234718   0.474   1.910   4.945  0.6961  1.2680 -2.7876
 4435TIP3   OH234719   4.852   0.499   4.833 -0.7318  0.4575  0.3800
 4435TIP3    H134720   4.809   0.489   4.918 -1.3938  0.5205  0.0519
 4435TIP3    H234721   4.782   0.524   4.773 -0.0500  1.7200  0.0745
 4436TIP3   OH234722   0.772   2.099   1.458 -0.2612 -0.3345  0.0591
 4436TIP3    H134723   0.678   2.087   1.446 -0.0291 -1.2614 -0.9545
 4436TIP3    H234724   0.793   2.177   1.407 -0.3631 -0.5780 -0.3651
 4437TIP3   OH234725   0.219   3.730   5.686  0.0088  0.0064  0.2228
 4437TIP3    H134726   0.299   3.743   5.635  0.1274  0.8331  0.6022
 4437TIP3    H234727   0.176   3.654   5.645 -0.4624  1.2927 -1.8056
 4438TIP3   OH234728   1.958   1.062   0.175 -0.8281 -0.2302 -0.2461
 4438TIP3    H134729   1.993   1.123   0.240  0.6066 -0.8502 -0.3972
 4438TIP3    H234730   2.026   0.995   0.166 -1.8023 -1.1519 -1.0357
 4439TIP3   OH234731   4.014   1.632   3.606 -0.5888  0.8920  0.3028
 4439TIP3    H134732   4.103   1.661   3.587  0.1126 -0.6850  1.0625
 4439TIP3    H234733   3.989   1.680   3.685 -0.1706  0.8567  0.4557
 4440TIP3   OH234734   5.026   1.180   1.371 -0.2303 -0.2708  0.1523
 4440TIP3    H134735   5.011   1.153   1.462  1.0532 -0.1566  0.4103
 4440TIP3    H234736   4.953   1.239   1.351  0.3609  1.0079  1.6447
 4441TIP3   OH234737   6.811   5.897  11.390 -0.4784 -0.0308  0.0411
 4441TIP3    H134738   6.891   5.942  11.362 -0.0075 -0.5816  0.4773
 4441TIP3    H234739   6.817   5.811  11.348 -0.9003 -0.0345 -0.0133
 4442TIP3   OH234740   6.202   0.880  16.741  0.2470 -0.9597 -0.2653
 4442TIP3    H134741   6.115   0.878  16.702  0.0583 -1.8774  0.1855
 4442TIP3    H234742   6.262   0.869  16.667  0.1968  2.7636 -1.0763
 4443TIP3   OH234743   4.259   4.542  16.942  0.0253  0.2705 -0.1226
 4443TIP3    H134744   4.292   4.455  16.919  3.8171  1.6199 -0.5590
 4443TIP3    H234745   4.226   4.577  16.860 -0.2623 -0.2489 -0.2354
 4444TIP3   OH234746   1.905   6.061   0.005  0.0746  0.0416 -0.0573
 4444TIP3    H134747   2.001   6.062   0.001  0.1938 -0.2557  2.0005
 4444TIP3    H234748   1.878   6.074  -0.086  2.0518  1.6751 -0.4957
 4445TIP3   OH234749   4.361   3.662  11.515  0.0892  0.3241 -0.6553
 4445TIP3    H134750   4.429   3.638  11.453  0.2689 -0.2841 -0.2281
 4445TIP3    H234751   4.340   3.753  11.494  0.6015  0.3224 -1.1816
 4446TIP3   OH234752   5.862   6.556  12.829  0.5071  0.3806 -0.0893
 4446TIP3    H134753   5.941   6.502  12.833  1.6971  2.1420  2.2306
 4446TIP3    H234754   5.792   6.493  12.812  2.2706 -1.3199 -1.5707
 4447TIP3   OH234755   4.707   6.600   3.315 -0.3598 -0.2422 -0.2349
 4447TIP3    H134756   4.710   6.649   3.397 -1.1057  0.9375 -0.8879
 4447TIP3    H234757   4.748   6.516   3.336 -0.7936 -0.0778  1.4165
 4448TIP3   OH234758   1.288   5.414   0.233 -0.2910  0.2399  0.0581
 4448TIP3    H134759   1.293   5.318   0.243  1.7699  0.1442 -1.3653
 4448TIP3    H234760   1.240   5.443   0.311 -2.8693 -2.0906 -0.4827
 4449TIP3   OH234761   2.713   0.355   4.528 -0.4184 -0.0901  0.5876
 4449TIP3    H134762   2.675   0.420   4.587 -0.0565 -1.0577  1.9506
 4449TIP3    H234763   2.642   0.333   4.467 -0.8248  0.8915  0.6971
 4450TIP3   OH234764   5.531   1.051  12.361  0.4787 -0.1819  0.2343
 4450TIP3    H134765   5.458   1.048  12.424 -0.3120  0.0056 -0.6515
 4450TIP3    H234766   5.547   1.144  12.347  2.3484 -0.1444  2.0168
 4451TIP3   OH234767   5.057   2.312  11.706  1.0484 -1.0320  0.4720
 4451TIP3    H134768   5.038   2.269  11.790 -0.5418 -1.2131  0.0434
 4451TIP3    H234769   5.017   2.398  11.714  1.4014 -0.8324  0.1068
 4452TIP3   OH234770   1.822   0.996  13.301 -0.3291 -0.3360 -0.1473
 4452TIP3    H134771   1.915   0.983  13.320 -0.5055 -0.4635  0.6742
 4452TIP3    H234772   1.805   0.940  13.226  0.9632  2.0084 -2.3766
 4453TIP3   OH234773   2.606   6.249   4.127 -0.2464  0.2011  0.0336
 4453TIP3    H134774   2.676   6.255   4.062  0.3762  2.1660  0.8152
 4453TIP3    H234775   2.641   6.192   4.196 -0.5799 -1.1886 -0.9052
 4454TIP3   OH234776   6.487   6.723  14.433  0.5317  0.3239 -0.1745
 4454TIP3    H134777   6.418   6.660  14.452 -0.6806  2.0617  1.6196
 4454TIP3    H234778   6.559   6.698  14.492  1.2097 -1.0356 -1.5123
 4455TIP3   OH234779   1.479   1.868   2.161 -0.5172  0.1722  0.1151
 4455TIP3    H134780   1.536   1.868   2.084 -1.4825 -1.9896 -0.6612
 4455TIP3    H234781   1.413   1.935   2.143  0.3040  0.9414 -0.0898
 4456TIP3   OH234782   0.313   0.300   4.363  0.2364 -0.1547 -0.1610
 4456TIP3    H134783   0.384   0.274   4.305 -0.9898  0.6822 -2.1420
 4456TIP3    H234784   0.235   0.302   4.307 -1.4686 -1.3462  1.9662
 4457TIP3   OH234785   0.146   0.262   3.054  0.1351 -0.4538 -0.1395
 4457TIP3    H134786   0.172   0.329   3.118 -0.5914 -1.6295  1.4659
 4457TIP3    H234787   0.154   0.306   2.969 -0.3141  1.6795  0.8322
 4458TIP3   OH234788   5.083   6.514   3.468  0.2050  0.6879  0.3197
 4458TIP3    H134789   5.012   6.452   3.483 -0.5966  1.4154 -0.3231
 4458TIP3    H234790   5.101   6.508   3.374  0.5206  1.0080  0.3564
 4459TIP3   OH234791   0.175   2.587  12.375 -0.0752 -0.1751 -0.6488
 4459TIP3    H134792   0.087   2.559  12.399 -0.2697  1.0847  0.2061
 4459TIP3    H234793   0.232   2.546  12.440 -0.1511 -0.1083 -0.5397
 4460TIP3   OH234794   4.214   6.597  12.772  0.6742 -0.2962  0.1547
 4460TIP3    H134795   4.276   6.669  12.777 -0.0799  0.3843 -0.1418
 4460TIP3    H234796   4.155   6.609  12.846  0.8623 -0.9157  0.4132
 4461TIP3   OH234797   5.969   3.643  15.010 -0.5884 -0.1273 -0.1747
 4461TIP3    H134798   5.921   3.710  15.058 -1.7247 -1.4475  0.5982
 4461TIP3    H234799   5.945   3.657  14.919  0.5385  1.5570 -0.2604
 4462TIP3   OH234800   4.585   1.639  14.056  0.4815 -0.4184  0.9034
 4462TIP3    H134801   4.597   1.624  14.150 -1.5830 -1.0989  1.1126
 4462TIP3    H234802   4.523   1.571  14.029  0.5345  0.1743 -0.8243
 4463TIP3   OH234803   1.811   4.765   2.619  0.2201  0.5739 -0.4426
 4463TIP3    H134804   1.869   4.840   2.608 -0.6764  1.1708 -1.2348
 4463TIP3    H234805   1.847   4.718   2.695  3.2207 -0.4729 -2.3494
 4464TIP3   OH234806   4.339   2.629  11.683 -0.1924  0.0365  0.2362
 4464TIP3    H134807   4.278   2.568  11.725  1.5086 -1.3679  0.8516
 4464TIP3    H234808   4.386   2.669  11.756  0.1954  0.4504 -0.2379
 4465TIP3   OH234809   2.121   1.562   2.426 -0.3121  0.1461 -0.1052
 4465TIP3    H134810   2.137   1.499   2.496  1.2098  3.6291  3.0265
 4465TIP3    H234811   2.208   1.578   2.389 -0.5870  0.7254 -0.5097
 4466TIP3   OH234812   4.377   0.931  10.655  0.0428 -0.5236  0.2161
 4466TIP3    H134813   4.312   0.952  10.722  0.8048 -2.1053  1.4998
 4466TIP3    H234814   4.401   0.840  10.671 -1.3041 -1.7497 -3.5478
 4467TIP3   OH234815   4.169   6.504   3.726  0.3873  0.6516 -0.3556
 4467TIP3    H134816   4.162   6.528   3.818  0.9466 -0.9070  0.1436
 4467TIP3    H234817   4.118   6.423   3.718  1.5161 -0.0297 -1.0676
 4468TIP3   OH234818   5.439   1.043  13.465 -0.0902 -0.1272 -0.0861
 4468TIP3    H134819   5.408   0.967  13.513  3.1195 -0.3883  1.8942
 4468TIP3    H234820   5.448   1.112  13.532  0.4542  0.8554 -1.1344
 4469TIP3   OH234821   2.100   0.368  15.660 -0.2856 -0.2360 -0.0367
 4469TIP3    H134822   2.159   0.364  15.735 -0.1623  0.7576 -0.0664
 4469TIP3    H234823   2.114   0.455  15.623 -2.4667  0.4237  0.5476
 4470TIP3   OH234824   0.409   3.127   1.104  0.3054  0.2100  0.2568
 4470TIP3    H134825   0.383   3.166   1.188 -1.1802 -2.6042  1.2133
 4470TIP3    H234826   0.361   3.177   1.038 -1.4727  0.0964  1.4113
 4471TIP3   OH234827   3.646   5.259  15.269 -0.8972  0.1273 -0.2904
 4471TIP3    H134828   3.677   5.341  15.230  2.0770  0.0948  1.6660
 4471TIP3    H234829   3.662   5.193  15.202  0.9620  0.5371 -0.2918
 4472TIP3   OH234830   1.438   2.015   3.804  0.1393  0.1476 -0.2316
 4472TIP3    H134831   1.352   1.997   3.767 -1.4497  0.5000  2.9852
 4472TIP3    H234832   1.422   2.082   3.871  3.0929  0.9394 -0.1803
 4473TIP3   OH234833   3.823   1.848   3.380 -0.4619  0.1190  0.0637
 4473TIP3    H134834   3.741   1.805   3.355 -0.6995  0.9055 -0.5372
 4473TIP3    H234835   3.825   1.842   3.476 -1.9785  1.4246  0.2166
 4474TIP3   OH234836   1.237   2.895   6.248  1.1029 -0.0560 -0.2824
 4474TIP3    H134837   1.146   2.915   6.227  0.8946  1.5089  1.8060
 4474TIP3    H234838   1.239   2.800   6.255  0.1285 -0.2911 -2.2511
 4475TIP3   OH234839   3.964   4.935  17.090 -0.0043 -0.7595 -0.0857
 4475TIP3    H134840   4.028   4.896  17.149 -0.4591 -1.0108  0.2490
 4475TIP3    H234841   4.003   5.018  17.063  0.3562 -0.8042  0.2944
 4476TIP3   OH234842   4.843   3.549  12.693 -0.1901 -0.4668  0.0479
 4476TIP3    H134843   4.868   3.547  12.601  2.8056 -0.1302  0.7324
 4476TIP3    H234844   4.884   3.471  12.731  0.6524  0.5934  1.4628
 4477TIP3   OH234845   1.266   5.196   0.608 -0.0804 -0.2909  0.4616
 4477TIP3    H134846   1.182   5.153   0.618 -0.6771  1.2566  3.2864
 4477TIP3    H234847   1.328   5.140   0.654  0.0230 -0.3911  0.2008
 4478TIP3   OH234848   6.404   2.134   1.744  0.1103 -0.0518 -0.1708
 4478TIP3    H134849   6.468   2.203   1.758 -0.1354  0.4007 -1.1434
 4478TIP3    H234850   6.396   2.090   1.828 -0.5608  1.8062  0.8040
 4479TIP3   OH234851   1.161   4.642   2.747 -0.5068 -0.3201  0.3031
 4479TIP3    H134852   1.225   4.576   2.772  0.9107  0.4694 -1.0595
 4479TIP3    H234853   1.165   4.707   2.818  1.5239  0.5872 -0.5759
 4480TIP3   OH234854   5.624   6.502   2.417  0.2441 -0.3153  0.2752
 4480TIP3    H134855   5.687   6.452   2.364 -0.0653  0.3284 -0.7284
 4480TIP3    H234856   5.658   6.591   2.417 -0.0636 -0.1992  0.6831
 4481TIP3   OH234857   1.741   0.748   1.288 -0.1592  0.2884  0.2989
 4481TIP3    H134858   1.672   0.682   1.283  0.9356 -0.8445 -0.5666
 4481TIP3    H234859   1.800   0.727   1.215  1.9316  0.2395  1.9097
 4482TIP3   OH234860   0.459   1.329   3.054  0.2520 -0.3169 -0.0550
 4482TIP3    H134861   0.539   1.350   3.007  1.0168 -0.3583  1.1766
 4482TIP3    H234862   0.406   1.409   3.048  1.0048  0.2250  0.3225
 4483TIP3   OH234863   2.901   3.807  12.913  0.2299 -0.0862  0.1970
 4483TIP3    H134864   2.841   3.881  12.924 -3.0356 -2.0366 -2.3057
 4483TIP3    H234865   2.888   3.754  12.992 -1.2287 -0.2895 -0.1351
 4484TIP3   OH234866   1.388   6.089   2.308  0.5294  0.4712  0.5873
 4484TIP3    H134867   1.394   6.007   2.259 -0.3456  0.3642  0.6316
 4484TIP3    H234868   1.374   6.156   2.241 -0.4335  0.3548  0.6538
 4485TIP3   OH234869   6.612   6.627   2.220 -0.3553 -0.2051  0.0654
 4485TIP3    H134870   6.525   6.610   2.258  0.3071 -1.7429  0.9847
 4485TIP3    H234871   6.664   6.550   2.244  0.5089 -0.6364 -2.8352
 4486TIP3   OH234872   5.516   1.240  15.541  0.1099  0.4615  0.1981
 4486TIP3    H134873   5.437   1.276  15.501  0.2999 -0.6268 -1.2264
 4486TIP3    H234874   5.550   1.311  15.595 -2.4266  0.5915  1.7839
 4487TIP3   OH234875   0.018   1.261   2.598 -0.0602 -0.2491  0.4342
 4487TIP3    H134876   0.018   1.256   2.502  1.1700 -0.0659  0.4080
 4487TIP3    H234877   0.030   1.354   2.617 -0.6326 -0.2389  0.7833
 4488TIP3   OH234878   2.482   5.709  14.095  0.2787 -0.2355 -0.1928
 4488TIP3    H134879   2.467   5.804  14.088 -1.3563 -0.3636  1.0053
 4488TIP3    H234880   2.574   5.701  14.117  0.2642  1.1352  0.4543
 4489TIP3   OH234881   3.134   3.685  15.461 -0.0011  0.4407  0.3167
 4489TIP3    H134882   3.180   3.602  15.474 -0.2779  0.2608  0.1484
 4489TIP3    H234883   3.042   3.660  15.449  0.4049  0.3261 -4.2325
 4490TIP3   OH234884   4.721   3.803   0.558 -0.9038  0.1556 -0.2502
 4490TIP3    H134885   4.676   3.733   0.606  1.1234  0.2263  1.8916
 4490TIP3    H234886   4.715   3.879   0.615 -0.5310  0.9433 -1.2377
 4491TIP3   OH234887   3.594   5.608   3.492  0.1546 -0.1645 -0.5602
 4491TIP3    H134888   3.580   5.622   3.586  0.4760 -0.9210 -0.3937
 4491TIP3    H234889   3.525   5.546   3.467  0.0620  0.0462 -0.8243
 4492TIP3   OH234890   5.654   0.937   4.972  0.1129 -0.7181  0.0034
 4492TIP3    H134891   5.729   0.990   5.001 -0.1194  0.1369 -0.9056
 4492TIP3    H234892   5.679   0.907   4.885 -0.6336 -0.3494 -0.3459
 4493TIP3   OH234893   1.007   1.748   5.455  0.3770  0.7802  0.0086
 4493TIP3    H134894   0.970   1.828   5.492 -0.5061  1.0680 -1.4317
 4493TIP3    H234895   1.077   1.778   5.397  0.3682  0.4809 -0.1621
 4494TIP3   OH234896   2.503   2.138  17.057 -0.3648  0.5170  0.0277
 4494TIP3    H134897   2.433   2.117  17.118 -0.7084  1.3922 -0.0487
 4494TIP3    H234898   2.487   2.229  17.033 -0.3660  0.1289 -1.5470
 4495TIP3   OH234899   3.238   0.342  14.231  0.4318  0.3639 -0.3200
 4495TIP3    H134900   3.326   0.348  14.195  0.5638  1.0637  0.0968
 4495TIP3    H234901   3.237   0.406  14.302  0.0054 -0.5714  0.5420
 4496TIP3   OH234902   5.925   0.484  16.370  0.8301  0.1865  0.0618
 4496TIP3    H134903   5.938   0.392  16.392  2.0233  0.7496  1.8941
 4496TIP3    H234904   5.854   0.512  16.429 -0.1052  0.2765 -1.0647
 4497TIP3   OH234905   6.218   3.825  14.937  0.1094  0.6212  0.1636
 4497TIP3    H134906   6.198   3.914  14.908 -1.6878 -0.0207 -0.6830
 4497TIP3    H234907   6.135   3.778  14.930  1.0529 -1.1649  0.4564
 4498TIP3   OH234908   4.959   2.435   4.122 -0.3116 -0.5027  0.0858
 4498TIP3    H134909   4.869   2.418   4.094 -0.4324 -0.6686  0.5562
 4498TIP3    H234910   5.011   2.427   4.043 -0.7625  0.0127 -0.2745
 4499TIP3   OH234911   4.678   1.514  11.286  0.4442  0.6184  0.5648
 4499TIP3    H134912   4.603   1.488  11.233  1.6299 -1.2380 -0.3152
 4499TIP3    H234913   4.687   1.609  11.272  0.5189  0.2594 -2.3511
 4500TIP3   OH234914   5.076   3.142   5.111  0.1510 -0.6634  0.3948
 4500TIP3    H134915   5.088   3.101   5.197  0.5106  1.1350  1.2439
 4500TIP3    H234916   5.050   3.232   5.131  0.4366 -0.1569 -1.3969
 4501TIP3   OH234917   0.850   3.751   2.082  0.4139  1.1300 -0.0718
 4501TIP3    H134918   0.784   3.812   2.115 -0.1361 -0.5761  2.1933
 4501TIP3    H234919   0.930   3.772   2.130  0.7954  1.3512 -0.7747
 4502TIP3   OH234920   6.387   3.499  11.601  0.1286 -0.0148  0.3780
 4502TIP3    H134921   6.388   3.414  11.644  0.3342  0.0538  0.5113
 4502TIP3    H234922   6.294   3.516  11.585  0.1163 -0.4294  0.0087
 4503TIP3   OH234923   0.555   1.660  12.340  0.0018 -0.2207  0.0185
 4503TIP3    H134924   0.605   1.671  12.421  2.0064  0.3315 -1.2332
 4503TIP3    H234925   0.592   1.724  12.280  1.2202 -3.0815 -2.5465
 4504TIP3   OH234926   3.806   2.279   4.067 -0.0715 -0.3293  0.5985
 4504TIP3    H134927   3.806   2.298   4.161 -0.1212  0.2436  0.4909
 4504TIP3    H234928   3.831   2.187   4.061 -3.5599 -1.4947  1.3831
 4505TIP3   OH234929   1.721   4.689   2.367  0.1789 -0.0778  0.5761
 4505TIP3    H134930   1.790   4.716   2.427 -0.3336  0.8627  0.7555
 4505TIP3    H234931   1.648   4.748   2.386 -0.3345 -0.4216 -0.2791
 4506TIP3   OH234932   6.243   6.503   2.131 -0.9157  0.1389  0.0556
 4506TIP3    H134933   6.305   6.431   2.143 -2.0970 -1.1113 -0.9851
 4506TIP3    H234934   6.172   6.465   2.079 -1.5369  2.0965 -0.6233
 4507TIP3   OH234935   0.535   6.625   2.272 -0.0317 -0.9561 -0.5243
 4507TIP3    H134936   0.606   6.635   2.209  0.3786  1.7168  0.2336
 4507TIP3    H234937   0.495   6.712   2.277 -1.2232 -1.5465  1.5362
 4508TIP3   OH234938   6.331   3.121  16.175  0.2712  0.1946  0.2390
 4508TIP3    H134939   6.397   3.051  16.182  0.2415  0.3597  4.5557
 4508TIP3    H234940   6.252   3.076  16.146  1.2348 -0.7157 -1.1499
 4509TIP3   OH234941   1.030   5.206  14.873  0.2322  0.3911 -0.2438
 4509TIP3    H134942   1.050   5.227  14.964  0.6803 -1.4917  0.1392
 4509TIP3    H234943   1.084   5.130  14.854 -0.1023  0.5568 -1.9965
 4510TIP3   OH234944   1.605   5.490   2.271  0.5126 -0.3083 -0.1381
 4510TIP3    H134945   1.518   5.528   2.284  0.4418 -1.0270  1.8750
 4510TIP3    H234946   1.617   5.489   2.176 -1.7372 -0.3335 -0.4823
 4511TIP3   OH234947   5.820   3.939  15.746  0.0593 -0.7560  0.3492
 4511TIP3    H134948   5.764   3.973  15.677  1.4737 -2.1845 -1.6091
 4511TIP3    H234949   5.772   3.864  15.780  0.1494 -1.1440 -0.3615
 4512TIP3   OH234950   0.055   2.437   2.110  0.0139 -0.2046 -0.1580
 4512TIP3    H134951   0.085   2.510   2.164 -1.5187 -0.2830  0.8545
 4512TIP3    H234952   0.050   2.473   2.021  1.6452  0.1878 -0.1326
 4513TIP3   OH234953   6.063   2.462   2.913 -0.7416  0.1242  0.1825
 4513TIP3    H134954   6.048   2.457   3.008 -1.5391  0.4703  0.0827
 4513TIP3    H234955   6.159   2.464   2.904 -0.6619  0.3453  0.9914
 4514TIP3   OH234956   2.229   1.680  15.922 -0.1981 -0.0172 -0.6102
 4514TIP3    H134957   2.302   1.644  15.972 -0.5550 -2.5966 -1.7629
 4514TIP3    H234958   2.153   1.672  15.981  0.2772  2.2622  0.4256
 4515TIP3   OH234959   2.592   0.681  13.715 -0.3969  0.6656  0.4102
 4515TIP3    H134960   2.668   0.623  13.705  0.7798  2.1347  0.5217
 4515TIP3    H234961   2.531   0.631  13.769  1.1282  0.0173  1.6097
 4516TIP3   OH234962   2.836   0.932  13.115 -0.2371  0.4107  0.3806
 4516TIP3    H134963   2.932   0.923  13.112 -0.2460  0.2624  0.5578
 4516TIP3    H234964   2.820   1.021  13.082 -0.1172  0.0412 -0.7067
 4517TIP3   OH234965   2.081   0.937   1.840 -0.1711 -0.1634 -0.1355
 4517TIP3    H134966   2.082   0.931   1.744 -2.6072  3.3794 -0.5969
 4517TIP3    H234967   1.996   0.976   1.860 -0.1545 -1.6863  3.6317
 4518TIP3   OH234968   5.299   1.824   3.681 -0.5875 -0.1339  0.2199
 4518TIP3    H134969   5.345   1.899   3.720  1.3241 -1.2322  0.2274
 4518TIP3    H234970   5.314   1.834   3.587  0.7746 -1.1427  0.3055
 4519TIP3   OH234971   0.126   0.601  12.709  0.7622  0.2709 -0.2062
 4519TIP3    H134972   0.061   0.605  12.779  1.0122 -0.9588  0.1158
 4519TIP3    H234973   0.146   0.508  12.699 -0.1095  0.2593 -2.7127
 4520TIP3   OH234974   4.303   2.077  13.905 -0.3322 -0.4591  0.3037
 4520TIP3    H134975   4.210   2.057  13.897 -0.6440  0.3558  1.5564
 4520TIP3    H234976   4.310   2.126  13.987  0.8573  1.5370 -0.9055
 4521TIP3   OH234977   6.103   5.578   0.661  0.1667  0.5825  0.1436
 4521TIP3    H134978   6.104   5.488   0.694  1.3264  0.8382  0.8585
 4521TIP3    H234979   6.035   5.578   0.594  0.5153 -0.9606 -0.2510
 4522TIP3   OH234980   1.852   4.024  15.839 -0.4544  0.1887  0.0698
 4522TIP3    H134981   1.913   3.957  15.869  0.1026  1.1497  1.1701
 4522TIP3    H234982   1.808   4.055  15.918 -1.9951 -0.0895 -0.6411
 4523TIP3   OH234983   6.477   1.332   3.087 -0.3226  0.5410  0.4625
 4523TIP3    H134984   6.442   1.420   3.102 -0.8897  0.4074 -0.0385
 4523TIP3    H234985   6.539   1.343   3.015  2.7821  1.2755  2.9994
 4524TIP3   OH234986   0.927   2.268  14.990  0.1267  0.2442  0.3769
 4524TIP3    H134987   0.931   2.173  15.000  2.1791 -0.1705 -2.9342
 4524TIP3    H234988   0.995   2.301  15.050  1.1011 -0.6126 -0.2200
 4525TIP3   OH234989   1.350   4.629   3.437 -0.1141 -0.1527  0.6297
 4525TIP3    H134990   1.313   4.614   3.350 -0.5928 -0.0112  0.8060
 4525TIP3    H234991   1.312   4.711   3.466  0.6980  0.2367  0.6312
 4526TIP3   OH234992   5.978   3.063  16.355  0.1917  0.0403  0.0384
 4526TIP3    H134993   5.941   2.986  16.398  2.2681 -1.2625 -0.3664
 4526TIP3    H234994   5.971   3.132  16.420 -2.1333 -0.3132  0.2542
 4527TIP3   OH234995   4.119   1.321   2.589 -0.2663  0.0816 -0.6142
 4527TIP3    H134996   4.048   1.259   2.568 -1.6385  1.2805  0.3169
 4527TIP3    H234997   4.093   1.403   2.547 -0.1384  0.9104  0.8577
 4528TIP3   OH234998   2.156   4.721  10.991  0.1023 -0.3613  0.5976
 4528TIP3    H134999   2.214   4.767  10.930  0.1003 -0.7203  0.3272
 4528TIP3    H235000   2.188   4.631  10.993  1.4613  0.0902  2.7818
 4529TIP3   OH235001   0.017   1.464   1.821  0.1427 -0.1341  0.1445
 4529TIP3    H135002   0.087   1.399   1.812  2.2300  2.0772 -0.7394
 4529TIP3    H235003  -0.061   1.420   1.787  1.1267 -2.5643  0.7797
 4530TIP3   OH235004   4.463   4.671   1.515 -0.2599 -0.0384  0.2108
 4530TIP3    H135005   4.527   4.725   1.562 -0.4428 -0.2155  0.6618
 4530TIP3    H235006   4.405   4.735   1.473  0.9201  0.1556 -1.2194
 4531TIP3   OH235007   3.402   0.878   2.203 -0.2636 -0.6121 -0.0954
 4531TIP3    H135008   3.448   0.806   2.158 -1.1894 -0.1709 -1.8542
 4531TIP3    H235009   3.464   0.951   2.201  0.0342 -0.8556  0.1468
 4532TIP3   OH235010   0.300   2.182   2.280  0.0721 -0.2526 -0.0874
 4532TIP3    H135011   0.370   2.119   2.296  0.6770  0.2613 -0.6280
 4532TIP3    H235012   0.271   2.208   2.368  1.6214  0.6678  0.1913
 4533TIP3   OH235013   5.643   6.412  16.245 -0.0893 -0.3561 -0.5285
 4533TIP3    H135014   5.567   6.417  16.187 -1.4268 -1.9799  0.9655
 4533TIP3    H235015   5.717   6.393  16.188 -1.2067 -1.0339 -1.7884
 4534TIP3   OH235016   2.911   5.846  16.189  0.1559  0.4144  0.3630
 4534TIP3    H135017   3.000   5.818  16.212  0.1533  0.6762  0.6848
 4534TIP3    H235018   2.875   5.772  16.139 -0.2578 -0.6582  2.1688
 4535TIP3   OH235019   3.678   5.205  16.487 -0.8329  0.0550  0.3791
 4535TIP3    H135020   3.662   5.126  16.538 -0.9316  0.1685  0.5254
 4535TIP3    H235021   3.624   5.194  16.409  0.4664 -0.8144 -0.4372
 4536TIP3   OH235022   4.147   3.082   0.159 -0.0964 -0.0126 -0.5503
 4536TIP3    H135023   4.208   3.139   0.113  0.1805 -1.4303 -2.0212
 4536TIP3    H235024   4.143   3.003   0.106 -1.0994 -1.0514  0.9831
 4537TIP3   OH235025   2.878   3.496   1.907  0.4853 -0.4476  0.3809
 4537TIP3    H135026   2.905   3.554   1.978  2.1300  0.3255 -0.8122
 4537TIP3    H235027   2.952   3.436   1.895  0.0623 -0.8215 -0.4258
 4538TIP3   OH235028   1.149   5.534   6.157  0.0092  0.0556  0.1478
 4538TIP3    H135029   1.190   5.587   6.226 -0.4959  1.1575 -0.3644
 4538TIP3    H235030   1.164   5.585   6.077 -1.4865 -0.0089 -0.1904
 4539TIP3   OH235031   3.048   1.448   0.772 -0.1879 -0.2414 -0.0853
 4539TIP3    H135032   3.006   1.367   0.743 -0.7167 -0.1093  0.2978
 4539TIP3    H235033   3.111   1.469   0.702 -0.9062 -0.3353 -0.7702
 4540TIP3   OH235034   5.923   2.026   2.093 -0.3423  0.1823  0.2041
 4540TIP3    H135035   5.994   2.067   2.044  0.8270 -0.5117  1.2346
 4540TIP3    H235036   5.950   1.934   2.103 -1.8303 -0.3298 -0.1560
 4541TIP3   OH235037   5.460   0.606   1.947 -0.0519 -0.1837  0.2635
 4541TIP3    H135038   5.488   0.531   1.894 -0.1087 -0.4640  0.6216
 4541TIP3    H235039   5.411   0.661   1.886  1.1771  0.2717 -0.3434
 4542TIP3   OH235040   2.336   0.695   1.452  0.1879  0.7748  0.1331
 4542TIP3    H135041   2.395   0.760   1.411 -0.7269  1.5566  0.0122
 4542TIP3    H235042   2.395   0.633   1.494  1.2342 -0.3765 -2.7661
 4543TIP3   OH235043   2.684   5.615  16.859  0.1158 -0.1595 -0.1941
 4543TIP3    H135044   2.694   5.578  16.771  1.1768  0.4572 -0.3439
 4543TIP3    H235045   2.769   5.602  16.900  0.4096  1.7516 -0.1212
 4544TIP3   OH235046   2.658   4.686  14.175  0.2658  0.2758 -0.2347
 4544TIP3    H135047   2.569   4.662  14.152  0.2613 -0.6326  0.6484
 4544TIP3    H235048   2.713   4.632  14.118  0.2431 -0.7324  0.6588
 4545TIP3   OH235049   5.511   0.790  16.978  1.1612 -0.0445 -0.3816
 4545TIP3    H135050   5.538   0.793  17.070  2.8639  0.3962 -0.8581
 4545TIP3    H235051   5.487   0.880  16.956 -0.0701 -0.2979 -0.1720
 4546TIP3   OH235052   3.144   3.840   2.220 -0.1456  0.4016 -0.1640
 4546TIP3    H135053   3.162   3.927   2.185 -0.3466  0.8047  0.7035
 4546TIP3    H235054   3.229   3.808   2.249 -0.0997  0.3878 -0.3138
 4547TIP3   OH235055   6.006   0.297   1.239  0.6624 -0.0669  0.1212
 4547TIP3    H135056   5.923   0.345   1.245  0.7742  0.1457 -0.0301
 4547TIP3    H235057   5.982   0.212   1.202  0.9125  1.0876 -2.9964
 4548TIP3   OH235058   1.041   3.033   2.218 -0.0032  0.4361 -0.1011
 4548TIP3    H135059   1.104   3.047   2.289  0.3655 -0.3349 -0.2605
 4548TIP3    H235060   1.043   2.938   2.203  0.4313  0.6534 -1.5860
 4549TIP3   OH235061   0.661   0.760  12.404 -0.1544 -0.7299  0.6394
 4549TIP3    H135062   0.697   0.674  12.424  0.0384 -1.0471 -0.8942
 4549TIP3    H235063   0.635   0.753  12.312 -0.3182  0.7916  0.5563
 4550TIP3   OH235064   3.844   2.754  17.034 -0.8348  0.1730  0.2155
 4550TIP3    H135065   3.796   2.701  17.098 -2.2834  1.3011  0.1014
 4550TIP3    H235066   3.857   2.838  17.078 -0.3899  0.4155 -0.3730
 4551TIP3   OH235067   3.684   6.112  12.845  0.0002 -0.5575  0.1368
 4551TIP3    H135068   3.655   6.033  12.891  2.5290 -1.3211  0.5920
 4551TIP3    H235069   3.722   6.167  12.913 -1.9024  1.2512 -0.1420
 4552TIP3   OH235070   6.650   2.152  13.337 -0.1724  0.2959 -0.5057
 4552TIP3    H135071   6.683   2.100  13.410  0.2316  1.7271  0.3667
 4552TIP3    H235072   6.610   2.088  13.278  0.2783 -0.9844  0.5341
 4553TIP3   OH235073   2.718   1.021  13.771 -0.1850 -0.2091 -0.1420
 4553TIP3    H135074   2.786   1.076  13.733 -0.6700  1.8696  1.7268
 4553TIP3    H235075   2.740   0.932  13.744  1.3065  0.7538 -2.3680
 4554TIP3   OH235076   2.004   4.002   2.683 -0.1279 -0.0009  0.1842
 4554TIP3    H135077   1.971   3.915   2.705 -1.6621  0.4226 -0.3120
 4554TIP3    H235078   2.088   3.986   2.640  0.2953 -1.1333  1.3665
 4555TIP3   OH235079   3.055   6.079   5.408  0.1117  0.2166 -0.1235
 4555TIP3    H135080   3.040   5.991   5.373 -0.7672 -0.0001  0.7596
 4555TIP3    H235081   2.972   6.103   5.451  1.0427  0.5757  1.5590
 4556TIP3   OH235082   1.315   6.524  11.356 -0.2138 -0.5404  0.4179
 4556TIP3    H135083   1.318   6.610  11.314 -1.0654 -0.5639  0.2910
 4556TIP3    H235084   1.258   6.472  11.300  0.1669 -1.1441  0.5827
 4557TIP3   OH235085   4.664   2.876   5.377  0.8067  0.2625  0.1415
 4557TIP3    H135086   4.721   2.799   5.375 -1.1503 -1.2609 -0.1720
 4557TIP3    H235087   4.607   2.862   5.453 -0.3474  0.7733 -0.5955
 4558TIP3   OH235088   5.686   2.816   2.101  0.2778  0.1923  0.4623
 4558TIP3    H135089   5.665   2.786   2.189  0.8455  1.2061  0.9632
 4558TIP3    H235090   5.685   2.912   2.108 -0.3918  0.3019 -0.8043
 4559TIP3   OH235091   4.393   3.015   0.800  0.1495  0.0988  0.1849
 4559TIP3    H135092   4.354   2.947   0.854  0.8204  0.9483  1.7896
 4559TIP3    H235093   4.486   2.994   0.797  0.2321  0.4782 -0.0177
 4560TIP3   OH235094   2.861   0.952  16.715  0.4681  0.4280 -0.1764
 4560TIP3    H135095   2.868   0.881  16.651  0.3111 -0.2001  0.4942
 4560TIP3    H235096   2.942   1.001  16.705  0.8701 -0.2314 -0.1946
 4561TIP3   OH235097   4.097   3.258   3.849  0.6742  0.1991  0.0353
 4561TIP3    H135098   4.191   3.242   3.846  0.7699  0.8957 -0.9565
 4561TIP3    H235099   4.084   3.340   3.800 -0.4621  0.0081 -0.0190
 4562TIP3   OH235100   2.746   5.607  13.704 -0.3499 -0.6953  0.3339
 4562TIP3    H135101   2.653   5.615  13.727 -0.3372 -0.5552  0.3346
 4562TIP3    H235102   2.750   5.528  13.650 -0.6569 -0.0902 -0.6138
 4563TIP3   OH235103   2.042   2.379  13.009  0.5133  0.0489  0.0027
 4563TIP3    H135104   1.956   2.374  13.050  0.6465 -0.6198  0.2059
 4563TIP3    H235105   2.078   2.290  13.015  2.5750  0.9005  2.8809
 4564TIP3   OH235106   2.549   3.620  16.894 -0.3626 -0.4523  0.0333
 4564TIP3    H135107   2.558   3.568  16.814 -1.3526 -0.0613 -0.3501
 4564TIP3    H235108   2.582   3.563  16.963  3.5694  0.3449 -0.9787
 4565TIP3   OH235109   3.079   5.304  10.641 -0.4043  0.2402 -0.1060
 4565TIP3    H135110   3.058   5.217  10.607 -1.0445 -0.3458  1.6903
 4565TIP3    H235111   3.066   5.363  10.566 -1.0264 -1.0590 -1.0591
 4566TIP3   OH235112   5.017   0.242   4.645 -0.3078  0.1736  0.0123
 4566TIP3    H135113   4.974   0.291   4.575  2.6172  0.4482 -1.7845
 4566TIP3    H235114   5.089   0.299   4.673 -0.3703 -0.6801  2.0763
 4567TIP3   OH235115   5.555   0.412   3.090 -0.2232  0.4593 -0.1957
 4567TIP3    H135116   5.526   0.503   3.090  1.7996  1.1616  1.2825
 4567TIP3    H235117   5.491   0.367   3.145 -0.7591  1.1464 -0.2453
 4568TIP3   OH235118   5.955   5.937   4.295  0.4419 -0.2924  0.0102
 4568TIP3    H135119   5.905   6.016   4.276 -0.3756 -1.3571 -2.6066
 4568TIP3    H235120   5.903   5.890   4.360 -0.7417 -0.2446 -0.8922
 4569TIP3   OH235121   0.359   2.876   3.038  0.2123 -0.4675 -0.8121
 4569TIP3    H135122   0.397   2.919   2.962 -1.4595 -0.0293 -1.4391
 4569TIP3    H235123   0.321   2.795   3.003 -0.7139 -0.1834 -0.4901
 4570TIP3   OH235124   4.892   6.344   4.121  0.2622 -0.5085  0.1065
 4570TIP3    H135125   4.901   6.409   4.190 -1.0815 -1.1722  0.9500
 4570TIP3    H235126   4.893   6.260   4.167 -1.5336 -0.9366 -0.5379
 4571TIP3   OH235127   3.091   5.217  12.084  0.3034  0.0182  0.9417
 4571TIP3    H135128   3.135   5.134  12.103 -0.3399 -0.3335  0.9170
 4571TIP3    H235129   2.998   5.197  12.090  0.1410  1.1836  2.7568
 4572TIP3   OH235130   2.358   5.066   0.079  0.2470  0.2803  0.2931
 4572TIP3    H135131   2.379   5.143   0.027 -1.0921  1.4483  1.3987
 4572TIP3    H235132   2.282   5.027   0.035  1.2876 -0.8302 -0.6178
 4573TIP3   OH235133   0.515   5.469   0.041 -0.3481 -0.2677  0.2871
 4573TIP3    H135134   0.488   5.378   0.029 -0.9155 -0.2102  1.0853
 4573TIP3    H235135   0.567   5.489  -0.037 -1.9007 -0.6382 -0.8813
 4574TIP3   OH235136   0.070   3.969  15.292 -0.0315 -0.6997  0.0795
 4574TIP3    H135137   0.130   3.929  15.356 -1.0170 -0.9668  0.8576
 4574TIP3    H235138  -0.013   3.923  15.305 -0.0734 -1.2605 -1.9143
 4575TIP3   OH235139   6.147   1.035   5.654  0.9722  0.6650 -0.1257
 4575TIP3    H135140   6.078   1.000   5.599 -1.2643  1.8920  1.7193
 4575TIP3    H235141   6.215   0.968   5.654  0.2879 -0.1331 -2.8452
 4576TIP3   OH235142   2.004   0.046   1.592  1.2458  0.1071 -0.0647
 4576TIP3    H135143   1.963   0.121   1.636  0.4211 -1.1774  1.4439
 4576TIP3    H235144   1.946   0.027   1.518  0.1881 -0.4671  0.9008
 4577TIP3   OH235145   1.687   1.743   1.144  0.1706 -0.0131  0.1565
 4577TIP3    H135146   1.634   1.822   1.151 -1.4723 -1.2300  2.6323
 4577TIP3    H235147   1.631   1.681   1.098  0.4439 -0.5301  0.5144
 4578TIP3   OH235148   2.148   6.810   1.881  0.2985  0.5249 -0.7569
 4578TIP3    H135149   2.177   6.814   1.972  0.8895  1.9676 -0.9667
 4578TIP3    H235150   2.081   6.742   1.879  0.5839  0.1750  0.6633
 4579TIP3   OH235151   0.773   4.731   4.532  0.4190 -0.4040  0.1815
 4579TIP3    H135152   0.821   4.681   4.467  2.0062 -0.7963  1.5861
 4579TIP3    H235153   0.790   4.823   4.510  1.3574 -0.5380  0.3170
 4580TIP3   OH235154   5.939   2.218  14.351 -0.6902 -0.7690  0.1628
 4580TIP3    H135155   5.932   2.131  14.390 -0.0592  0.2418  2.6939
 4580TIP3    H235156   6.029   2.246  14.370 -0.9687  0.5444 -0.3599
 4581TIP3   OH235157   3.986   0.121   3.475  0.4967  0.3944  0.3218
 4581TIP3    H135158   4.033   0.084   3.550 -1.8952  0.4148  1.9575
 4581TIP3    H235159   3.957   0.045   3.425  1.5588  0.3576 -0.2556
 4582TIP3   OH235160   1.427   6.110  10.838  0.2566 -0.0977  0.0570
 4582TIP3    H135161   1.482   6.032  10.841 -0.1634 -0.4190 -0.3395
 4582TIP3    H235162   1.343   6.078  10.804 -0.0491  0.4508  0.2894
 4583TIP3   OH235163   5.228   0.505  11.538  0.7516  0.3883  0.0315
 4583TIP3    H135164   5.226   0.483  11.631  0.9014  2.5869  0.5988
 4583TIP3    H235165   5.196   0.425  11.494  3.9171 -1.9733  1.6377
 4584TIP3   OH235166   3.966   2.623   1.485  0.1912  0.1885  0.2664
 4584TIP3    H135167   4.002   2.544   1.444  0.1827  1.4595 -2.4321
 4584TIP3    H235168   3.872   2.605   1.493  0.3299 -0.4251  0.5836
 4585TIP3   OH235169   1.648   1.351   2.974  0.2696  0.4188 -0.1448
 4585TIP3    H135170   1.604   1.406   3.039  0.1452 -1.0447  1.0362
 4585TIP3    H235171   1.709   1.411   2.930 -1.1907  1.9354 -0.2141
 4586TIP3   OH235172   5.005   3.537   5.461 -0.0055  0.1252  0.1610
 4586TIP3    H135173   4.965   3.598   5.523 -1.1167 -0.2745 -0.1411
 4586TIP3    H235174   5.065   3.591   5.409  0.1577  0.6561  0.8834
 4587TIP3   OH235175   0.818   0.078  10.755 -0.1374  0.5717  0.1202
 4587TIP3    H135176   0.882   0.009  10.775 -0.9079  0.3047  1.8766
 4587TIP3    H235177   0.863   0.136  10.695  0.6161 -1.3574 -1.2962
 4588TIP3   OH235178   5.360   5.304  16.103 -0.4952  0.2635  0.3639
 4588TIP3    H135179   5.380   5.376  16.043  0.9743 -1.2697 -1.0876
 4588TIP3    H235180   5.268   5.318  16.126 -0.7897  1.5662 -1.3418
 4589TIP3   OH235181   3.907   2.433   3.010 -0.1406 -0.5023  0.2106
 4589TIP3    H135182   3.814   2.411   3.007 -0.0432 -0.7966 -1.0474
 4589TIP3    H235183   3.911   2.513   3.063 -0.9143 -1.4160  1.6980
 4590TIP3   OH235184   1.943   0.738   5.494  0.1486  0.5013  0.2559
 4590TIP3    H135185   2.038   0.749   5.485 -0.0303  1.0696 -1.2348
 4590TIP3    H235186   1.927   0.646   5.470  0.4320  0.0433  1.7263
 4591TIP3   OH235187   5.259   4.728   5.318 -0.5036  0.7027  0.4186
 4591TIP3    H135188   5.334   4.746   5.261 -0.8319 -0.1158 -0.2923
 4591TIP3    H235189   5.298   4.708   5.403  0.1220 -0.1486 -0.0541
 4592TIP3   OH235190   5.093   2.593  13.774 -0.1715 -0.1264 -0.0272
 4592TIP3    H135191   5.121   2.506  13.747 -2.5282 -0.8143 -0.5283
 4592TIP3    H235192   5.169   2.631  13.818  1.4036 -1.8266 -1.1306
 4593TIP3   OH235193   4.045   1.297   5.975 -0.2142 -0.4172  0.7776
 4593TIP3    H135194   3.962   1.279   5.930 -0.0304 -1.9655  1.0088
 4593TIP3    H235195   4.019   1.343   6.055 -0.7127  0.4656  0.1255
 4594TIP3   OH235196   4.486   4.163   5.686  0.2058 -0.3497  0.1467
 4594TIP3    H135197   4.455   4.177   5.776  1.3774  0.8758  0.3934
 4594TIP3    H235198   4.579   4.187   5.688  0.8885 -2.6307 -0.8699
 4595TIP3   OH235199   0.301   3.857   1.367 -1.1219 -0.9784 -0.1141
 4595TIP3    H135200   0.284   3.764   1.351  1.2619 -1.4214 -0.4608
 4595TIP3    H235201   0.340   3.859   1.455  0.3963 -0.5473 -0.7799
 4596TIP3   OH235202   4.978   1.504  16.100 -0.3896  0.5227  0.1630
 4596TIP3    H135203   4.898   1.456  16.123  1.2418 -1.4690  2.1497
 4596TIP3    H235204   4.999   1.473  16.011  0.0733 -1.8942  1.0181
 4597TIP3   OH235205   2.768   5.993  12.194  0.1143  0.2728 -0.0693
 4597TIP3    H135206   2.810   6.075  12.222  1.2710 -0.2282 -0.2677
 4597TIP3    H235207   2.813   5.925  12.244 -1.9056 -0.1510  1.2823
 4598TIP3   OH235208   6.457   5.630  16.566  0.1099  0.3626  0.2399
 4598TIP3    H135209   6.465   5.684  16.644  1.8844  0.7131 -0.1444
 4598TIP3    H235210   6.422   5.547  16.598  2.1466 -0.0221  1.6853
 4599TIP3   OH235211   0.970   5.176  15.351  0.2964 -0.2869  0.4065
 4599TIP3    H135212   0.961   5.123  15.430 -1.5988 -0.3912  0.1701
 4599TIP3    H235213   0.882   5.177  15.312  1.4120 -1.2855 -2.3887
 4600TIP3   OH235214   4.996   5.553  13.902 -0.0302  0.6954  0.4936
 4600TIP3    H135215   5.005   5.458  13.915  1.0297  0.7640  0.3306
 4600TIP3    H235216   5.028   5.592  13.983  0.5458  0.9407  0.1510
 4601TIP3   OH235217   3.279   4.813  14.451  0.0652 -0.2022  0.0387
 4601TIP3    H135218   3.250   4.866  14.525  2.4636  0.1048  0.8201
 4601TIP3    H235219   3.320   4.875  14.391 -0.5498 -0.6608 -0.8942
 4602TIP3   OH235220   2.611   4.911   3.699  0.4407  0.1466  0.7058
 4602TIP3    H135221   2.650   4.996   3.720  1.0240 -0.1607  0.8683
 4602TIP3    H235222   2.682   4.860   3.660  0.0167 -0.1697  0.3305
 4603TIP3   OH235223   4.665   3.171   0.333  0.2296  0.2821  0.2270
 4603TIP3    H135224   4.599   3.191   0.399  0.3463 -0.3139  0.5284
 4603TIP3    H235225   4.644   3.082   0.304  2.9250 -1.3870  2.8281
 4604TIP3   OH235226   6.259   4.089   1.263 -0.4298  0.1586 -0.1816
 4604TIP3    H135227   6.168   4.118   1.265 -0.4722 -0.0043  0.1649
 4604TIP3    H235228   6.310   4.167   1.286 -0.5823 -0.2130  1.5427
 4605TIP3   OH235229   3.964   1.406   1.992  0.0521  0.3990 -0.4672
 4605TIP3    H135230   3.883   1.357   1.979  0.0440  0.1555  0.4582
 4605TIP3    H235231   3.948   1.490   1.949 -0.7119  0.3675 -0.2550
 4606TIP3   OH235232   6.714   6.149   5.699  0.1877  0.4660 -1.0924
 4606TIP3    H135233   6.756   6.129   5.783 -0.1574 -0.7178 -1.1843
 4606TIP3    H235234   6.785   6.185   5.645  1.1131 -1.3938 -1.2117
 4607TIP3   OH235235   3.891   5.244  15.392  0.0789 -0.1331  0.2079
 4607TIP3    H135236   3.802   5.263  15.364 -0.5309 -0.8239  1.5589
 4607TIP3    H235237   3.891   5.264  15.486  0.6537 -2.3327  0.7423
 4608TIP3   OH235238   5.521   1.852  15.828 -0.0954 -0.2733  0.2827
 4608TIP3    H135239   5.514   1.830  15.735 -0.0106  1.6290 -0.2102
 4608TIP3    H235240   5.593   1.916  15.832  1.4586 -1.9839  1.9861
 4609TIP3   OH235241   1.441   0.357   3.151  0.6934 -0.0462  0.5871
 4609TIP3    H135242   1.454   0.321   3.238 -1.4821  0.8352  1.3535
 4609TIP3    H235243   1.526   0.393   3.127  1.0428  0.8533  2.9141
 4610TIP3   OH235244   1.216   0.634   5.846  0.6327  0.3718  0.4916
 4610TIP3    H135245   1.234   0.628   5.752  0.4337  1.1030  0.3973
 4610TIP3    H235246   1.302   0.626   5.888  0.4962 -2.1937  0.3849
 4611TIP3   OH235247   5.348   3.179   1.688  0.7060 -0.1686 -0.0471
 4611TIP3    H135248   5.368   3.088   1.669  1.0015  0.0624 -0.9275
 4611TIP3    H235249   5.363   3.224   1.605 -0.9851  0.4446 -0.0499
 4612TIP3   OH235250   4.990   2.092   6.035  0.5771 -0.1699 -0.2942
 4612TIP3    H135251   4.991   2.132   5.948  0.9341  0.6008  0.0560
 4612TIP3    H235252   4.917   2.031   6.033 -0.7121  1.3248 -0.4805
 4613TIP3   OH235253   5.654   4.147  16.849  0.3158  0.0351 -0.1500
 4613TIP3    H135254   5.735   4.194  16.830 -0.2003  0.1525 -2.3832
 4613TIP3    H235255   5.585   4.211  16.834 -0.2456 -0.1023  1.5925
 4614TIP3   OH235256   0.552   3.059   5.149 -0.3466  0.7006  0.4944
 4614TIP3    H135257   0.593   3.070   5.234 -0.3632 -1.0203  0.7541
 4614TIP3    H235258   0.623   3.028   5.092 -0.9089 -0.7756  0.5659
 4615TIP3   OH235259   0.299   4.570   1.342  0.2037 -0.3318  0.3273
 4615TIP3    H135260   0.348   4.537   1.267  1.5768 -0.5704  1.2969
 4615TIP3    H235261   0.344   4.534   1.419 -0.8881  0.2653  1.2893
 4616TIP3   OH235262   5.232   1.653  10.953 -0.0441 -0.2285  0.0938
 4616TIP3    H135263   5.251   1.678  11.043  0.1480 -1.3541  0.3800
 4616TIP3    H235264   5.317   1.654  10.909 -0.2051  0.8107 -0.2129
 4617TIP3   OH235265   6.385   6.752   2.581 -0.3033  0.1687  0.5132
 4617TIP3    H135266   6.345   6.819   2.637 -2.1859  1.0036 -1.6478
 4617TIP3    H235267   6.314   6.721   2.526  0.7373 -2.9788  0.7170
 4618TIP3   OH235268   6.304   2.226  11.230 -0.0726  0.3050 -0.2054
 4618TIP3    H135269   6.224   2.260  11.271  0.3583 -0.3309  1.2427
 4618TIP3    H235270   6.275   2.149  11.181 -0.9377  2.2307 -2.9364
 4619TIP3   OH235271   1.238   4.804   4.567  0.3704  0.0771 -0.3024
 4619TIP3    H135272   1.184   4.866   4.616 -0.1330  0.2063 -1.0165
 4619TIP3    H235273   1.179   4.734   4.543  0.9351 -0.6835  0.4780
 4620TIP3   OH235274   2.282   5.719  16.173 -0.2679  0.2093  0.0207
 4620TIP3    H135275   2.276   5.712  16.078 -2.3011 -0.7812  0.1697
 4620TIP3    H235276   2.375   5.709  16.191  0.4183  2.1631 -1.9397
 4621TIP3   OH235277   4.254   6.076   1.713 -0.2114 -0.1949  0.4298
 4621TIP3    H135278   4.235   6.005   1.652 -1.7647  0.4955  0.0772
 4621TIP3    H235279   4.179   6.077   1.773 -1.1565  2.3086 -0.6906
 4622TIP3   OH235280   3.347   0.404   1.162  0.4789 -0.1407  0.3837
 4622TIP3    H135281   3.263   0.406   1.209 -0.0966 -0.0547 -0.6086
 4622TIP3    H235282   3.384   0.318   1.182  0.8197  0.3410  1.9307
 4623TIP3   OH235283   4.423   5.848   5.481 -0.3782  0.4978 -0.0493
 4623TIP3    H135284   4.444   5.755   5.472 -0.6720  0.3514  0.6835
 4623TIP3    H235285   4.474   5.877   5.556  0.7204  1.2566 -1.0684
 4624TIP3   OH235286   6.017   0.143   5.922  0.5383 -0.3010  0.1489
 4624TIP3    H135287   5.937   0.092   5.912  1.4155 -1.5909 -0.6415
 4624TIP3    H235288   6.064   0.102   5.994 -1.1130  2.7623  3.2867
 4625TIP3   OH235289   5.016   5.798  16.663  0.2020  0.1210  0.2804
 4625TIP3    H135290   4.957   5.824  16.592  1.4246  0.7567 -0.5462
 4625TIP3    H235291   5.005   5.866  16.729 -2.0988 -1.2833  1.4712
 4626TIP3   OH235292   0.038   1.833  12.379 -0.5891  0.5664  0.1315
 4626TIP3    H135293  -0.039   1.792  12.418  0.7019 -0.6108  1.5965
 4626TIP3    H235294   0.110   1.773  12.399  0.6311  1.3238 -1.6943
 4627TIP3   OH235295   6.298   3.670   3.186 -0.2021  0.1591 -0.4937
 4627TIP3    H135296   6.393   3.674   3.197 -0.1220 -1.1281 -0.5946
 4627TIP3    H235297   6.273   3.584   3.219 -1.7813  1.6122  2.5668
 4628TIP3   OH235298   1.057   2.062  13.424 -0.3895  0.0822 -0.3791
 4628TIP3    H135299   1.075   1.981  13.376 -0.7489  0.1842 -0.6944
 4628TIP3    H235300   1.042   2.127  13.355 -0.4041  0.3440 -0.1270
 4629TIP3   OH235301   2.959   5.707  11.618  0.4518 -0.0180  0.4098
 4629TIP3    H135302   2.934   5.708  11.526 -0.9101  0.6204  0.7542
 4629TIP3    H235303   3.051   5.734  11.619  0.5462 -0.2610 -0.7672
 4630TIP3   OH235304   6.236   1.785   4.627 -0.0682 -0.2355 -0.2376
 4630TIP3    H135305   6.177   1.794   4.552  0.5123  0.0971 -0.6558
 4630TIP3    H235306   6.256   1.691   4.630 -0.6442 -0.3580 -0.0689
 4631TIP3   OH235307   2.318   5.062  16.718 -0.9281  0.0281  0.2093
 4631TIP3    H135308   2.268   5.139  16.743 -0.9442  0.4350 -1.0063
 4631TIP3    H235309   2.384   5.095  16.657 -0.1607 -0.7404  0.5981
 4632TIP3   OH235310   2.851   6.131  15.516 -0.0307 -0.1624 -0.1071
 4632TIP3    H135311   2.820   6.075  15.587 -0.8559 -0.0211 -0.3450
 4632TIP3    H235312   2.780   6.194  15.502  0.6713  0.6265 -0.1847
 4633TIP3   OH235313   5.120   6.485   3.736 -0.2640 -0.3571  0.0675
 4633TIP3    H135314   5.090   6.478   3.645  0.2094  2.2174 -0.3489
 4633TIP3    H235315   5.177   6.409   3.748  1.2472  0.2553 -2.4481
 4634TIP3   OH235316   1.403   0.482  16.059 -0.4327 -0.1786 -0.2360
 4634TIP3    H135317   1.316   0.513  16.087 -0.1232  1.1145 -0.6262
 4634TIP3    H235318   1.464   0.531  16.113  0.0809 -0.8791 -0.1667
 4635TIP3   OH235319   0.367   6.064  15.837  0.2578 -0.6689  0.0398
 4635TIP3    H135320   0.406   6.119  15.905  0.9231  0.0735 -0.9195
 4635TIP3    H235321   0.294   6.115  15.802  0.2057 -0.8483 -0.1186
 4636TIP3   OH235322   5.390   5.792  15.491  0.1660  0.4558 -0.7815
 4636TIP3    H135323   5.411   5.742  15.570  1.8034  2.4580  0.1841
 4636TIP3    H235324   5.321   5.743  15.447  1.4210 -2.3981  0.2323
 4637TIP3   OH235325   1.673   3.441   3.593 -0.3280  0.4904 -0.2379
 4637TIP3    H135326   1.740   3.465   3.529 -0.1077  0.2768 -0.0875
 4637TIP3    H235327   1.675   3.513   3.657 -0.2596  0.4956 -0.2459
 4638TIP3   OH235328   0.066   2.344   5.797  0.0558  0.1221 -0.5979
 4638TIP3    H135329   0.070   2.334   5.892 -2.4019  0.9046 -0.3236
 4638TIP3    H235330   0.070   2.254   5.764 -1.8744 -0.4259  0.4797
 4639TIP3   OH235331   0.560   2.708  14.257  0.1414 -0.2941 -0.6495
 4639TIP3    H135332   0.603   2.667  14.182  2.8452  0.9964  0.0517
 4639TIP3    H235333   0.623   2.699  14.328 -0.3779  2.4418  0.2688
 4640TIP3   OH235334   0.536   5.039  12.315  0.7474  0.3297 -0.4105
 4640TIP3    H135335   0.550   4.944  12.311  1.1138  0.4087 -2.1166
 4640TIP3    H235336   0.623   5.075  12.334  0.3879  0.2941  1.4085
 4641TIP3   OH235337   1.148   6.676   4.981 -0.4783  0.0663 -0.1045
 4641TIP3    H135338   1.214   6.611   4.956 -0.3647 -0.1535  0.7407
 4641TIP3    H235339   1.198   6.752   5.008 -0.6085  0.4371 -0.8810
 4642TIP3   OH235340   5.532   2.241   2.106  0.3243 -0.1669 -0.1539
 4642TIP3    H135341   5.533   2.316   2.165 -0.1030 -0.3557  0.1012
 4642TIP3    H235342   5.468   2.265   2.039  2.4278  1.0245 -1.8702
 4643TIP3   OH235343   0.983   5.778   0.140 -0.7830 -0.6062  0.2891
 4643TIP3    H135344   1.045   5.729   0.085  0.8422  0.2509  1.3013
 4643TIP3    H235345   1.032   5.799   0.219 -1.2672  2.9287 -0.1882
 4644TIP3   OH235346   0.337   2.583   0.657  0.1817 -0.2974  0.3807
 4644TIP3    H135347   0.265   2.521   0.669 -0.8401  1.1534  2.2986
 4644TIP3    H235348   0.316   2.630   0.576  0.7866 -2.1158 -0.9059
 4645TIP3   OH235349   4.607   1.243   0.392  0.5083  0.1342  0.2287
 4645TIP3    H135350   4.652   1.307   0.447 -0.1932  0.0750  0.8885
 4645TIP3    H235351   4.553   1.192   0.453  0.9869 -1.0290 -0.3064
 4646TIP3   OH235352   3.327   6.396   1.693  0.0486 -0.2555 -0.0115
 4646TIP3    H135353   3.341   6.302   1.677  1.8228  0.0134 -0.2611
 4646TIP3    H235354   3.410   6.437   1.668 -0.4434  1.3018  0.7915
 4647TIP3   OH235355   4.439   6.761  14.803 -0.3107  0.4612 -0.3927
 4647TIP3    H135356   4.532   6.783  14.801 -0.5713  1.6866  0.0085
 4647TIP3    H235357   4.437   6.666  14.796  1.0997  0.1796  1.8083
 4648TIP3   OH235358   3.530   4.297  14.029 -0.5217  0.7630 -0.2895
 4648TIP3    H135359   3.465   4.242  14.073  1.5126 -0.7377  1.0502
 4648TIP3    H235360   3.590   4.323  14.099  0.4162  1.9781 -1.4985
 4649TIP3   OH235361   2.673   0.992   4.068 -0.3683  0.1368  0.0896
 4649TIP3    H135362   2.674   0.904   4.106  0.8302 -0.3425 -0.9914
 4649TIP3    H235363   2.629   0.980   3.983  0.8863  0.3264 -0.5996
 4650TIP3   OH235364   4.695   5.137  16.344  0.0752 -0.5068  0.1924
 4650TIP3    H135365   4.699   5.166  16.435 -0.2048  0.4511 -0.0933
 4650TIP3    H235366   4.782   5.098  16.327  0.3130 -0.2040  0.7023
 4651TIP3   OH235367   2.374   2.552   1.124 -0.2642 -0.3591 -0.4745
 4651TIP3    H135368   2.384   2.465   1.164  0.2549  0.1985  0.6573
 4651TIP3    H235369   2.381   2.536   1.030  2.8192 -1.1995 -0.1956
 4652TIP3   OH235370   0.061   5.047  13.609  0.0546  0.2678 -0.1785
 4652TIP3    H135371  -0.031   5.040  13.631 -0.1564  1.2342 -0.7026
 4652TIP3    H235372   0.106   4.990  13.671 -0.8131  0.4583  0.6300
 4653TIP3   OH235373   0.776   5.521   1.475 -0.3286 -0.9141 -0.1001
 4653TIP3    H135374   0.729   5.521   1.392 -1.6204 -1.5961  0.6093
 4653TIP3    H235375   0.716   5.562   1.537  0.2043 -1.3359  0.7177
 4654TIP3   OH235376   3.756   4.164   5.827 -0.2486  0.1286 -0.7682
 4654TIP3    H135377   3.796   4.077   5.834  0.5695  0.4850 -0.8282
 4654TIP3    H235378   3.775   4.193   5.738  1.1971  1.1435 -0.1818
 4655TIP3   OH235379   4.187   1.708   4.031 -0.4620 -0.0807 -0.0216
 4655TIP3    H135380   4.242   1.662   3.967 -1.4819 -2.2755  0.5648
 4655TIP3    H235381   4.247   1.732   4.102  0.0559 -0.9544 -0.1515
 4656TIP3   OH235382   0.163   3.288  16.373 -0.7120 -0.1217  0.2247
 4656TIP3    H135383   0.194   3.243  16.451 -0.3153 -0.4658 -0.1252
 4656TIP3    H235384   0.212   3.248  16.301  0.6532  1.7554  0.0238
 4657TIP3   OH235385   4.033   4.959   0.431  0.3442  0.5769 -0.8357
 4657TIP3    H135386   4.043   5.034   0.489 -1.0160 -1.9848  3.1795
 4657TIP3    H235387   4.122   4.926   0.419  0.5678  0.0694  1.6578
 4658TIP3   OH235388   0.346   1.038   1.973 -0.0078  0.1920  0.2937
 4658TIP3    H135389   0.411   1.027   1.904 -0.9883 -1.2519 -0.4467
 4658TIP3    H235390   0.316   1.128   1.963 -0.6833 -0.2053 -1.7112
 4659TIP3   OH235391   1.120   1.673  13.003  0.3176 -0.1804  0.7877
 4659TIP3    H135392   1.042   1.692  13.055  0.9142 -0.3558  1.7742
 4659TIP3    H235393   1.161   1.598  13.046  1.7008  0.6878  1.0563
 4660TIP3   OH235394   1.842   3.343  14.730  0.0890 -0.2685 -0.0579
 4660TIP3    H135395   1.926   3.370  14.769  0.2810  0.3395 -0.8521
 4660TIP3    H235396   1.836   3.250  14.749  1.2378 -0.4536 -0.4817
 4661TIP3   OH235397   4.922   0.488   1.489 -0.7908 -0.4526 -0.1314
 4661TIP3    H135398   4.835   0.511   1.521 -0.4210  1.2447 -0.2635
 4661TIP3    H235399   4.974   0.567   1.501  0.7174 -1.4087 -0.1566
 4662TIP3   OH235400   6.403   4.419  15.019 -0.2165 -0.2121 -0.2345
 4662TIP3    H135401   6.360   4.498  15.051  1.3789  0.4927  0.3032
 4662TIP3    H235402   6.494   4.428  15.048 -0.2642 -2.9036  1.0529
 4663TIP3   OH235403   2.807   5.933   2.522 -0.0935 -0.0496 -0.0880
 4663TIP3    H135404   2.765   5.926   2.608 -0.7550 -0.6814 -0.4504
 4663TIP3    H235405   2.823   5.842   2.496 -0.3091  0.1225 -0.8291
 4664TIP3   OH235406   2.591   2.559   3.032 -0.0198 -0.5483  0.1144
 4664TIP3    H135407   2.535   2.484   3.051 -1.1132  0.1839 -0.0865
 4664TIP3    H235408   2.565   2.625   3.096 -0.6274  0.4040 -1.0722
 4665TIP3   OH235409   0.949   1.723  10.252 -0.2175 -0.2450  0.8968
 4665TIP3    H135410   0.971   1.812  10.280 -0.4724  0.5737 -1.3106
 4665TIP3    H235411   1.033   1.685  10.227 -0.1822 -0.4200  1.2777
 4666TIP3   OH235412   5.232   0.767   5.758 -0.8856  0.3090  0.2425
 4666TIP3    H135413   5.181   0.704   5.709 -1.1272 -0.5772  1.5803
 4666TIP3    H235414   5.172   0.802   5.824 -0.1891  0.3813  0.8625
 4667TIP3   OH235415   0.290   1.197   0.429  0.5864 -0.0444 -0.2150
 4667TIP3    H135416   0.381   1.167   0.436  0.0686 -1.6324 -0.0093
 4667TIP3    H235417   0.273   1.241   0.512  0.9121 -0.4579  0.0711
 4668TIP3   OH235418   2.183   3.270  13.138  0.8213  0.3515  0.3547
 4668TIP3    H135419   2.131   3.190  13.138  1.8837 -0.3608 -0.1708
 4668TIP3    H235420   2.124   3.338  13.106 -0.1136 -0.1937  0.8889
 4669TIP3   OH235421   2.763   0.473  16.625  0.3494  0.1707 -0.7464
 4669TIP3    H135422   2.695   0.437  16.569 -0.6045 -0.6332  0.8647
 4669TIP3    H235423   2.819   0.398  16.646 -0.8769 -0.2018  1.5328
 4670TIP3   OH235424   5.392   0.355  12.691 -0.0593 -0.4103 -0.1643
 4670TIP3    H135425   5.434   0.438  12.713  1.2070 -0.9396 -0.5069
 4670TIP3    H235426   5.320   0.347  12.754 -0.4693  1.1324 -0.3974
 4671TIP3   OH235427   0.916   2.205   0.585 -0.1055  0.3228 -0.1802
 4671TIP3    H135428   0.869   2.243   0.511  2.1613  0.7220 -1.5150
 4671TIP3    H235429   0.919   2.275   0.650  0.0624  0.8560 -0.7501
 4672TIP3   OH235430   1.194   3.599   5.712 -0.1214 -0.4286 -0.4675
 4672TIP3    H135431   1.154   3.567   5.631 -0.3867  0.1557 -0.5724
 4672TIP3    H235432   1.265   3.537   5.730 -0.4480 -0.9116 -0.8132
 4673TIP3   OH235433   6.219   1.931   1.083  0.2422  0.1058 -0.1271
 4673TIP3    H135434   6.125   1.940   1.098 -0.0867 -0.3268 -1.8093
 4673TIP3    H235435   6.226   1.881   1.002  1.8917  2.6518 -1.6852
 4674TIP3   OH235436   0.782   1.252   4.619  0.4919 -0.2105 -0.2673
 4674TIP3    H135437   0.801   1.168   4.660 -0.5293 -0.1737  0.3264
 4674TIP3    H235438   0.786   1.315   4.691 -1.8216 -0.2183 -0.0588
 4675TIP3   OH235439   5.830   0.467   4.136 -0.6710  0.3199  0.8474
 4675TIP3    H135440   5.856   0.453   4.045  0.3470 -0.4400  1.2248
 4675TIP3    H235441   5.852   0.385   4.180 -2.4253  0.1729  1.5263
 4676TIP3   OH235442   6.780   4.366   2.428 -0.3444  0.4124  0.1088
 4676TIP3    H135443   6.697   4.403   2.398 -0.1188 -0.3333 -1.6030
 4676TIP3    H235444   6.817   4.325   2.349  1.2382 -0.0148  1.0335
 4677TIP3   OH235445   1.344   0.643   5.214 -0.2298 -0.0934  0.0195
 4677TIP3    H135446   1.346   0.721   5.159  0.9296  0.2117  0.4712
 4677TIP3    H235447   1.341   0.677   5.303  0.9227 -0.5444  0.2458
 4678TIP3   OH235448   6.765   5.304  14.833  0.2337  0.0752 -0.2184
 4678TIP3    H135449   6.753   5.392  14.869  1.2248 -0.4485  1.5482
 4678TIP3    H235450   6.678   5.264  14.839 -0.6956  1.4939 -2.8623
 4679TIP3   OH235451   2.378   3.937  11.226 -0.3104  0.0157  0.0140
 4679TIP3    H135452   2.466   3.954  11.194  0.2554 -0.3483  1.2862
 4679TIP3    H235453   2.331   3.901  11.151  0.6439  0.1545 -0.6646
 4680TIP3   OH235454   1.870   0.133   5.087  0.0580 -0.1018  0.3931
 4680TIP3    H135455   1.779   0.107   5.076 -0.0006  0.5456 -0.7303
 4680TIP3    H235456   1.902   0.149   4.998  1.1138  0.2020  0.8084
 4681TIP3   OH235457   4.126   3.818   4.762  0.2551  0.0903  0.4875
 4681TIP3    H135458   4.137   3.764   4.683 -0.4434  0.7043 -0.0461
 4681TIP3    H235459   4.186   3.780   4.825  1.1030 -0.1971 -0.4625
 4682TIP3   OH235460   6.272   0.270  15.406 -0.3042 -0.0306 -0.5074
 4682TIP3    H135461   6.238   0.220  15.332 -0.6724 -0.3315 -0.1349
 4682TIP3    H235462   6.197   0.280  15.465  0.1364 -0.3077  0.1065
 4683TIP3   OH235463   6.172   1.130  16.238  0.7387  0.2919 -0.1492
 4683TIP3    H135464   6.167   1.205  16.178  0.8070  0.4708  0.0654
 4683TIP3    H235465   6.265   1.109  16.243  0.6568 -0.2361 -0.7290
 4684TIP3   OH235466   0.282   1.066  13.546  0.2415 -0.1732 -0.6849
 4684TIP3    H135467   0.342   1.137  13.527  0.1783 -0.0038 -0.2779
 4684TIP3    H235468   0.299   1.045  13.638 -0.1683 -0.2664 -0.6280
 4685TIP3   OH235469   4.823   6.343   3.407 -0.1836 -0.4425  0.1030
 4685TIP3    H135470   4.757   6.284   3.371 -0.0122 -0.3974 -0.2923
 4685TIP3    H235471   4.827   6.321   3.500 -1.7660  0.4948  0.4403
 4686TIP3   OH235472   5.453   4.905   4.049 -0.0522 -0.1834  0.0347
 4686TIP3    H135473   5.365   4.886   4.014 -0.0239  0.3122 -0.3138
 4686TIP3    H235474   5.505   4.829   4.024  0.1974  0.5424 -1.8336
 4687TIP3   OH235475   1.530   6.329  16.370  0.0865  0.2717  0.2898
 4687TIP3    H135476   1.569   6.249  16.335 -1.5970 -0.6684  0.4127
 4687TIP3    H235477   1.525   6.389  16.295  0.6646 -0.0189  0.0161
 4688TIP3   OH235478   4.729   6.459   1.037 -0.3802 -0.0122  0.5382
 4688TIP3    H135479   4.684   6.500   1.111 -1.4527  0.9039 -0.5734
 4688TIP3    H235480   4.661   6.451   0.969  0.9388  0.7027 -0.9271
 4689TIP3   OH235481   4.368   1.918  12.059  0.0723 -0.5629  0.2944
 4689TIP3    H135482   4.408   2.005  12.062 -0.1448 -0.4708  2.7747
 4689TIP3    H235483   4.336   1.903  12.148 -2.5837 -1.9726 -0.7743
 4690TIP3   OH235484   2.589   0.776  11.074  0.5412 -0.2112 -0.4690
 4690TIP3    H135485   2.582   0.683  11.052 -1.1289 -0.2700  0.1519
 4690TIP3    H235486   2.671   0.783  11.123  1.9333 -0.8945 -2.5471
 4691TIP3   OH235487   5.351   0.265   1.021  0.3845  0.2495 -0.4628
 4691TIP3    H135488   5.280   0.207   0.994 -0.1381  0.6646 -0.0008
 4691TIP3    H235489   5.344   0.341   0.963 -1.7461  1.8888  1.7423
 4692TIP3   OH235490   2.956   1.203   5.895  0.2070  0.3601 -0.1123
 4692TIP3    H135491   2.893   1.222   5.964  0.4945 -1.2621  0.6448
 4692TIP3    H235492   3.030   1.262   5.912  0.0542  0.3340  0.6452
 4693TIP3   OH235493   0.886   0.900  12.467  0.0712 -0.2283 -0.2774
 4693TIP3    H135494   0.861   0.983  12.427  0.4942 -0.2375 -0.5671
 4693TIP3    H235495   0.805   0.848  12.467 -1.1981  1.4829  3.3091
 4694TIP3   OH235496   5.794   1.155   4.579  0.5439  0.2521 -0.1739
 4694TIP3    H135497   5.746   1.174   4.499 -0.0555 -0.0523  0.1096
 4694TIP3    H235498   5.770   1.226   4.639  0.7409  0.3023 -0.1529
 4695TIP3   OH235499   5.374   4.631  16.603 -0.6377 -0.2901  0.4027
 4695TIP3    H135500   5.285   4.646  16.636  0.0036 -0.1484  2.1678
 4695TIP3    H235501   5.426   4.700  16.642  0.6426 -1.6044  1.1310
 4696TIP3   OH235502   3.573   4.490   2.135 -0.2245  0.0829  0.0430
 4696TIP3    H135503   3.543   4.569   2.179  0.2287  0.3350 -0.0955
 4696TIP3    H235504   3.545   4.418   2.192 -0.2238  0.3686  0.4064
 4697TIP3   OH235505   2.967   3.312   4.273  0.4469  0.4971 -0.2273
 4697TIP3    H135506   2.882   3.348   4.246 -0.9837 -0.9706  2.0121
 4697TIP3    H235507   3.001   3.270   4.194 -1.8993 -0.6644 -0.7231
 4698TIP3   OH235508   4.946   4.169   2.026  0.7555  0.0547  0.0924
 4698TIP3    H135509   4.990   4.094   2.068  1.4676  0.1700 -0.4198
 4698TIP3    H235510   5.016   4.211   1.975  1.1296  2.8316  2.6753
 4699TIP3   OH235511   5.163   5.013  14.491  0.7196 -0.3976  0.0824
 4699TIP3    H135512   5.222   5.055  14.428 -0.3078  0.6563 -0.2193
 4699TIP3    H235513   5.095   5.078  14.506 -0.2313 -1.4919  0.6193
 4700TIP3   OH235514   6.379   2.580   6.265 -0.6215 -0.3949 -0.1868
 4700TIP3    H135515   6.349   2.604   6.177 -0.0400  0.1963 -0.2264
 4700TIP3    H235516   6.304   2.535   6.303 -0.9302 -0.5372 -0.9346
 4701TIP3   OH235517   5.526   2.619   4.011 -0.5804  0.7316  0.6722
 4701TIP3    H135518   5.551   2.526   4.014 -0.2722  0.8089  0.5472
 4701TIP3    H235519   5.593   2.663   4.063 -0.9169  0.8449  1.0150
 4702TIP3   OH235520   5.062   0.898  12.836 -0.6908  0.4223  0.1434
 4702TIP3    H135521   5.028   0.953  12.765 -2.0133  0.2517  0.6190
 4702TIP3    H235522   5.137   0.853  12.797 -0.9772  0.8480 -0.9407
 4703TIP3   OH235523   0.177   4.151   5.544  0.3366 -1.1228 -0.1604
 4703TIP3    H135524   0.092   4.168   5.501  1.5112 -0.2546 -2.3025
 4703TIP3    H235525   0.198   4.233   5.589  1.3787 -0.2040 -2.1801
 4704TIP3   OH235526   1.887   3.319  11.481 -0.0938 -0.2538 -0.3432
 4704TIP3    H135527   1.883   3.295  11.574  0.3988  0.4621 -0.1378
 4704TIP3    H235528   1.910   3.411  11.480 -0.6478 -0.1111 -1.1733
 4705TIP3   OH235529   5.389   2.020   2.157  0.1548 -0.4403  0.3679
 4705TIP3    H135530   5.446   2.096   2.144 -1.4796  0.7852  0.0519
 4705TIP3    H235531   5.335   2.044   2.232 -1.2184 -0.7497 -0.4958
 4706TIP3   OH235532   1.373   1.622   3.931  0.1269 -0.0836 -0.0479
 4706TIP3    H135533   1.439   1.553   3.943 -0.3624 -1.1931 -2.8508
 4706TIP3    H235534   1.413   1.683   3.868 -0.7557  0.2857 -0.2686
 4707TIP3   OH235535   5.448   0.701  11.015 -0.0478 -0.1487  0.2740
 4707TIP3    H135536   5.518   0.765  11.002 -0.9995  1.0160  0.6976
 4707TIP3    H235537   5.452   0.680  11.109  0.1225 -0.5572  0.1786
 4708TIP3   OH235538   5.762   6.513   3.608  0.2918  0.2851 -0.1845
 4708TIP3    H135539   5.843   6.467   3.585 -0.1067 -0.3290 -0.3914
 4708TIP3    H235540   5.772   6.600   3.569  0.6203  0.0331 -0.6694
 4709TIP3   OH235541   0.648   5.422   4.244 -0.0962  0.0716  0.1581
 4709TIP3    H135542   0.721   5.362   4.259  1.6525  2.5703  2.4100
 4709TIP3    H235543   0.574   5.380   4.289  0.4550 -1.4070 -0.2311
 4710TIP3   OH235544   1.797   5.381   4.424  0.2013 -0.0932  0.1002
 4710TIP3    H135545   1.768   5.465   4.460  0.3262 -0.7424  1.7875
 4710TIP3    H235546   1.892   5.379   4.441  0.3975 -0.1242 -0.9179
 4711TIP3   OH235547   0.898   3.210  15.171  0.0178  0.2802  0.2049
 4711TIP3    H135548   0.847   3.145  15.122  1.0776 -1.1143  0.8887
 4711TIP3    H235549   0.836   3.282  15.186 -0.6656  0.3099 -2.1950
 4712TIP3   OH235550   4.821   5.431   1.946 -0.0317 -0.3752 -0.2332
 4712TIP3    H135551   4.844   5.339   1.941  2.5286  0.0654  1.6929
 4712TIP3    H235552   4.873   5.473   1.877 -1.7395 -0.3850 -1.6003
 4713TIP3   OH235553   3.362   1.527  16.537 -0.1022  0.2136  0.0167
 4713TIP3    H135554   3.435   1.481  16.580  0.1833 -1.4328 -2.0780
 4713TIP3    H235555   3.404   1.582  16.472 -0.6176  1.4490  0.7047
 4714TIP3   OH235556   3.821   5.014  13.911  0.1499 -0.0551 -0.8818
 4714TIP3    H135557   3.738   4.979  13.880  0.3219 -1.3905  0.0939
 4714TIP3    H235558   3.885   4.947  13.887  0.6776  0.1424 -0.0561
 4715TIP3   OH235559   6.371   2.122   4.143  0.1499  0.1631  0.0590
 4715TIP3    H135560   6.285   2.088   4.169 -0.6055  0.5755 -1.7687
 4715TIP3    H235561   6.383   2.091   4.054  0.9608  1.8514 -0.4629
 4716TIP3   OH235562   5.142   2.293   2.124 -0.1279  0.1589  0.0196
 4716TIP3    H135563   5.210   2.308   2.059  0.8348  0.4584  1.0593
 4716TIP3    H235564   5.190   2.279   2.206 -1.3223  1.0586  0.9106
 4717TIP3   OH235565   3.022   2.925  16.839  0.1768  0.0127 -0.4702
 4717TIP3    H135566   3.043   2.870  16.915 -0.6876  0.4959  0.1322
 4717TIP3    H235567   2.927   2.919  16.830  0.1863  0.5872 -1.0311
 4718TIP3   OH235568   5.582   2.944  15.523 -0.3539  0.6720 -0.0604
 4718TIP3    H135569   5.564   2.857  15.558 -1.1703  0.8132 -0.0915
 4718TIP3    H235570   5.606   2.996  15.600  3.1228 -0.2452 -0.3741
 4719TIP3   OH235571   4.741   4.178   2.447  0.0072 -0.2712 -0.1534
 4719TIP3    H135572   4.663   4.160   2.394 -0.0971  0.9424 -0.4457
 4719TIP3    H235573   4.780   4.255   2.406  0.5773 -0.0179  0.8390
 4720TIP3   OH235574   3.644   3.416  14.886  0.2960 -0.7192  0.0126
 4720TIP3    H135575   3.628   3.479  14.956 -0.3259 -1.0494  0.1658
 4720TIP3    H235576   3.728   3.375  14.909  0.7513  0.0974 -0.1312
 4721TIP3   OH235577   0.941   0.542   3.010  0.2026  0.0398 -0.0638
 4721TIP3    H135578   0.978   0.573   3.094 -0.0838  0.5993 -0.1375
 4721TIP3    H235579   1.012   0.491   2.971  0.1724 -0.6406  0.7367
 4722TIP3   OH235580   0.818   2.400  16.355  0.2294 -1.0007  0.1654
 4722TIP3    H135581   0.884   2.344  16.395 -1.4663 -0.6950  3.7739
 4722TIP3    H235582   0.851   2.489  16.367  1.6347 -0.9348 -3.1151
 4723TIP3   OH235583   5.096   3.431  15.683 -0.2966  0.2225 -0.4362
 4723TIP3    H135584   5.087   3.356  15.624  0.3797  1.2204 -1.8506
 4723TIP3    H235585   5.006   3.450  15.711 -0.3899 -1.7123  0.7698
 4724TIP3   OH235586   4.479   1.398   0.205  0.0967  0.1937 -0.1425
 4724TIP3    H135587   4.464   1.341   0.129  1.4528  0.9082 -0.9967
 4724TIP3    H235588   4.504   1.338   0.275 -0.1678 -0.3959 -0.5407
 4725TIP3   OH235589   3.649   4.821  14.494  0.3652 -0.1028 -0.4346
 4725TIP3    H135590   3.586   4.750  14.482  1.8070 -1.2849 -1.2374
 4725TIP3    H235591   3.733   4.778  14.507  1.0653  1.4441  0.4315
 4726TIP3   OH235592   4.776   6.640  16.992 -0.1668  0.0488  0.3972
 4726TIP3    H135593   4.693   6.654  16.947  0.6383  0.4511 -1.0566
 4726TIP3    H235594   4.826   6.720  16.975  0.3163  0.0670  1.7520
 4727TIP3   OH235595   0.980   1.898   2.387 -0.0597  0.2028  0.6019
 4727TIP3    H135596   0.981   1.956   2.311 -0.8135 -0.9428 -0.3114
 4727TIP3    H235597   0.888   1.874   2.398 -0.0253  0.7148  2.1709
 4728TIP3   OH235598   4.224   1.161  12.207 -0.0111  0.2838  0.0367
 4728TIP3    H135599   4.251   1.146  12.298 -0.4829  1.1018  0.3300
 4728TIP3    H235600   4.250   1.082  12.160  0.8307  0.1196  0.7560
 4729TIP3   OH235601   3.560   0.981   2.737  0.9978 -0.1177 -0.1171
 4729TIP3    H135602   3.524   1.052   2.683 -0.7360 -1.5886 -0.9704
 4729TIP3    H235603   3.642   1.018   2.772  0.4787  2.0720 -1.0211
 4730TIP3   OH235604   0.472   0.112   5.025 -0.1543 -0.2643 -0.4543
 4730TIP3    H135605   0.391   0.077   4.987  0.2420  0.6076 -2.1714
 4730TIP3    H235606   0.542   0.065   4.978  0.3523 -0.3460  0.3696
 4731TIP3   OH235607   1.694   2.597  13.240  0.2569  0.1463  0.1081
 4731TIP3    H135608   1.652   2.617  13.324  0.3849  0.1883  0.1637
 4731TIP3    H235609   1.776   2.553  13.264 -0.1078 -0.6174 -0.0162
 4732TIP3   OH235610   0.320   5.625  14.164 -0.1517 -0.3828  0.7947
 4732TIP3    H135611   0.356   5.570  14.234 -0.3816  0.7062  1.8146
 4732TIP3    H235612   0.237   5.585  14.141 -0.0170 -0.8187  1.0687
 4733TIP3   OH235613   3.932   4.322   6.470  0.7262  0.3799  0.3602
 4733TIP3    H135614   4.007   4.380   6.486  0.9996  0.4405 -0.9809
 4733TIP3    H235615   3.971   4.241   6.438  0.2351  0.3214 -0.1053
 4734TIP3   OH235616   3.280   4.146  13.898 -0.1126 -0.1901  0.1918
 4734TIP3    H135617   3.296   4.108  13.985 -0.7670  0.1043  0.4511
 4734TIP3    H235618   3.190   4.177  13.903  0.4768  1.6596  0.0959
 4735TIP3   OH235619   5.074   1.627   0.443 -0.1598 -0.0579 -0.3997
 4735TIP3    H135620   5.152   1.672   0.476 -0.3717 -0.9359  1.3705
 4735TIP3    H235621   5.002   1.687   0.462 -0.4831 -1.1840  2.2381
 4736TIP3   OH235622   0.518   2.375  11.911  0.2477  0.2310  0.3623
 4736TIP3    H135623   0.478   2.457  11.882  0.2639  0.3908  0.7826
 4736TIP3    H235624   0.451   2.334  11.966 -0.4191 -0.8497 -1.1820
 4737TIP3   OH235625   4.717   6.006   0.679 -0.3153  0.5556 -0.2915
 4737TIP3    H135626   4.626   5.990   0.654  0.2304 -1.9798 -0.9143
 4737TIP3    H235627   4.753   6.055   0.605 -0.6662 -0.2731 -1.0358
 4738TIP3   OH235628   4.215   4.029  15.589  0.3885 -0.1644  0.9202
 4738TIP3    H135629   4.305   4.039  15.618  0.3779  0.0575  0.8782
 4738TIP3    H235630   4.186   4.118  15.570  0.1855 -0.2428  0.8608
 4739TIP3   OH235631   0.271   2.746  14.238 -0.0831 -0.4641 -0.0912
 4739TIP3    H135632   0.361   2.733  14.266  0.5629 -1.7832 -2.4663
 4739TIP3    H235633   0.253   2.839  14.256  1.5101 -0.3281  0.9614
 4740TIP3   OH235634   5.440   5.154  12.628  0.2610 -0.1449  0.1319
 4740TIP3    H135635   5.501   5.207  12.577 -0.4322 -0.5499 -1.1346
 4740TIP3    H235636   5.377   5.216  12.664 -0.9071 -0.1332 -1.8409
 4741TIP3   OH235637   0.108   5.716  14.973 -0.2071 -0.1155 -0.1859
 4741TIP3    H135638   0.168   5.790  14.988 -1.2572  0.7811 -0.3068
 4741TIP3    H235639   0.021   5.755  14.975 -0.7032 -0.9869 -2.3127
 4742TIP3   OH235640   1.901   6.194   4.673  1.1755 -0.1370 -0.3758
 4742TIP3    H135641   1.993   6.221   4.671  0.9917  0.5007 -0.5254
 4742TIP3    H235642   1.900   6.107   4.635  1.6552  0.0555 -0.8314
 4743TIP3   OH235643   5.092   1.864  11.599 -0.4518 -0.5735  0.3728
 4743TIP3    H135644   5.002   1.866  11.630 -0.0659  0.0881  1.5327
 4743TIP3    H235645   5.118   1.773  11.607 -0.5580 -0.5246  1.5002
 4744TIP3   OH235646   1.856   5.806  16.322 -0.2757 -0.8949 -0.2688
 4744TIP3    H135647   1.908   5.815  16.242  0.0744 -1.0850 -0.0644
 4744TIP3    H235648   1.914   5.762  16.384 -0.6150 -0.9329  0.0256
 4745TIP3   OH235649   1.049   3.916   4.440  0.6765 -0.2191  0.1516
 4745TIP3    H135650   1.114   3.883   4.502 -0.4014 -1.7159  0.5492
 4745TIP3    H235651   1.100   3.956   4.370  1.9505  1.2956  1.8328
 4746TIP3   OH235652   0.352   2.655  15.062 -0.2145  0.4118 -0.4500
 4746TIP3    H135653   0.362   2.642  14.968  1.4592  3.1150 -0.7555
 4746TIP3    H235654   0.330   2.748  15.071 -0.4648  0.1886  1.8450
 4747TIP3   OH235655   5.300   5.528  12.316 -0.2830  0.0909  0.2727
 4747TIP3    H135656   5.315   5.434  12.304 -2.1390 -0.4415  1.7677
 4747TIP3    H235657   5.388   5.565  12.328  0.5301 -1.3039 -1.0324
 4748TIP3   OH235658   5.974   0.816  16.591  0.0878  0.7924 -0.0420
 4748TIP3    H135659   6.025   0.808  16.511  0.4598 -0.5205  0.3002
 4748TIP3    H235660   5.936   0.729  16.604 -0.8824  1.2984  0.6054
 4749TIP3   OH235661   2.291   3.603  11.944  1.0308 -0.7455  0.0744
 4749TIP3    H135662   2.295   3.514  11.978 -0.0686 -1.6382 -1.9820
 4749TIP3    H235663   2.378   3.639  11.961  1.4301 -2.1138  1.1246
 4750TIP3   OH235664   1.738   2.135   1.149 -0.2888  0.4184 -0.0997
 4750TIP3    H135665   1.702   2.162   1.064 -0.8061  1.2193  0.3615
 4750TIP3    H235666   1.685   2.059   1.175 -0.5403  0.5595 -0.2032
 4751TIP3   OH235667   0.101   2.145  17.084 -0.1788  0.3201  0.0387
 4751TIP3    H135668   0.109   2.200  17.162  0.4783  1.5074 -0.8290
 4751TIP3    H235669   0.158   2.070  17.101 -1.6795 -0.5460  1.5698
 4752TIP3   OH235670   0.274   6.397  12.885 -0.1297  0.0728 -0.0588
 4752TIP3    H135671   0.325   6.320  12.861  0.1120  0.0489  0.5129
 4752TIP3    H235672   0.249   6.382  12.977 -0.1897  0.6118  0.0150
 4753TIP3   OH235673   2.849   3.362   5.263  0.1274  0.4837 -0.2222
 4753TIP3    H135674   2.822   3.452   5.247  0.9896  0.5403 -1.5178
 4753TIP3    H235675   2.938   3.357   5.229  0.1820 -0.7907  0.0513
 4754TIP3   OH235676   1.555   1.232  14.291 -0.7397 -0.2531 -0.5804
 4754TIP3    H135677   1.514   1.163  14.238 -1.3545  0.8471 -1.5644
 4754TIP3    H235678   1.555   1.309  14.235 -0.8599  0.8036  0.8215
 4755TIP3   OH235679   1.726   0.022  15.681  0.1656  0.3167  0.4756
 4755TIP3    H135680   1.737   0.116  15.674 -0.6909  0.3099 -1.8091
 4755TIP3    H235681   1.814  -0.014  15.666  0.1574  0.7093 -0.5553
 4756TIP3   OH235682   1.537   5.083   4.066  0.8098 -0.3889 -0.8237
 4756TIP3    H135683   1.543   5.093   4.161 -2.3256  2.0915 -0.7021
 4756TIP3    H235684   1.564   5.168   4.031 -0.6007 -0.3487 -1.9282
 4757TIP3   OH235685   3.265   6.653  14.706 -0.0524  0.2122  0.2946
 4757TIP3    H135686   3.346   6.654  14.758 -0.6524  1.0746  1.2466
 4757TIP3    H235687   3.221   6.573  14.733  0.7278 -0.5623 -0.6504
 4758TIP3   OH235688   5.458   5.702  11.137 -0.8177  0.3546 -0.0361
 4758TIP3    H135689   5.486   5.745  11.218  0.6784  0.1011 -0.4041
 4758TIP3    H235690   5.471   5.768  11.069  2.1204 -0.7833 -0.7081
 4759TIP3   OH235691   2.388   5.045  13.198  0.1857  0.2991 -0.4155
 4759TIP3    H135692   2.293   5.048  13.190  0.2888  0.5399 -1.5929
 4759TIP3    H235693   2.408   5.112  13.263 -0.5788 -1.0796  1.3587
 4760TIP3   OH235694   0.477   3.515   3.412 -0.4443  0.0112 -0.2155
 4760TIP3    H135695   0.451   3.423   3.422  1.5605 -0.6802 -0.9236
 4760TIP3    H235696   0.496   3.544   3.501 -2.2636  0.1638  0.1681
 4761TIP3   OH235697   2.402   5.178  10.780  0.1691 -0.2105  0.2539
 4761TIP3    H135698   2.484   5.135  10.754 -0.2188 -1.0646  0.4179
 4761TIP3    H235699   2.405   5.179  10.876  0.6871  1.1566  0.2452
 4762TIP3   OH235700   1.219   5.015  14.819  0.3321  0.7651  0.2167
 4762TIP3    H135701   1.188   4.975  14.900 -1.9021  1.1029 -0.4145
 4762TIP3    H235702   1.298   4.966  14.796 -0.5794 -1.1855  1.1087
 4763TIP3   OH235703   2.769   2.887   3.987 -0.6438 -0.2705 -0.0217
 4763TIP3    H135704   2.856   2.926   3.980 -0.7034  0.0494  0.8894
 4763TIP3    H235705   2.718   2.949   4.040 -0.5051 -1.9001  2.1925
 4764TIP3   OH235706   3.885   2.156   5.444 -0.1899 -0.4657 -0.1169
 4764TIP3    H135707   3.803   2.185   5.484  0.1146 -0.6003  0.6191
 4764TIP3    H235708   3.866   2.068   5.413  0.6676 -2.0780  3.3790
 4765TIP3   OH235709   2.548   0.180   2.503  0.3037  0.4178 -0.4083
 4765TIP3    H135710   2.530   0.132   2.583 -0.8269 -0.2958 -1.0666
 4765TIP3    H235711   2.464   0.220   2.479  0.3990 -0.1147 -1.7093
 4766TIP3   OH235712   5.334   6.270   3.793  0.1389  0.1798 -0.3122
 4766TIP3    H135713   5.362   6.188   3.752 -0.1832 -0.0308 -0.1142
 4766TIP3    H235714   5.414   6.322   3.799  0.3478 -0.1231 -0.4375
 4767TIP3   OH235715   2.923   4.006   2.293  0.0681 -0.5752 -0.2127
 4767TIP3    H135716   2.833   3.994   2.260 -0.5785 -1.7261  1.8384
 4767TIP3    H235717   2.971   3.931   2.258  0.0378 -0.4330 -0.5750
 4768TIP3   OH235718   6.261   1.689  12.483 -0.6622 -0.3023 -0.2448
 4768TIP3    H135719   6.350   1.726  12.487 -0.1624 -1.4160 -0.6909
 4768TIP3    H235720   6.251   1.644  12.567  0.0976 -2.1044 -1.0632
 4769TIP3   OH235721   1.823   5.161  12.012  0.4750  0.2196  0.1109
 4769TIP3    H135722   1.798   5.069  12.012  1.0596  0.0570  0.4537
 4769TIP3    H235723   1.797   5.193  11.925 -0.1317 -0.1484  0.1494
 4770TIP3   OH235724   3.513   1.615   2.095 -0.4751 -0.6390  0.4303
 4770TIP3    H135725   3.468   1.690   2.055 -0.1483 -0.6084  0.1137
 4770TIP3    H235726   3.576   1.654   2.155 -0.5279 -0.6669  0.5029
 4771TIP3   OH235727   2.885   2.991   3.042 -0.5307 -0.3986  0.8410
 4771TIP3    H135728   2.899   2.900   3.015  1.4331  0.1088 -0.0541
 4771TIP3    H235729   2.898   3.042   2.962  5.4548  1.1634  2.2574
 4772TIP3   OH235730   5.987   3.783   2.854 -0.3452  0.0439  0.0904
 4772TIP3    H135731   6.068   3.738   2.877  0.7317  0.8350 -1.8954
 4772TIP3    H235732   6.004   3.875   2.875 -0.2828  0.3820 -1.3665
 4773TIP3   OH235733   1.971   5.648   3.626  0.5248  0.4562 -0.0720
 4773TIP3    H135734   2.011   5.721   3.673 -0.9833  2.5480 -1.8377
 4773TIP3    H235735   1.896   5.623   3.680  0.0746  1.3414 -0.2897
 4774TIP3   OH235736   5.157   0.885  12.315 -0.1586 -0.4309  0.1137
 4774TIP3    H135737   5.098   0.958  12.299  0.3521  0.5817  2.4293
 4774TIP3    H235738   5.215   0.916  12.385  0.4859 -2.8200  0.7225
 4775TIP3   OH235739   3.828   2.324   5.956 -0.1159 -0.3132  0.5753
 4775TIP3    H135740   3.894   2.374   6.005 -1.8695  1.4369  1.2612
 4775TIP3    H235741   3.837   2.234   5.988  1.9878 -0.1562  0.5521
 4776TIP3   OH235742   5.045   6.173  15.486  0.3480  0.2499  0.3370
 4776TIP3    H135743   4.973   6.220  15.529  0.3173 -0.6036  1.2715
 4776TIP3    H235744   5.093   6.134  15.559  2.3590  1.5993 -0.1892
 4777TIP3   OH235745   3.496   3.767   1.490 -0.1314  0.2646 -0.3161
 4777TIP3    H135746   3.447   3.690   1.463 -0.0467 -0.2302  0.8915
 4777TIP3    H235747   3.582   3.734   1.516  0.3379  0.9322 -0.9694
 4778TIP3   OH235748   3.624   2.281  14.401  0.0514  0.4947  0.5700
 4778TIP3    H135749   3.694   2.344  14.385 -0.0537  0.3470 -0.6019
 4778TIP3    H235750   3.555   2.306  14.339  0.4484 -1.4021 -0.7248
 4779TIP3   OH235751   1.752   1.425   6.631  0.1571 -0.4248  0.7514
 4779TIP3    H135752   1.810   1.501   6.620 -1.6396  1.1263  1.3097
 4779TIP3    H235753   1.796   1.372   6.697  1.1108  0.5189  0.9187
 4780TIP3   OH235754   3.062   1.208   0.447 -0.0330  0.3762  0.1547
 4780TIP3    H135755   2.987   1.205   0.506 -2.2617  0.7697 -2.4830
 4780TIP3    H235756   3.067   1.119   0.410  0.6917  0.4222  0.1149
 4781TIP3   OH235757   1.552   6.651  14.606  0.0565  0.5252 -0.0839
 4781TIP3    H135758   1.460   6.632  14.622  0.3827  0.0086  1.3258
 4781TIP3    H235759   1.592   6.655  14.693  1.2486  1.3970 -0.6353
 4782TIP3   OH235760   1.632   2.054   1.902  0.0335 -0.4089 -0.2094
 4782TIP3    H135761   1.626   2.142   1.866 -2.5027 -0.3084  0.3226
 4782TIP3    H235762   1.663   2.066   1.991  1.2596 -0.2324 -0.6363
 4783TIP3   OH235763   3.755   0.581   3.832 -0.2344 -0.2856 -0.0349
 4783TIP3    H135764   3.685   0.525   3.865  0.3230 -2.1821 -1.8464
 4783TIP3    H235765   3.813   0.595   3.907 -1.9393  0.4740  1.2263
 4784TIP3   OH235766   3.253   4.769  13.900 -0.1820 -0.0589 -0.0364
 4784TIP3    H135767   3.215   4.746  13.816 -0.5567 -0.7442  0.3066
 4784TIP3    H235768   3.329   4.711  13.909 -1.7548 -2.0825  1.3155
 4785TIP3   OH235769   6.608   0.033  12.851  0.0159 -0.4439  0.4920
 4785TIP3    H135770   6.607   0.009  12.944  2.8219  1.9088  1.2929
 4785TIP3    H235771   6.530   0.088  12.840 -0.1730 -0.4716  1.5566
 4786TIP3   OH235772   5.431   0.379  14.946 -0.6137  0.0749  0.3539
 4786TIP3    H135773   5.396   0.434  15.016  3.2292  1.2033  1.6257
 4786TIP3    H235774   5.461   0.300  14.991 -0.5453 -0.3966 -0.5010
 4787TIP3   OH235775   1.894   0.137  14.699  0.1553 -0.3041 -0.5460
 4787TIP3    H135776   1.936   0.059  14.662  0.7588 -1.4932  2.2831
 4787TIP3    H235777   1.802   0.112  14.709  0.2301 -0.4556 -0.2006
 4788TIP3   OH235778   1.703   2.804  11.648 -0.0760 -0.3299 -0.0470
 4788TIP3    H135779   1.647   2.806  11.570 -1.3820 -0.0282  0.8561
 4788TIP3    H235780   1.754   2.884  11.643  0.5468 -0.7659 -1.0565
 4789TIP3   OH235781   3.424   1.323   1.674 -0.1216  0.5581  0.2657
 4789TIP3    H135782   3.445   1.230   1.667  0.2416  0.5929  0.7988
 4789TIP3    H235783   3.411   1.337   1.768  1.7253  1.4273  0.4402
 4790TIP3   OH235784   2.479   5.541   4.186  0.6566  0.3563  0.1493
 4790TIP3    H135785   2.465   5.544   4.091 -3.0983 -0.0263  0.5295
 4790TIP3    H235786   2.566   5.579   4.199  0.9694  1.1779 -3.3542
 4791TIP3   OH235787   5.857   5.525  14.321 -0.1231  0.9155  0.1613
 4791TIP3    H135788   5.789   5.468  14.285  0.5542 -0.0912  0.4372
 4791TIP3    H235789   5.819   5.559  14.402 -0.1037 -0.0708  0.5967
 4792TIP3   OH235790   5.086   4.997   5.059 -0.1294  0.3688 -0.4200
 4792TIP3    H135791   5.051   4.917   5.099  0.3204 -0.0420 -0.8348
 4792TIP3    H235792   5.065   4.989   4.966 -0.7371  1.0891 -0.3471
 4793TIP3   OH235793   4.644   4.794  12.897 -0.3172  0.1364 -0.5695
 4793TIP3    H135794   4.704   4.737  12.945  0.0527  0.1602 -0.9919
 4793TIP3    H235795   4.599   4.735  12.837  2.0950  0.6151 -3.0544
 4794TIP3   OH235796   3.514   5.183   1.611 -0.0220  0.7708  0.4123
 4794TIP3    H135797   3.549   5.114   1.667 -1.0723 -1.3461 -1.3805
 4794TIP3    H235798   3.586   5.206   1.553 -0.0704  0.0726  0.0576
 4795TIP3   OH235799   0.803   2.599  12.280  0.1503  0.2354  1.0284
 4795TIP3    H135800   0.895   2.624  12.282 -0.0233  0.8624  1.4695
 4795TIP3    H235801   0.758   2.675  12.245 -0.0275 -0.6634 -0.8102
 4796TIP3   OH235802   6.232   2.642   2.279  0.5839  0.4078 -0.0416
 4796TIP3    H135803   6.167   2.698   2.237  1.1135  1.8038  0.9051
 4796TIP3    H235804   6.316   2.671   2.241  0.8774  0.3743  0.5655
 4797TIP3   OH235805   5.745   3.593   1.208  0.1988  0.0127  0.3261
 4797TIP3    H135806   5.762   3.537   1.133 -0.0393  0.6121 -0.1836
 4797TIP3    H235807   5.817   3.575   1.268 -0.1080 -1.1587  0.3687
 4798TIP3   OH235808   6.763   0.828   5.633 -0.1542 -0.4523 -0.1709
 4798TIP3    H135809   6.792   0.823   5.724  0.0519  0.7755 -0.1535
 4798TIP3    H235810   6.836   0.794   5.583 -0.0198 -0.5401  0.0803
 4799TIP3   OH235811   4.118   5.002   1.142 -0.6620 -0.1359  0.2641
 4799TIP3    H135812   4.071   4.923   1.114 -1.6790  0.7297 -0.5758
 4799TIP3    H235813   4.192   5.008   1.082 -0.9395 -0.1217 -0.0840
 4800TIP3   OH235814   6.810   4.682  10.915  0.2803 -0.1123 -0.3801
 4800TIP3    H135815   6.719   4.677  10.884  0.1225  0.5764 -0.0526
 4800TIP3    H235816   6.855   4.612  10.868 -0.0084  0.7291 -1.9902
 4801TIP3   OH235817   0.024   3.115  15.800 -0.2816 -0.7202  0.4461
 4801TIP3    H135818   0.060   3.029  15.777 -0.5831 -0.9637  0.8760
 4801TIP3    H235819   0.013   3.112  15.895  2.4589  0.8293  0.9413
 4802TIP3   OH235820   2.760   3.451  13.074 -0.9613  0.2342  0.5020
 4802TIP3    H135821   2.692   3.486  13.017 -1.5607  0.6984  1.4875
 4802TIP3    H235822   2.818   3.526  13.092 -0.9634  0.1743  0.7667
 4803TIP3   OH235823   6.073   5.860   4.645  0.1694 -0.0661 -0.1050
 4803TIP3    H135824   6.088   5.781   4.592  1.2436  0.3618 -0.4708
 4803TIP3    H235825   5.996   5.901   4.606  0.2123 -0.4079 -0.5548
 4804TIP3   OH235826   2.685   0.012  11.479 -0.0360 -0.2283  0.7751
 4804TIP3    H135827   2.758  -0.043  11.509 -0.3553 -0.1436  1.7568
 4804TIP3    H235828   2.677  -0.007  11.386  1.8698  0.4734  0.4080
 4805TIP3   OH235829   3.877   4.392   4.554  0.2606  0.2022  0.5739
 4805TIP3    H135830   3.799   4.388   4.498  0.6266  0.6190  0.0146
 4805TIP3    H235831   3.929   4.462   4.515  0.4414  0.6224  1.5616
 4806TIP3   OH235832   2.715   1.532  11.691 -0.2518 -0.5444  0.0950
 4806TIP3    H135833   2.667   1.491  11.763  0.1787  2.2068  2.0946
 4806TIP3    H235834   2.657   1.601  11.659  0.8653  0.4187  0.0698
 4807TIP3   OH235835   0.880   4.362   6.765 -0.2275 -0.2177  0.1777
 4807TIP3    H135836   0.822   4.412   6.708  0.1384  0.3742  0.3176
 4807TIP3    H235837   0.958   4.416   6.773 -0.5447  0.0533  1.8322
 4808TIP3   OH235838   2.795   2.651   4.190  0.0633  1.0834 -0.3074
 4808TIP3    H135839   2.886   2.631   4.166  1.2198  2.9164  2.1202
 4808TIP3    H235840   2.781   2.740   4.158 -1.3255  0.4301 -1.6326
 4809TIP3   OH235841   1.832   3.226  16.470  0.4997  0.0506  0.1079
 4809TIP3    H135842   1.920   3.238  16.435  0.7103 -1.3349  0.0939
 4809TIP3    H235843   1.844   3.221  16.564  1.0001 -3.6140  0.0058
 4810TIP3   OH235844   3.417   3.208   0.447  0.3141 -0.2377 -0.2888
 4810TIP3    H135845   3.386   3.256   0.524  0.0947  1.0762 -1.1751
 4810TIP3    H235846   3.362   3.130   0.445 -0.3203  0.1773  0.3541
 4811TIP3   OH235847   0.884   0.574   1.295  0.7627  0.0976 -0.2098
 4811TIP3    H135848   0.881   0.657   1.248  2.1033 -0.0298 -0.5526
 4811TIP3    H235849   0.794   0.542   1.292  0.2075  1.5589 -0.0120
 4812TIP3   OH235850   0.666   1.814  11.224 -0.3731  0.5858  0.2032
 4812TIP3    H135851   0.579   1.834  11.260 -0.1090  1.8553  0.1589
 4812TIP3    H235852   0.725   1.877  11.265  0.3256  0.5468 -0.7052
 4813TIP3   OH235853   0.809   2.934   2.664 -0.1917  0.1286 -0.2076
 4813TIP3    H135854   0.874   2.900   2.603 -0.2150 -0.4366  0.0701
 4813TIP3    H235855   0.815   2.876   2.740 -1.5509 -0.4275 -0.4947
 4814TIP3   OH235856   6.013   4.674  11.925  0.2286  0.2533 -0.2559
 4814TIP3    H135857   6.059   4.660  12.008 -0.4661 -0.4592  0.0265
 4814TIP3    H235858   5.921   4.683  11.950 -0.0345 -0.3399 -0.9761
 4815TIP3   OH235859   4.130   1.892   4.918 -0.0788 -0.0447  0.2336
 4815TIP3    H135860   4.203   1.858   4.970 -0.2314  2.2756  2.1448
 4815TIP3    H235861   4.169   1.920   4.835  0.8296 -0.5895  0.4713
 4816TIP3   OH235862   5.982   6.507  16.965 -0.3248 -0.4265  0.1906
 4816TIP3    H135863   5.910   6.456  16.928  1.9661 -3.0624 -0.9965
 4816TIP3    H235864   6.008   6.566  16.895 -1.1233  0.3760  0.5465
 4817TIP3   OH235865   4.219   0.202  16.915 -0.3029 -0.1913 -0.4569
 4817TIP3    H135866   4.251   0.225  16.828  0.6572  1.6545  0.3288
 4817TIP3    H235867   4.216   0.285  16.962 -2.4316 -0.8992  0.7794
 4818TIP3   OH235868   5.018   4.451  15.014  0.5699  0.7588  0.1555
 4818TIP3    H135869   5.043   4.459  14.921 -0.5496 -0.9344 -0.3336
 4818TIP3    H235870   5.023   4.540  15.047  1.3358  1.3592 -1.4442
 4819TIP3   OH235871   1.245   6.028   4.884  0.1259 -0.4682 -0.5405
 4819TIP3    H135872   1.222   5.949   4.837 -2.1486 -0.6927  0.8251
 4819TIP3    H235873   1.191   6.026   4.963 -0.1986  2.5544 -0.5623
 4820TIP3   OH235874   5.820   4.883  14.027 -0.2502  0.0275 -0.4275
 4820TIP3    H135875   5.735   4.898  14.068 -0.4519 -0.9105 -0.4838
 4820TIP3    H235876   5.830   4.955  13.965 -0.9770  0.1724 -0.3834
 4821TIP3   OH235877   4.078   4.563  13.504  0.3071  0.6812  0.1134
 4821TIP3    H135878   4.015   4.613  13.556  0.4624  1.1148 -0.1061
 4821TIP3    H235879   4.058   4.472  13.522 -0.8961  0.8009 -0.5470
 4822TIP3   OH235880   2.791   5.818  11.362 -0.2631 -0.0604 -0.1697
 4822TIP3    H135881   2.799   5.909  11.332  4.3097 -0.0001  0.5696
 4822TIP3    H235882   2.738   5.776  11.294 -0.4062  2.5981 -1.8703
 4823TIP3   OH235883   6.274   0.285  16.359  0.2615 -0.3235  0.2485
 4823TIP3    H135884   6.241   0.277  16.270  1.7624 -1.1234 -0.2627
 4823TIP3    H235885   6.358   0.331  16.349  0.5811 -0.6836  1.2179
 4824TIP3   OH235886   2.911   2.786  16.033 -0.4766 -0.0443 -0.2593
 4824TIP3    H135887   2.910   2.691  16.049  0.7314 -0.4420 -2.1820
 4824TIP3    H235888   2.967   2.821  16.103  1.0826 -1.1003 -0.9161
 4825TIP3   OH235889   1.327   6.468  14.700  0.4321  0.0520  0.0422
 4825TIP3    H135890   1.285   6.414  14.633  2.4310 -0.6336 -0.7198
 4825TIP3    H235891   1.388   6.409  14.743  0.2034  0.8626  1.5466
 4826TIP3   OH235892   2.587   0.498   3.760  0.7850 -0.1244 -0.3385
 4826TIP3    H135893   2.620   0.432   3.698  2.0353  0.6535 -0.5543
 4826TIP3    H235894   2.492   0.496   3.749  0.7705 -2.0050 -0.2033
 4827TIP3   OH235895   1.365   2.067   1.526  0.6455 -0.8928  0.6241
 4827TIP3    H135896   1.375   2.012   1.604 -2.4201  1.4743  2.9705
 4827TIP3    H235897   1.426   2.139   1.539 -0.6661  0.1111  1.5866
 4828TIP3   OH235898   0.205   4.313  17.039 -0.6096  0.1998  0.1082
 4828TIP3    H135899   0.210   4.361  16.956 -2.9959  0.3234 -0.0417
 4828TIP3    H235900   0.138   4.359  17.089 -0.5328 -0.9895  1.3562
 4829TIP3   OH235901   6.539   4.824  13.887  0.7029 -0.4249  0.1254
 4829TIP3    H135902   6.624   4.783  13.868  0.8626  0.1837 -0.5308
 4829TIP3    H235903   6.503   4.845  13.800 -0.8136 -2.0304  0.3189
 4830TIP3   OH235904   0.964   3.651   4.826  0.3349  0.2981  0.2113
 4830TIP3    H135905   0.901   3.713   4.789  1.0315  1.7439  1.3531
 4830TIP3    H235906   1.029   3.706   4.870 -0.0274 -1.2546  2.9389
 4831TIP3   OH235907   4.385   3.919   3.006 -0.8847 -0.3414 -0.4425
 4831TIP3    H135908   4.342   3.879   3.081  0.7762 -0.0943  0.7025
 4831TIP3    H235909   4.462   3.864   2.990  1.2994  2.0450  0.9887
 4832TIP3   OH235910   5.104   2.137  13.413  0.0521 -0.3054  0.5779
 4832TIP3    H135911   5.021   2.115  13.371 -0.1479  0.7783  0.3725
 4832TIP3    H235912   5.145   2.053  13.432 -0.5966 -0.8347 -0.3121
 4833TIP3   OH235913   5.787   6.041   0.961 -0.1065  0.4275  0.6928
 4833TIP3    H135914   5.818   6.116   1.011 -0.0634  2.6220 -2.3739
 4833TIP3    H235915   5.865   5.986   0.950  0.2819  0.7995  1.5170
 4834TIP3   OH235916   2.553   2.411   3.580 -0.5776  0.3405 -0.0029
 4834TIP3    H135917   2.565   2.318   3.598  0.0456  0.3165 -0.4916
 4834TIP3    H235918   2.540   2.415   3.485  3.8119  1.0709 -0.8264
 4835TIP3   OH235919   2.543   3.704  15.333  0.4422 -0.4873  0.0468
 4835TIP3    H135920   2.581   3.619  15.353  1.1686 -0.0523  0.5723
 4835TIP3    H235921   2.617   3.765  15.338  0.2248 -0.0151 -1.7573
 4836TIP3   OH235922   0.436   1.398  11.890  0.3634 -0.2998 -0.3215
 4836TIP3    H135923   0.469   1.350  11.966  0.3844  0.9218  0.4628
 4836TIP3    H235924   0.342   1.405  11.905  0.4727  0.6134 -0.0033
 4837TIP3   OH235925   0.627   2.492  14.960 -0.2635 -0.0351 -0.2038
 4837TIP3    H135926   0.668   2.407  14.945 -0.1263  0.1129 -0.6981
 4837TIP3    H235927   0.549   2.491  14.905 -0.9973 -0.3595  0.8282
 4838TIP3   OH235928   0.974   4.931  16.584  0.1348  0.5982 -0.4758
 4838TIP3    H135929   0.894   4.936  16.532  0.2472 -0.8271 -0.8295
 4838TIP3    H235930   1.043   4.913  16.521  0.4662  0.0945  0.0129
 4839TIP3   OH235931   3.795   4.351  14.159  0.2949  0.0023  0.4219
 4839TIP3    H135932   3.806   4.416  14.228  0.6394  0.5936 -0.1719
 4839TIP3    H235933   3.877   4.356  14.108 -0.9170  1.4403 -1.5494
 4840TIP3   OH235934   0.519   1.960   5.774 -0.4077 -0.1998  0.3084
 4840TIP3    H135935   0.505   1.883   5.830 -1.2140 -0.2824 -0.0013
 4840TIP3    H235936   0.444   1.962   5.716  1.7953 -1.8949 -2.8943
 4841TIP3   OH235937   1.406   6.693   5.311  0.4063 -0.1702  0.4380
 4841TIP3    H135938   1.357   6.771   5.287 -1.1107 -1.2003 -0.0441
 4841TIP3    H235939   1.414   6.643   5.230  1.4389 -0.4803  0.7124
 4842TIP3   OH235940   3.130   0.217  15.373  0.3972 -0.0694  0.4468
 4842TIP3    H135941   3.107   0.286  15.435 -0.0386 -1.8908  2.3960
 4842TIP3    H235942   3.047   0.178  15.348  0.7587 -1.3293  1.1293
 4843TIP3   OH235943   2.709   0.878   1.245 -0.2028 -0.1789  0.1399
 4843TIP3    H135944   2.647   0.833   1.187  1.0965 -1.7201 -0.1008
 4843TIP3    H235945   2.653   0.924   1.308 -1.7125  1.9205 -2.5076
 4844TIP3   OH235946   4.240   3.398   2.840 -0.5772  0.0211  0.0784
 4844TIP3    H135947   4.172   3.334   2.862 -0.5810  0.3597  1.1136
 4844TIP3    H235948   4.317   3.369   2.889 -0.7765  1.1743  1.1257
 4845TIP3   OH235949   1.354   2.618  11.196  0.2271  0.3346  0.3257
 4845TIP3    H135950   1.410   2.552  11.153  1.4105  1.9297 -0.6792
 4845TIP3    H235951   1.343   2.686  11.130 -2.1100  0.5553  0.8713
 4846TIP3   OH235952   3.438   6.201  15.067  1.0621  0.5900  0.2641
 4846TIP3    H135953   3.366   6.246  15.111  0.5935 -0.0822  0.2140
 4846TIP3    H235954   3.481   6.151  15.136  0.2675 -0.5417 -0.0224
 4847TIP3   OH235955   2.874   5.945   4.406 -0.3319 -0.0048  0.1542
 4847TIP3    H135956   2.966   5.924   4.424 -0.4318 -0.1682  0.4775
 4847TIP3    H235957   2.838   5.866   4.366 -0.7285 -0.5032  1.4448
 4848TIP3   OH235958   1.458   3.756  13.108 -0.2110  0.1786  0.2684
 4848TIP3    H135959   1.497   3.842  13.091  1.8802 -0.7230  0.2414
 4848TIP3    H235960   1.400   3.771  13.182 -0.4692  1.7472 -0.1952
 4849TIP3   OH235961   3.434   0.317   0.754  0.0495 -0.1519  0.5895
 4849TIP3    H135962   3.387   0.234   0.750  0.1052 -0.2402  1.4821
 4849TIP3    H235963   3.490   0.309   0.831  0.2003  0.6343  0.5698
 4850TIP3   OH235964   1.250   5.814   0.676 -0.1152 -0.2659 -0.1533
 4850TIP3    H135965   1.201   5.897   0.680  1.0439  0.4130  0.9874
 4850TIP3    H235966   1.184   5.749   0.653 -1.5229  0.6425  1.0422
 4851TIP3   OH235967   1.326   4.335   1.090 -0.1326  0.1568 -0.4346
 4851TIP3    H135968   1.295   4.327   1.181  0.7603 -1.2776 -0.2397
 4851TIP3    H235969   1.288   4.260   1.045  2.3524 -1.2490 -0.3631
 4852TIP3   OH235970   5.148   4.907  15.105  0.5930 -0.2250  0.4418
 4852TIP3    H135971   5.207   4.951  15.167  2.9687 -3.0506  0.4036
 4852TIP3    H235972   5.161   4.954  15.023  1.5589  0.2238  0.8348
 4853TIP3   OH235973   0.546   6.698   4.323  0.5126 -0.9200  0.0990
 4853TIP3    H135974   0.608   6.762   4.358  1.4132 -0.8449 -1.5067
 4853TIP3    H235975   0.589   6.614   4.333  1.1214 -0.8288 -1.3830
 4854TIP3   OH235976   0.767   0.038  14.154  0.3274 -0.4164 -0.3021
 4854TIP3    H135977   0.696  -0.018  14.184  0.5682 -0.3097  0.4895
 4854TIP3    H235978   0.728   0.093  14.086 -0.5024  0.0260  0.5169
 4855TIP3   OH235979   3.721   1.013  12.821  0.1625  0.6335  0.3883
 4855TIP3    H135980   3.650   0.999  12.758  0.0094 -0.2941  0.7405
 4855TIP3    H235981   3.694   1.091  12.870 -1.0042 -0.1186  1.0079
 4856TIP3   OH235982   3.740   0.819  16.265 -0.6930 -0.3261 -0.3133
 4856TIP3    H135983   3.836   0.816  16.259 -0.6437 -0.5017  0.3713
 4856TIP3    H235984   3.722   0.800  16.358 -1.4546 -1.8552 -0.7398
 4857TIP3   OH235985   6.625   6.621   4.484 -0.7898  0.1082  0.5781
 4857TIP3    H135986   6.584   6.694   4.437 -4.0007 -0.2051  2.6051
 4857TIP3    H235987   6.654   6.659   4.566  1.0499 -0.1916  0.1115
 4858TIP3   OH235988   0.908   0.190   5.957 -0.0652  0.2472 -0.1576
 4858TIP3    H135989   0.962   0.268   5.971  1.5557 -0.6370 -1.1202
 4858TIP3    H235990   0.934   0.129   6.027  1.3138 -0.7200 -1.4439
 4859TIP3   OH235991   2.432   2.492   3.317 -0.2901  0.3030 -0.0809
 4859TIP3    H135992   2.499   2.450   3.264  0.0458 -0.7593  1.1401
 4859TIP3    H235993   2.378   2.420   3.349  0.4817  0.6986  2.3231
 4860TIP3   OH235994   3.468   1.413   4.928  0.0562  0.6474 -0.2391
 4860TIP3    H135995   3.423   1.339   4.888  1.3755  0.4172 -1.3829
 4860TIP3    H235996   3.441   1.411   5.020 -1.0571 -0.3581 -0.5588
 4861TIP3   OH235997   2.285   1.654  10.464  0.1593  0.4340  0.0239
 4861TIP3    H135998   2.202   1.637  10.419 -0.1551 -0.1481  0.7906
 4861TIP3    H235999   2.330   1.569  10.463  0.2506  0.4715  0.5837
 4862TIP3   OH236000   1.966   5.183   1.363 -0.2127  0.3003  0.5095
 4862TIP3    H136001   1.872   5.180   1.382  0.2314 -1.5232  2.9988
 4862TIP3    H236002   2.001   5.247   1.425  0.2031  1.0515 -0.4791
 4863TIP3   OH236003   5.255   0.792   2.251  0.8190 -0.4374  0.0829
 4863TIP3    H136004   5.203   0.832   2.181 -1.2747  0.1050  1.8297
 4863TIP3    H236005   5.329   0.852   2.263 -0.4894  1.2067  0.3909
 4864TIP3   OH236006   6.532   2.045   6.281  0.3520 -0.4991  0.6388
 4864TIP3    H136007   6.540   1.971   6.342 -0.3616 -0.4328  0.8183
 4864TIP3    H236008   6.452   2.090   6.308  0.6321  0.1851  0.3595
 4865TIP3   OH236009   4.612   4.566   0.029 -0.0767  0.0703 -0.0368
 4865TIP3    H136010   4.557   4.491   0.051 -0.1974  0.5056  1.2375
 4865TIP3    H236011   4.568   4.641   0.068  0.4405  0.7043 -0.6383
 4866TIP3   OH236012   0.978   2.704   0.049 -0.1798  0.1243  0.2019
 4866TIP3    H136013   0.951   2.715  -0.042 -0.4574  0.4022  0.3147
 4866TIP3    H236014   0.978   2.609   0.063  1.9879 -0.0593 -0.7222
 4867TIP3   OH236015   6.156   4.938   5.244  0.5439  0.1606  0.2039
 4867TIP3    H136016   6.120   4.921   5.158  0.6676 -0.9864  0.3719
 4867TIP3    H236017   6.125   5.027   5.266  0.2865  0.3481 -0.8842
 4868TIP3   OH236018   0.311   4.564  10.932 -0.5604 -0.1232 -0.2712
 4868TIP3    H136019   0.247   4.535  10.867 -0.0087  1.2206 -1.4538
 4868TIP3    H236020   0.391   4.578  10.883 -0.0831  0.7940  0.7152
 4869TIP3   OH236021   0.073   2.838   4.663 -0.3994  0.0783  0.0218
 4869TIP3    H136022   0.062   2.920   4.615 -1.5642  0.3131  0.6532
 4869TIP3    H236023   0.132   2.861   4.735  0.7525 -0.0995 -0.8277
 4870TIP3   OH236024   0.939   6.717  11.724 -0.1700  0.1616  0.0180
 4870TIP3    H136025   0.909   6.774  11.653  0.8780 -0.0728 -0.6309
 4870TIP3    H236026   0.862   6.665  11.746  0.1143 -1.7538 -2.8748
 4871TIP3   OH236027   5.695   5.875  12.912  0.1057  0.5896 -0.2798
 4871TIP3    H136028   5.707   5.934  12.986  0.3682  0.0917  0.0776
 4871TIP3    H236029   5.600   5.872  12.900 -0.0155 -0.2438  0.7915
 4872TIP3   OH236030   3.904   3.677   1.060 -0.1048  0.1683  0.0285
 4872TIP3    H136031   3.816   3.703   1.087 -0.3764  0.8256 -1.4035
 4872TIP3    H236032   3.891   3.595   1.012  0.0934  0.1392  0.0221
 4873TIP3   OH236033   2.755   6.152  11.512  0.4804 -0.1850 -0.3988
 4873TIP3    H136034   2.662   6.130  11.514 -0.0077  1.7204 -0.0376
 4873TIP3    H236035   2.781   6.154  11.604  0.6590  0.1137 -0.4540
 4874TIP3   OH236036   6.242   4.522  12.991 -0.4906  0.1157 -0.9756
 4874TIP3    H136037   6.179   4.494  13.057  1.7039  1.9465  2.1540
 4874TIP3    H236038   6.206   4.602  12.955  0.7102  2.3183  2.2815
 4875TIP3   OH236039   4.852   5.859  13.406  0.3900  0.2122 -0.4663
 4875TIP3    H136040   4.775   5.806  13.383 -0.7428  1.2802  0.7183
 4875TIP3    H236041   4.874   5.832  13.495 -0.6461  2.1595  0.4369
 4876TIP3   OH236042   5.570   2.405  16.003 -0.5803  0.5178  0.1267
 4876TIP3    H136043   5.477   2.383  15.997 -0.2624 -0.5109 -1.6714
 4876TIP3    H236044   5.587   2.407  16.097 -2.3318  0.3507  0.4890
 4877TIP3   OH236045   0.205   0.321   2.056 -0.0143  0.1077 -0.1307
 4877TIP3    H136046   0.142   0.387   2.087  0.4178  0.0693  0.8703
 4877TIP3    H236047   0.178   0.240   2.099  0.9583  0.1790  0.6383
 4878TIP3   OH236048   0.658   3.421   3.220  0.8872  0.3332  0.1339
 4878TIP3    H136049   0.597   3.479   3.267 -0.9846 -0.6936 -0.9018
 4878TIP3    H236050   0.617   3.335   3.224  2.9624 -0.6965  0.4920
 4879TIP3   OH236051   3.520   6.777  11.784 -0.2981 -0.3304  0.4806
 4879TIP3    H136052   3.432   6.748  11.809 -0.9376  1.5648  0.6012
 4879TIP3    H236053   3.526   6.867  11.817  1.9844 -0.6533  1.1409
 4880TIP3   OH236054   2.659   2.000  15.898  0.1155  0.3881 -0.2824
 4880TIP3    H136055   2.636   2.012  15.990 -0.3707 -2.0195 -0.0326
 4880TIP3    H236056   2.583   2.033  15.850 -0.4492 -0.0741  0.2692
 4881TIP3   OH236057   1.771   5.207   4.689  0.8874 -0.2123 -0.2172
 4881TIP3    H136058   1.740   5.130   4.642  1.1640 -0.9581  0.7806
 4881TIP3    H236059   1.760   5.279   4.627 -0.9795 -0.7572 -0.5910
 4882TIP3   OH236060   4.737   5.948   5.341  0.5711 -0.2895  0.2804
 4882TIP3    H136061   4.646   5.965   5.315  0.2194 -1.4494  0.6543
 4882TIP3    H236062   4.742   5.976   5.432  0.5212 -0.4283  0.3265
 4883TIP3   OH236063   5.578   4.294   1.373 -0.2013 -0.5373 -0.1600
 4883TIP3    H136064   5.651   4.355   1.365 -0.3308 -0.2250  0.9112
 4883TIP3    H236065   5.570   4.255   1.286  0.7431 -0.0149 -0.4967
 4884TIP3   OH236066   3.512   1.757  16.746 -0.3012  0.4383  0.0668
 4884TIP3    H136067   3.589   1.705  16.771  0.3988  2.1133  1.7242
 4884TIP3    H236068   3.462   1.765  16.828 -1.6317  0.3681 -0.7205
 4885TIP3   OH236069   4.385   2.862  12.633  0.1935 -0.1416  0.3251
 4885TIP3    H136070   4.342   2.878  12.717  1.3505  0.1012  0.8843
 4885TIP3    H236071   4.421   2.947  12.608 -1.4793  0.1853 -1.2255
 4886TIP3   OH236072   4.310   1.969   0.687  0.2717  0.6903  0.2559
 4886TIP3    H136073   4.252   2.045   0.683 -1.3332 -0.5182 -1.0406
 4886TIP3    H236074   4.377   1.986   0.622 -0.5470  0.6634 -0.6113
 4887TIP3   OH236075   3.768   2.907   2.539 -0.2444  0.2158 -0.1804
 4887TIP3    H136076   3.694   2.880   2.594  0.4873 -2.0758 -0.2240
 4887TIP3    H236077   3.737   2.894   2.449 -0.2131  0.4274 -0.2205
 4888TIP3   OH236078   3.387   3.735  12.092  0.0704  0.2854 -0.3857
 4888TIP3    H136079   3.420   3.658  12.139 -0.5834 -0.4919 -1.1756
 4888TIP3    H236080   3.445   3.743  12.016 -0.1742  0.2769 -0.5721
 4889TIP3   OH236081   2.385   2.237  16.301 -0.6936  0.3919  0.5101
 4889TIP3    H136082   2.308   2.194  16.263 -1.0265 -0.4638  2.0586
 4889TIP3    H236083   2.401   2.189  16.383 -0.1838  2.3055  1.5994
 4890TIP3   OH236084   4.105   5.809   2.257  0.4807  0.3623 -0.0782
 4890TIP3    H136085   4.175   5.798   2.320 -0.4198  1.1365  1.0998
 4890TIP3    H236086   4.024   5.791   2.306 -0.1729 -0.3263 -1.3472
 4891TIP3   OH236087   2.187   1.605  11.098  0.1531 -0.5466  0.4064
 4891TIP3    H136088   2.105   1.597  11.145  0.1053 -1.0154  0.2466
 4891TIP3    H236089   2.250   1.633  11.164 -0.0351 -0.6529  0.6318
 4892TIP3   OH236090   3.395   5.014   5.410 -0.0088  0.3243 -0.2858
 4892TIP3    H136091   3.365   5.070   5.481 -1.7891 -0.8559 -0.0464
 4892TIP3    H236092   3.466   5.063   5.369 -1.3389  2.6645  0.0256
 4893TIP3   OH236093   1.848   1.592   3.055 -0.5672 -0.0466 -0.0453
 4893TIP3    H136094   1.882   1.515   3.009  0.0579  0.3021 -0.1747
 4893TIP3    H236095   1.834   1.562   3.145 -1.3948 -0.6166 -0.3464
 4894TIP3   OH236096   4.735   5.515   5.612  0.1373  0.5874  0.4997
 4894TIP3    H136097   4.756   5.467   5.532 -0.7148 -0.6255  0.9677
 4894TIP3    H236098   4.801   5.584   5.617  1.2617 -0.3878 -0.3304
 4895TIP3   OH236099   0.188   2.054  10.305 -0.0175  0.4522  0.0812
 4895TIP3    H136100   0.205   1.972  10.259  0.9165  0.9211 -0.4341
 4895TIP3    H236101   0.275   2.085  10.332 -0.3295  1.4070  0.0234
 4896TIP3   OH236102   0.190   5.502  13.376  0.4114 -0.4630 -0.2808
 4896TIP3    H136103   0.101   5.469  13.366  0.9540 -2.0182 -0.2753
 4896TIP3    H236104   0.184   5.594  13.352 -1.9208  0.5228  3.3006
 4897TIP3   OH236105   1.406   1.205   5.409 -0.4346  0.3343 -0.4071
 4897TIP3    H136106   1.470   1.203   5.338 -1.4912  0.5101 -1.4000
 4897TIP3    H236107   1.458   1.194   5.489  0.6957 -0.7351 -1.2500
 4898TIP3   OH236108   6.370   2.761   1.561  0.4127  0.1898  0.2659
 4898TIP3    H136109   6.391   2.853   1.577 -1.2933  0.2541  2.8268
 4898TIP3    H236110   6.276   2.761   1.542  0.4755 -0.9978 -0.1270
 4899TIP3   OH236111   3.589   1.056  14.113 -0.0501  0.0681 -0.4714
 4899TIP3    H136112   3.681   1.060  14.138 -0.9355 -0.4426  3.4088
 4899TIP3    H236113   3.563   0.966  14.130 -1.4918  0.4103 -0.6998
 4900TIP3   OH236114   4.412   3.662   1.157  0.3798  0.4748  0.3926
 4900TIP3    H136115   4.470   3.600   1.200 -0.4059 -1.1160 -0.7522
 4900TIP3    H236116   4.330   3.615   1.146 -0.6345  2.1181  0.5082
 4901TIP3   OH236117   6.466   0.999  11.611 -0.1837  0.2534  0.1181
 4901TIP3    H136118   6.465   0.931  11.544 -0.6242 -0.3290  0.7136
 4901TIP3    H236119   6.378   1.038  11.607 -0.8911 -1.0763  1.6493
 4902TIP3   OH236120   5.747   2.484  13.624 -0.2499  0.0471  0.1587
 4902TIP3    H136121   5.753   2.405  13.571  0.3909  0.7047 -0.7585
 4902TIP3    H236122   5.662   2.522  13.602 -0.1259  0.1451 -0.1456
 4903TIP3   OH236123   6.413   0.148  13.100  0.1955 -0.1997 -0.3941
 4903TIP3    H136124   6.323   0.170  13.080  0.5223  0.2258 -1.4632
 4903TIP3    H236125   6.428   0.063  13.058  0.6565  0.3316 -1.3388
 4904TIP3   OH236126   4.321   3.883   0.813 -0.3762  0.0766 -0.1161
 4904TIP3    H136127   4.242   3.884   0.869  0.5370  1.9397  1.2531
 4904TIP3    H236128   4.375   3.814   0.850 -0.3062  0.4760  0.5433
 4905TIP3   OH236129   3.259   5.671  12.862 -0.1548  0.0771 -0.5741
 4905TIP3    H136130   3.189   5.685  12.798 -2.0286 -0.0649  1.3235
 4905TIP3    H236131   3.217   5.624  12.934  1.6290  0.9182  1.1304
 4906TIP3   OH236132   3.045   2.441  11.414  0.2915 -0.6470 -0.1401
 4906TIP3    H136133   3.041   2.367  11.475 -0.7878 -0.5873 -0.1157
 4906TIP3    H236134   2.999   2.409  11.336  1.0544 -0.4824 -0.6588
 4907TIP3   OH236135   2.523   0.644  14.095 -0.1382 -0.2161 -0.0628
 4907TIP3    H136136   2.554   0.710  14.033 -1.2360 -0.2678 -0.6919
 4907TIP3    H236137   2.591   0.640  14.162  0.7652  0.2913 -0.9341
 4908TIP3   OH236138   5.685   3.990   0.674 -0.0402  0.3948  0.1656
 4908TIP3    H136139   5.664   4.079   0.645  0.2605  0.2555 -0.4817
 4908TIP3    H236140   5.702   3.999   0.768 -2.9380  0.5401  0.7861
 4909TIP3   OH236141   4.810   1.560  11.679  0.2966  0.0687 -0.1236
 4909TIP3    H136142   4.901   1.580  11.700  0.1200  0.5086  0.2405
 4909TIP3    H236143   4.813   1.517  11.593  0.9073 -0.5289  0.1905
 4910TIP3   OH236144   6.336   4.571  11.796 -0.3229 -0.2810  0.3187
 4910TIP3    H136145   6.413   4.558  11.741 -0.8205 -1.1250 -0.1998
 4910TIP3    H236146   6.272   4.614  11.739 -0.6872 -0.7596  0.3614
 4911TIP3   OH236147   3.362   6.275   0.761 -0.8243  0.4500  1.0436
 4911TIP3    H136148   3.444   6.301   0.804  0.6224 -0.9492 -0.7231
 4911TIP3    H236149   3.361   6.179   0.767  0.3856 -0.0287 -3.4110
 4912TIP3   OH236150   6.808   0.140   0.568  0.9361 -0.3568 -0.1317
 4912TIP3    H136151   6.889   0.110   0.609  0.6855 -0.2384  0.4592
 4912TIP3    H236152   6.752   0.063   0.567  0.4299 -0.0255  1.0430
 4913TIP3   OH236153   4.117   5.325  13.717  0.4228  0.3236 -0.4423
 4913TIP3    H136154   4.090   5.408  13.678  2.0228  0.3202 -1.6842
 4913TIP3    H236155   4.038   5.271  13.715 -0.3089  1.3727 -0.8412
 4914TIP3   OH236156   0.981   0.443   3.924  0.2410 -0.5794 -0.1211
 4914TIP3    H136157   1.047   0.406   3.865  0.5475  0.6364 -0.5902
 4914TIP3    H236158   0.973   0.534   3.895 -1.0891 -0.5048  0.4322
 4915TIP3   OH236159   1.345   5.253   4.752  0.4903  0.0909 -0.6990
 4915TIP3    H136160   1.422   5.304   4.776 -0.3395  1.4618 -0.8212
 4915TIP3    H236161   1.361   5.166   4.789  2.6211 -0.0298 -1.7911
 4916TIP3   OH236162   4.473   5.964   0.337  0.1990  0.3326 -0.0154
 4916TIP3    H136163   4.449   5.969   0.244 -0.3623 -0.2568  0.0909
 4916TIP3    H236164   4.568   5.951   0.336  0.1070 -0.3765 -0.5303
 4917TIP3   OH236165   5.794   3.473   0.936  0.0478 -0.7358  0.2160
 4917TIP3    H136166   5.872   3.470   0.881  1.0654 -1.5125  1.6347
 4917TIP3    H236167   5.750   3.390   0.921 -1.4032  0.2888 -1.7290
 4918TIP3   OH236168   6.598   2.684  17.013 -0.0527 -0.2432  0.0418
 4918TIP3    H136169   6.590   2.618  17.081  1.6389 -0.3127  0.2153
 4918TIP3    H236170   6.662   2.747  17.047  0.2307  0.1501 -1.1311
 4919TIP3   OH236171   1.563   1.270  15.742 -0.6658 -1.6284 -0.0873
 4919TIP3    H136172   1.593   1.289  15.653 -2.4096 -1.9963 -0.8047
 4919TIP3    H236173   1.517   1.350  15.769  3.4823  0.2772  2.3085
 4920TIP3   OH236174   0.847   2.523   5.297  0.1361  0.1949 -0.5363
 4920TIP3    H136175   0.860   2.429   5.303  1.7956  0.2780 -2.0129
 4920TIP3    H236176   0.856   2.554   5.387  3.2636 -0.6836 -0.4494
 4921TIP3   OH236177   1.479   1.967   0.033  0.3276  0.2117 -0.0549
 4921TIP3    H136178   1.568   1.970  -0.004  0.2337  2.5162 -0.2657
 4921TIP3    H236179   1.489   2.004   0.121 -0.3589  0.0553  0.0888
 4922TIP3   OH236180   1.696   5.585  15.642  0.0365  0.4854 -0.5524
 4922TIP3    H136181   1.667   5.555  15.556  2.5092 -0.2582 -1.2005
 4922TIP3    H236182   1.723   5.505  15.687 -0.0715  1.0122  0.4858
 4923TIP3   OH236183   5.271   4.872  10.716  0.0731  0.6642 -0.2326
 4923TIP3    H136184   5.328   4.859  10.640  1.1572 -1.2038  0.8314
 4923TIP3    H236185   5.207   4.801  10.712  0.1870  0.4965  0.6250
 4924TIP3   OH236186   2.454   0.607  13.022  0.4140 -0.0639 -0.2440
 4924TIP3    H136187   2.475   0.698  13.041  1.3772  0.1799 -2.2153
 4924TIP3    H236188   2.383   0.611  12.958  1.2111 -0.6381 -1.1966
 4925TIP3   OH236189   0.394   0.073   2.852 -0.4328  0.5261 -0.4110
 4925TIP3    H136190   0.469   0.015   2.866  0.4277  0.4965 -4.1613
 4925TIP3    H236191   0.434   0.159   2.836 -1.3246  0.8981 -0.6474
 4926TIP3   OH236192   0.215   5.724  15.662  0.0272  0.6811  0.3285
 4926TIP3    H136193   0.223   5.744  15.755 -1.2779  0.0939  0.5912
 4926TIP3    H236194   0.279   5.655  15.646  0.6834  1.2043  0.6389
 4927TIP3   OH236195   1.521   1.404  15.279  0.3230 -0.6515 -0.0245
 4927TIP3    H136196   1.552   1.377  15.193 -0.2401  0.4121 -0.5861
 4927TIP3    H236197   1.533   1.499  15.280  2.4368 -0.8623  1.9554
 4928TIP3   OH236198   4.582   6.633   2.615 -0.3237  0.0821  0.5020
 4928TIP3    H136199   4.607   6.698   2.549  0.7572 -0.4995  0.3023
 4928TIP3    H236200   4.644   6.648   2.687 -0.7387 -0.0491  0.8865
 4929TIP3   OH236201   1.997   1.828  16.950 -0.0851 -0.2003  0.3671
 4929TIP3    H136202   1.947   1.863  16.876  1.3532  0.5445 -0.2890
 4929TIP3    H236203   1.944   1.755  16.982 -1.1662  0.0168 -0.8325
 4930TIP3   OH236204   3.052   0.295  12.032 -0.0828 -0.0317  0.4284
 4930TIP3    H136205   3.014   0.211  12.056  1.0982 -1.3202 -1.8508
 4930TIP3    H236206   2.981   0.358  12.045 -1.1396 -1.4281  1.7447
 4931TIP3   OH236207   1.172   5.978  12.622  0.1106 -0.2445  0.1105
 4931TIP3    H136208   1.189   6.017  12.708  0.1027  0.6286 -0.2694
 4931TIP3    H236209   1.083   5.945  12.627 -0.1326  0.4104  0.2282
 4932TIP3   OH236210   3.356   1.593  14.920  0.4264 -0.1100  0.1283
 4932TIP3    H136211   3.328   1.684  14.910  2.5279  0.6650  0.8694
 4932TIP3    H236212   3.331   1.551  14.837  0.1383  1.3411 -0.5404
 4933TIP3   OH236213   4.738   0.479   5.652 -0.3496 -0.3542 -0.1857
 4933TIP3    H136214   4.660   0.445   5.695 -2.0056  2.9214 -0.3164
 4933TIP3    H236215   4.757   0.416   5.583 -0.0434 -3.6124  2.6400
 4934TIP3   OH236216   3.356   4.260   1.164 -0.1694  0.0091  0.0239
 4934TIP3    H136217   3.368   4.167   1.181  0.2449  0.2411  1.0895
 4934TIP3    H236218   3.411   4.304   1.229 -0.8098  1.0006 -0.0746
 4935TIP3   OH236219   2.437   5.339   4.406 -0.2435  0.0821  0.3661
 4935TIP3    H136220   2.530   5.318   4.400 -0.1521  0.4434  0.5091
 4935TIP3    H236221   2.418   5.389   4.327 -0.7929 -1.7446 -0.7144
 4936TIP3   OH236222   6.160   5.727  13.969  0.2744 -0.1625  0.3090
 4936TIP3    H136223   6.115   5.717  14.054 -1.3413 -0.1706 -0.5030
 4936TIP3    H236224   6.133   5.813  13.938  0.7401 -0.2159 -0.2520
 4937TIP3   OH236225   6.224   4.696   5.370  0.1418  0.4726  0.0230
 4937TIP3    H136226   6.304   4.685   5.318  0.3427 -0.4998  0.5219
 4937TIP3    H236227   6.175   4.764   5.324 -0.5062 -1.5117 -2.4443
 4938TIP3   OH236228   4.723   3.061  10.534 -0.6268  0.4216  0.2327
 4938TIP3    H136229   4.783   3.084  10.463  0.7932  1.0100  1.5861
 4938TIP3    H236230   4.703   3.144  10.577 -0.2605 -0.0990  1.4426
 4939TIP3   OH236231   4.784   0.436  14.161 -0.1429  0.4414 -0.8134
 4939TIP3    H136232   4.827   0.520  14.175 -0.9889  0.5399  1.6845
 4939TIP3    H236233   4.718   0.455  14.094 -0.5258  1.8886 -0.0843
 4940TIP3   OH236234   4.034   5.535  16.182  0.0887  0.0484 -0.1078
 4940TIP3    H136235   4.027   5.541  16.277 -0.4611 -0.6472 -0.0905
 4940TIP3    H236236   4.040   5.626  16.152  0.9845  0.2450  0.6312
 4941TIP3   OH236237   4.926   1.613  16.660 -0.3115  0.0502  0.0823
 4941TIP3    H136238   4.850   1.668  16.672 -0.4633 -0.1718  0.1513
 4941TIP3    H236239   4.910   1.567  16.578 -0.1559  0.1586 -0.0089
 4942TIP3   OH236240   4.538   2.582  15.248  0.5992  0.1851  0.0871
 4942TIP3    H136241   4.511   2.674  15.244 -2.1856 -0.4990  0.8261
 4942TIP3    H236242   4.547   2.556  15.156 -1.4219  0.5236 -0.2636
 4943TIP3   OH236243   1.305   0.349   5.325 -0.6460 -0.0859 -0.0236
 4943TIP3    H136244   1.226   0.390   5.360 -0.2113  1.0828 -0.3757
 4943TIP3    H236245   1.275   0.263   5.293 -1.6906  0.1837  0.1838
 4944TIP3   OH236246   0.917   6.266   0.378  0.0571  0.2370 -0.4569
 4944TIP3    H136247   0.865   6.191   0.403  0.2674  0.1250 -0.3547
 4944TIP3    H236248   0.917   6.265   0.282 -0.1088  0.2253 -0.4564
 4945TIP3   OH236249   1.141   1.197   5.309 -0.7737  0.4417  0.8495
 4945TIP3    H136250   1.100   1.113   5.289  1.2234 -0.1169 -1.4019
 4945TIP3    H236251   1.234   1.176   5.322 -0.1592  2.2841 -0.1747
 4946TIP3   OH236252   6.067   2.545  11.819 -0.1398  0.3509  0.1036
 4946TIP3    H136253   6.097   2.456  11.802  2.5166  1.2331 -0.2383
 4946TIP3    H236254   6.028   2.574  11.736 -2.7249 -0.9991  0.7175
 4947TIP3   OH236255   2.861   2.947   6.725 -0.1022 -0.3079 -0.1408
 4947TIP3    H136256   2.776   2.992   6.719 -0.3320 -0.2993  2.3635
 4947TIP3    H236257   2.840   2.855   6.709 -0.4017 -0.1884 -0.4755
 4948TIP3   OH236258   0.783   0.973   2.201 -0.2246  0.2543  0.0750
 4948TIP3    H136259   0.707   0.921   2.228 -0.4250  0.3757 -0.2520
 4948TIP3    H236260   0.771   0.987   2.107  1.6950 -2.2706 -0.6880
 4949TIP3   OH236261   2.549   2.322  15.623  0.0226  0.3139 -0.1882
 4949TIP3    H136262   2.458   2.292  15.613  0.7738 -2.4856  0.7015
 4949TIP3    H236263   2.599   2.267  15.563  1.4154  0.1836  1.0564
 4950TIP3   OH236264   6.628   3.338  14.478 -0.0103 -0.4021 -0.0373
 4950TIP3    H136265   6.672   3.276  14.536 -1.1877 -0.7234  0.5344
 4950TIP3    H236266   6.646   3.424  14.515  0.6410 -0.4789 -0.1616
 4951TIP3   OH236267   4.647   6.450   6.197  0.3501 -0.9332 -0.3482
 4951TIP3    H136268   4.657   6.365   6.156 -1.1750 -0.8676 -0.9461
 4951TIP3    H236269   4.638   6.511   6.123  1.7615 -0.1969  0.0646
 4952TIP3   OH236270   0.687   6.533  16.777  0.1541 -0.0423  0.2263
 4952TIP3    H136271   0.766   6.487  16.750  0.2053  0.2706 -0.1605
 4952TIP3    H236272   0.709   6.570  16.862  0.0616 -0.8467  0.6135
 4953TIP3   OH236273   0.714   2.939  15.538  0.1085  0.2099  0.4017
 4953TIP3    H136274   0.699   2.847  15.559  1.9143 -0.0626  0.6906
 4953TIP3    H236275   0.801   2.957  15.572 -0.6055  2.3294  1.2876
 4954TIP3   OH236276   4.456   6.266   0.305 -0.0783 -0.4699 -0.2951
 4954TIP3    H136277   4.413   6.349   0.284 -0.8242 -0.3125  1.6430
 4954TIP3    H236278   4.457   6.218   0.222 -0.6776  1.0119 -1.1958
 4955TIP3   OH236279   0.029   1.082   0.850 -0.8767 -0.1778 -0.9355
 4955TIP3    H136280   0.000   1.104   0.761 -1.3461 -0.5235 -0.8730
 4955TIP3    H236281   0.008   0.989   0.860  0.9112 -0.6269 -1.1217
 4956TIP3   OH236282   6.287   3.441  11.896 -0.2392  0.4140  0.0917
 4956TIP3    H136283   6.350   3.509  11.872  0.1449  0.2264  0.5460
 4956TIP3    H236284   6.336   3.359  11.888 -0.8469  0.1412 -0.9419
 4957TIP3   OH236285   0.951   1.298   0.931  0.5188  0.4544  0.1540
 4957TIP3    H136286   0.979   1.209   0.907 -0.7808  0.0946 -0.0748
 4957TIP3    H236287   1.006   1.354   0.877 -0.3881 -0.2910 -1.6549
 4958TIP3   OH236288   5.293   0.518  16.510 -0.1325 -0.2951 -0.2134
 4958TIP3    H136289   5.322   0.427  16.509 -0.2308 -0.3392  0.5203
 4958TIP3    H236290   5.251   0.531  16.425  1.1815 -0.5023 -0.9068
 4959TIP3   OH236291   6.091   5.766  13.251 -0.3892  0.1428 -0.2051
 4959TIP3    H136292   6.179   5.755  13.287 -0.7378  1.2161  1.0595
 4959TIP3    H236293   6.035   5.711  13.306 -0.7883  1.0647  0.3422
 4960TIP3   OH236294   4.167   2.977  11.262  0.0971  0.2910 -0.3443
 4960TIP3    H136295   4.187   3.070  11.277 -1.8827  0.7780 -0.4014
 4960TIP3    H236296   4.182   2.965  11.168  0.2064  0.5975 -0.3698
 4961TIP3   OH236297   4.581   1.411  12.706  0.5787 -0.2524 -0.3666
 4961TIP3    H136298   4.560   1.429  12.615 -0.3726  1.1511  0.1002
 4961TIP3    H236299   4.498   1.420  12.753  1.6436  3.2082  1.1911
 4962TIP3   OH236300   6.083   2.174  15.396 -0.3156 -0.2833  0.5262
 4962TIP3    H136301   6.032   2.241  15.350  1.3573  0.2625 -0.6226
 4962TIP3    H236302   6.065   2.093  15.347  0.6147  0.0899 -0.4725
 4963TIP3   OH236303   0.934   0.139   1.093 -0.1128 -0.1870 -0.0880
 4963TIP3    H136304   0.902   0.229   1.098  0.4793  0.0635 -0.6048
 4963TIP3    H236305   0.974   0.123   1.179 -1.5946 -0.5068  0.5652
 4964TIP3   OH236306   5.098   3.165  13.969  0.1002 -0.4437 -0.0148
 4964TIP3    H136307   5.179   3.187  14.016 -0.1467  1.2702 -0.3427
 4964TIP3    H236308   5.028   3.202  14.023 -0.5143 -2.0860  0.3653
 4965TIP3   OH236309   5.198   3.691   3.041  0.3462  0.0122 -0.3533
 4965TIP3    H136310   5.122   3.708   2.985 -0.7897 -1.5322  0.6575
 4965TIP3    H236311   5.271   3.683   2.979 -0.6151 -0.2160 -1.5075
 4966TIP3   OH236312   1.957   1.536   1.877  0.3551  0.1558  0.4979
 4966TIP3    H136313   1.941   1.587   1.956 -3.0734  0.1365 -0.0634
 4966TIP3    H236314   1.990   1.600   1.813 -0.1508  0.8574  0.9299
 4967TIP3   OH236315   2.288   0.802   5.161  0.5497  0.2574  0.2421
 4967TIP3    H136316   2.313   0.882   5.207  0.4331 -0.5473  1.7516
 4967TIP3    H236317   2.354   0.792   5.092  1.4845  0.7989  1.0434
 4968TIP3   OH236318   1.529   3.267  15.393 -0.7420  0.1391  0.6729
 4968TIP3    H136319   1.509   3.174  15.381 -3.1192 -0.0985  4.8489
 4968TIP3    H236320   1.617   3.268  15.431 -0.3351 -0.2776 -0.2222
 4969TIP3   OH236321   5.646   6.649  14.865  0.5839  0.3249  0.1814
 4969TIP3    H136322   5.690   6.674  14.784  0.3263 -1.2886 -0.5055
 4969TIP3    H236323   5.557   6.628  14.839 -0.1927  2.0304  1.3012
 4970TIP3   OH236324   5.853   3.853   3.090  0.5447 -0.2421 -0.0236
 4970TIP3    H136325   5.921   3.794   3.058 -0.2002 -2.4657  2.1680
 4970TIP3    H236326   5.799   3.871   3.012  2.3784 -0.1316 -1.3328
 4971TIP3   OH236327   5.138   3.447   1.383  0.7738  0.1361  0.1349
 4971TIP3    H136328   5.086   3.527   1.387  0.1710 -0.2190 -0.5223
 4971TIP3    H236329   5.196   3.459   1.308  0.9130  0.0933  0.2353
 4972TIP3   OH236330   5.433   4.413  11.815  0.4071  0.7925 -0.3411
 4972TIP3    H136331   5.453   4.496  11.858 -0.3734  0.2627  1.1298
 4972TIP3    H236332   5.480   4.348  11.866  0.1808  0.2208 -0.8490
 4973TIP3   OH236333   6.650   4.601   4.635 -0.1267  0.1554 -0.0973
 4973TIP3    H136334   6.735   4.558   4.643 -0.1318  0.0501 -0.5963
 4973TIP3    H236335   6.657   4.656   4.557 -1.6112 -2.5105 -2.2986
 4974TIP3   OH236336   3.860   5.449  10.761  0.1417 -0.5207 -0.4218
 4974TIP3    H136337   3.934   5.396  10.732  1.4885  0.3499  1.2857
 4974TIP3    H236338   3.789   5.386  10.775  0.0931 -1.2560 -3.1942
 4975TIP3   OH236339   6.393   0.180  11.771  0.4138 -0.1073  0.0695
 4975TIP3    H136340   6.452   0.109  11.747 -0.2252 -0.5556 -0.2129
 4975TIP3    H236341   6.369   0.163  11.862  1.1795  0.4087  0.3736
 4976TIP3   OH236342   2.419   6.261   4.313  0.0972  0.0736 -0.6827
 4976TIP3    H136343   2.477   6.251   4.388 -0.5789 -0.5478 -0.2255
 4976TIP3    H236344   2.471   6.232   4.238 -0.0638 -1.8438 -0.0912
 4977TIP3   OH236345   5.665   3.277  15.253 -0.1343  0.0095 -0.2018
 4977TIP3    H136346   5.650   3.226  15.174  1.0747 -1.3269  0.3891
 4977TIP3    H236347   5.737   3.232  15.298  1.1231  2.3118  0.2778
 4978TIP3   OH236348   4.200   0.799  12.622  0.0786  0.3645  0.0871
 4978TIP3    H136349   4.294   0.814  12.616 -0.0988  1.0414 -1.3431
 4978TIP3    H236350   4.165   0.880  12.658 -0.1562  0.9419 -1.3622
 4979TIP3   OH236351   1.675   0.843  15.580  0.0148  0.3684 -0.4372
 4979TIP3    H136352   1.595   0.869  15.626 -0.6556  2.3526 -2.5712
 4979TIP3    H236353   1.735   0.916  15.592  0.7864 -0.2230 -0.5698
 4980TIP3   OH236354   1.438   2.628   1.011 -0.0654 -0.3206 -0.2599
 4980TIP3    H136355   1.473   2.604   0.925 -0.1829 -0.5040 -0.2584
 4980TIP3    H236356   1.496   2.583   1.074  1.2223  1.3717 -0.1683
 4981TIP3   OH236357   0.043   0.146  11.497 -0.5924 -0.6414  0.5494
 4981TIP3    H136358  -0.037   0.119  11.452 -1.6732  1.1648  1.2839
 4981TIP3    H236359   0.078   0.065  11.533  0.3644 -2.2397 -3.3905
 4982TIP3   OH236360   0.069   4.433  13.445 -0.5000 -0.2806  0.2969
 4982TIP3    H136361   0.065   4.339  13.462 -0.0440 -0.1073  1.4556
 4982TIP3    H236362  -0.003   4.449  13.384 -1.9566 -1.0570  1.7038
 4983TIP3   OH236363   2.272   2.711  15.850  0.2516 -0.4111  0.0427
 4983TIP3    H136364   2.278   2.755  15.765 -0.9943  0.7340  0.5233
 4983TIP3    H236365   2.358   2.726  15.890  0.6184 -0.3773 -0.7426
 4984TIP3   OH236366   3.972   0.197   4.984  0.3008 -0.3968  0.0576
 4984TIP3    H136367   4.060   0.222   4.956  0.2903  0.6170  0.8600
 4984TIP3    H236368   3.937   0.276   5.025 -0.9168 -0.8444 -0.0721
 4985TIP3   OH236369   1.447   0.556   0.021  0.2122  0.0423 -0.0165
 4985TIP3    H136370   1.471   0.643   0.053 -0.7234 -0.2856  1.6907
 4985TIP3    H236371   1.503   0.542  -0.055  1.9313  1.2333  0.9678
 4986TIP3   OH236372   3.707   5.325   2.395 -0.2753 -0.1782 -0.0560
 4986TIP3    H136373   3.765   5.250   2.383  0.8643  0.8042 -0.9476
 4986TIP3    H236374   3.694   5.332   2.489  0.9152 -0.5249  0.1422
 4987TIP3   OH236375   2.815   2.533  12.038  0.8016  0.3440  0.8360
 4987TIP3    H136376   2.866   2.574  11.968 -0.4940  3.5415  1.6374
 4987TIP3    H236377   2.756   2.473  11.992  0.5857  1.7058 -0.7461
 4988TIP3   OH236378   0.396   3.018   2.796  0.0426 -0.4496 -0.2269
 4988TIP3    H136379   0.440   2.999   2.714 -0.6832  0.5887 -0.8819
 4988TIP3    H236380   0.303   3.005   2.778 -0.2601  1.2298 -0.0279
 4989TIP3   OH236381   3.682   3.408   5.562 -0.1916  0.2290 -0.0306
 4989TIP3    H136382   3.671   3.500   5.583  1.2897  0.8177 -1.5706
 4989TIP3    H236383   3.594   3.377   5.541 -0.5655  1.5651 -0.4901
 4990TIP3   OH236384   4.924   4.465  13.514 -0.1074  0.2773 -0.1505
 4990TIP3    H136385   4.841   4.467  13.464 -0.1799 -1.2317 -0.1325
 4990TIP3    H236386   4.907   4.404  13.586  1.0992 -0.2513 -0.2943
 4991TIP3   OH236387   5.172   2.402   3.969  0.2027 -0.2097 -0.2880
 4991TIP3    H136388   5.247   2.418   4.027  1.8405 -2.2483 -1.7224
 4991TIP3    H236389   5.175   2.309   3.950 -3.6052 -0.6844  0.6878
 4992TIP3   OH236390   3.256   6.530   3.031  0.8463 -0.4485 -0.6289
 4992TIP3    H136391   3.290   6.485   3.109  0.2461 -0.3876 -0.3297
 4992TIP3    H236392   3.248   6.622   3.059  0.7730 -0.4006 -0.8116
 4993TIP3   OH236393   5.862   1.815   0.768 -0.2702  0.6126 -0.2208
 4993TIP3    H136394   5.894   1.808   0.858 -0.1073 -1.1892 -0.3703
 4993TIP3    H236395   5.896   1.898   0.736  2.3891 -0.1602  0.3737
 4994TIP3   OH236396   0.141   1.872  14.960  0.3194 -1.0616 -0.3532
 4994TIP3    H136397   0.200   1.813  14.913  0.3646 -0.8701 -0.5427
 4994TIP3    H236398   0.190   1.900  15.037  1.3529  0.8271 -1.6293
 4995TIP3   OH236399   5.939   1.122   5.856  0.3758  0.0838  0.1265
 4995TIP3    H136400   5.977   1.124   5.768 -1.3842 -1.1898 -0.7084
 4995TIP3    H236401   6.004   1.076   5.909  1.1828  0.3066 -0.6411
 4996TIP3   OH236402   1.138   4.870  12.550 -0.4152  0.4255  0.1188
 4996TIP3    H136403   1.139   4.774  12.552 -2.4993  0.3385 -0.4153
 4996TIP3    H236404   1.219   4.894  12.505 -0.2225 -1.1163 -0.4184
 4997TIP3   OH236405   4.179   3.392   1.027  0.7011 -0.6100  0.1355
 4997TIP3    H136406   4.272   3.410   1.015  1.0182 -2.2086  0.0960
 4997TIP3    H236407   4.157   3.438   1.109  1.2031  0.7848 -0.4692
 4998TIP3   OH236408   0.643   5.406  13.920 -0.3694  0.3401  0.4303
 4998TIP3    H136409   0.721   5.353  13.936 -0.4938  0.3984  1.3106
 4998TIP3    H236410   0.643   5.469  13.993 -1.1553  0.4380  0.3469
 4999TIP3   OH236411   5.743   2.608  15.939 -0.0604 -0.1773 -0.3286
 4999TIP3    H136412   5.666   2.563  15.974 -0.6627 -1.1698 -2.7101
 4999TIP3    H236413   5.792   2.539  15.894  0.4313  1.0533 -1.7447
 5000TIP3   OH236414   0.298   2.937  15.066 -0.0750  0.0825  0.2578
 5000TIP3    H136415   0.358   2.951  15.140  0.2734  2.1887 -0.3722
 5000TIP3    H236416   0.213   2.969  15.098 -0.3102 -0.5607  0.2925
 5001TIP3   OH236417   1.481   6.149  15.946  0.2410 -0.2301 -0.1376
 5001TIP3    H136418   1.434   6.127  16.025  0.8324 -3.5250 -0.5565
 5001TIP3    H236419   1.573   6.152  15.972  0.3142  0.3851 -0.4221
 5002TIP3   OH236420   0.901   6.578   1.340  0.0148 -0.1998 -0.3363
 5002TIP3    H136421   0.849   6.583   1.259 -1.9762  0.4912  0.9137
 5002TIP3    H236422   0.990   6.598   1.312 -0.7789  1.0686 -2.2133
 5003TIP3   OH236423   2.849   3.945   1.759  0.0217  0.5898  0.3050
 5003TIP3    H136424   2.789   4.013   1.790 -2.5629 -1.1514 -0.5924
 5003TIP3    H236425   2.849   3.955   1.664  1.1976  0.5413  0.2842
 5004TIP3   OH236426   2.032   1.994  14.879  0.0656 -0.2323  0.0285
 5004TIP3    H136427   1.972   1.927  14.909  0.8686 -1.8428 -1.7357
 5004TIP3    H236428   1.983   2.042  14.812  0.2255 -0.5039 -0.2818
 5005TIP3   OH236429   1.866   2.382   1.155  0.5352 -0.3244 -0.1470
 5005TIP3    H136430   1.941   2.359   1.100 -0.6666  0.1573 -2.1116
 5005TIP3    H236431   1.810   2.304   1.151  0.2640 -0.1423  0.1057
 5006TIP3   OH236432   4.415   6.016   5.686  0.6257 -0.2463 -0.2223
 5006TIP3    H136433   4.338   5.991   5.738 -0.1159 -0.6204 -1.4687
 5006TIP3    H236434   4.419   6.111   5.695  0.5433 -0.3030  0.5431
 5007TIP3   OH236435   6.636   1.277   4.955 -0.6437  0.7443 -0.0533
 5007TIP3    H136436   6.658   1.213   5.023 -0.4280  0.6206 -0.2366
 5007TIP3    H236437   6.620   1.358   5.002  0.8350  0.9993  0.0453
 5008TIP3   OH236438   3.219   1.465  14.412  0.2702 -0.2852 -0.2521
 5008TIP3    H136439   3.127   1.447  14.433  0.1305 -2.3342 -2.1351
 5008TIP3    H236440   3.216   1.500  14.323  1.2465  0.9544  0.1859
 5009TIP3   OH236441   1.955   6.711   6.035 -0.3751  0.2558 -0.7862
 5009TIP3    H136442   1.905   6.782   5.996 -2.2710 -0.3670  0.3571
 5009TIP3    H236443   1.927   6.709   6.127  1.0843 -0.7327 -0.3169
 5010TIP3   OH236444   1.846   6.561   0.236 -0.3375  0.0680  0.5562
 5010TIP3    H136445   1.900   6.637   0.214  0.4233 -0.3783  0.8499
 5010TIP3    H236446   1.888   6.487   0.193 -0.3543 -0.3872  1.3012
 5011TIP3   OH236447   1.640   5.840   0.356  0.0480  0.0635  0.2098
 5011TIP3    H136448   1.561   5.892   0.343  1.0371  1.9100  1.0199
 5011TIP3    H236449   1.711   5.905   0.357  1.3784 -1.3189  1.1922
 5012TIP3   OH236450   2.371   4.397  11.802 -0.2051 -0.4352  0.4770
 5012TIP3    H136451   2.409   4.312  11.779 -0.4888 -0.0897 -1.4149
 5012TIP3    H236452   2.446   4.456  11.805 -0.1191 -0.5618  0.8382
 5013TIP3   OH236453   0.027   3.028   5.409  0.0996 -0.1847 -0.5998
 5013TIP3    H136454  -0.003   3.113   5.441 -0.4548  0.1090 -1.8049
 5013TIP3    H236455   0.016   3.034   5.314 -1.1635 -2.0538 -0.6218
 5014TIP3   OH236456   3.104   3.311   0.153  0.6496 -0.4657  0.1314
 5014TIP3    H136457   3.101   3.365   0.232 -2.3021  1.2357 -0.9905
 5014TIP3    H236458   3.088   3.222   0.184  0.4004  0.0347  1.5169
 5015TIP3   OH236459   3.184   2.328  15.262  0.2329 -0.2073 -0.0966
 5015TIP3    H136460   3.206   2.257  15.202  0.5671 -0.1641 -0.0262
 5015TIP3    H236461   3.243   2.399  15.239 -1.0466  0.5570 -1.0939
 5016TIP3   OH236462   4.570   3.352   3.322  0.0710 -0.1943 -0.6087
 5016TIP3    H136463   4.660   3.369   3.348  0.6702  0.1231 -2.7513
 5016TIP3    H236464   4.562   3.256   3.326  0.6876 -0.2643 -0.9437
 5017TIP3   OH236465   2.010   4.285  15.825  0.4772  0.0095 -0.1489
 5017TIP3    H136466   1.938   4.262  15.884  0.4525 -0.6637 -0.4304
 5017TIP3    H236467   2.080   4.225  15.848  1.4319  1.4982  0.9955
 5018TIP3   OH236468   4.332   4.526   1.732  0.2466 -0.2459  0.0876
 5018TIP3    H136469   4.408   4.489   1.776 -0.0875 -0.9665  0.0739
 5018TIP3    H236470   4.361   4.612   1.701  0.8958 -0.3072  0.5147
 5019TIP3   OH236471   2.786   3.114  11.112  0.4110  0.4322 -0.2845
 5019TIP3    H136472   2.839   3.035  11.099 -2.5724 -1.4614 -2.3855
 5019TIP3    H236473   2.831   3.182  11.062  2.5018 -0.1602  0.6934
 5020TIP3   OH236474   0.322   1.567   3.038 -0.3383  0.0865  0.3601
 5020TIP3    H136475   0.273   1.645   3.064 -0.4897  0.3111 -0.5621
 5020TIP3    H236476   0.294   1.550   2.948  1.5009  0.4371 -0.3287
 5021TIP3   OH236477   4.143   1.350   5.072  0.0042  0.1381 -0.0073
 5021TIP3    H136478   4.161   1.444   5.061  2.9822 -0.4227 -0.8185
 5021TIP3    H236479   4.161   1.334   5.165 -0.2048  0.3311  0.0665
 5022TIP3   OH236480   5.981   0.489  11.044 -0.5734  0.4152 -0.2003
 5022TIP3    H136481   5.929   0.458  10.970  1.3993 -1.0658 -1.0541
 5022TIP3    H236482   6.021   0.570  11.012  1.4380 -0.9617 -1.4077
 5023TIP3   OH236483   0.104   4.513   3.126 -0.7481  0.8991  0.4211
 5023TIP3    H136484   0.145   4.540   3.044 -0.1661  0.1773  0.4601
 5023TIP3    H236485   0.177   4.510   3.189 -0.7999 -0.5728  0.4538
 5024TIP3   OH236486   5.013   4.416   4.512 -0.2214  0.4707  0.0960
 5024TIP3    H136487   4.926   4.391   4.481 -0.5507 -0.6754  1.7686
 5024TIP3    H236488   5.069   4.409   4.435 -1.4080  0.1338 -0.7632
 5025TIP3   OH236489   4.049   1.308  13.198 -0.7928  0.4735  0.3580
 5025TIP3    H136490   4.123   1.293  13.256 -0.8054 -1.0210  0.0222
 5025TIP3    H236491   3.974   1.316  13.257 -0.5585  0.7682  0.6271
 5026TIP3   OH236492   1.310   2.925   0.283 -0.6356  0.1773 -0.4882
 5026TIP3    H136493   1.341   2.933   0.193 -3.6241  1.7897 -1.5301
 5026TIP3    H236494   1.260   2.844   0.284 -1.0711  0.4372 -0.4929
 5027TIP3   OH236495   5.124   3.283   0.398  0.3185 -0.0664 -0.3108
 5027TIP3    H136496   5.048   3.341   0.397 -1.2217 -1.8891  1.5979
 5027TIP3    H236497   5.168   3.304   0.481  1.7822  0.7553 -1.2551
 5028TIP3   OH236498   3.742   4.065  14.959 -0.5727 -0.4698  0.0962
 5028TIP3    H136499   3.690   4.079  15.038 -0.2954  0.8395  0.0658
 5028TIP3    H236500   3.828   4.038  14.991 -0.7206 -0.8199  0.2042
 5029TIP3   OH236501   0.650   6.111  16.018 -0.6104  0.5657 -0.0875
 5029TIP3    H136502   0.585   6.181  16.017  0.9885  2.1339  0.6336
 5029TIP3    H236503   0.636   6.067  16.102 -0.5003  1.1577  0.2479
 5030TIP3   OH236504   5.617   2.687   5.537  1.1959  0.1256 -0.2639
 5030TIP3    H136505   5.639   2.780   5.541 -0.8826  0.6430  0.8990
 5030TIP3    H236506   5.621   2.657   5.628 -1.0138 -0.1189 -0.1908
 5031TIP3   OH236507   3.454   1.562   0.795 -0.1305  0.0954 -0.0252
 5031TIP3    H136508   3.392   1.580   0.866 -0.4891  0.4243 -0.4198
 5031TIP3    H236509   3.528   1.518   0.838 -0.3003  0.3840  0.5664
 5032TIP3   OH236510   4.488   5.508   2.986  0.7440  0.2201 -0.4977
 5032TIP3    H136511   4.541   5.503   2.907  2.6686  1.4552  0.6497
 5032TIP3    H236512   4.550   5.497   3.058 -0.4971  1.8173  0.9069
 5033TIP3   OH236513   5.876   4.560  13.854 -0.5719  0.8668 -0.2494
 5033TIP3    H136514   5.861   4.638  13.801 -0.3073  1.5108  0.5994
 5033TIP3    H236515   5.794   4.549  13.903  0.2378  2.0774  1.4617
 5034TIP3   OH236516   0.845   2.743   4.885  0.4754  0.0935  0.4313
 5034TIP3    H136517   0.891   2.662   4.905  1.4809  0.5255 -0.1020
 5034TIP3    H236518   0.803   2.727   4.801 -0.7295 -0.4372  1.0940
 5035TIP3   OH236519   3.953   5.747  10.243  0.0531 -0.2771  1.1498
 5035TIP3    H136520   3.895   5.776  10.313 -0.7267  0.6839  0.1400
 5035TIP3    H236521   3.897   5.695  10.185  0.4273 -0.1501  0.6673
 5036TIP3   OH236522   1.806   6.176  14.745  0.2796  0.4837  0.4640
 5036TIP3    H136523   1.739   6.116  14.777  1.0171  0.2209  1.6215
 5036TIP3    H236524   1.889   6.130  14.761  0.7885  1.2372  0.0750
 5037TIP3   OH236525   5.485   3.505  14.606 -0.2339  0.1202  0.7030
 5037TIP3    H136526   5.403   3.518  14.653  2.0708 -1.7516  5.9748
 5037TIP3    H236527   5.519   3.593  14.592 -0.7155  0.8390  3.5198
 5038TIP3   OH236528   2.638   3.500   4.775 -0.4598  0.1575  0.0096
 5038TIP3    H136529   2.679   3.430   4.723 -0.1295  0.0056  0.4698
 5038TIP3    H236530   2.553   3.465   4.801 -0.8668  0.4421 -0.8807
 5039TIP3   OH236531   2.146   1.382  12.346 -0.1320 -0.4532 -0.0327
 5039TIP3    H136532   2.158   1.344  12.433 -1.7787 -1.3587 -0.1617
 5039TIP3    H236533   2.171   1.312  12.286 -2.9052 -1.3478 -0.2697
 5040TIP3   OH236534   0.768   5.467  13.173  0.3409 -0.3137  0.1145
 5040TIP3    H136535   0.814   5.542  13.209 -0.1737 -0.3187  0.8006
 5040TIP3    H236536   0.829   5.428  13.111  0.1536  1.4261 -1.2322
 5041TIP3   OH236537   5.442   4.869  11.464  0.4598 -0.6937 -0.0276
 5041TIP3    H136538   5.437   4.857  11.558 -0.6602 -0.0049  0.0250
 5041TIP3    H236539   5.407   4.957  11.449  2.7251  0.1336 -0.8951
 5042TIP3   OH236540   5.814   5.316   5.423 -1.0850  0.0406 -0.0010
 5042TIP3    H136541   5.818   5.227   5.457 -3.0540 -0.8003 -1.7733
 5042TIP3    H236542   5.768   5.366   5.491 -1.6039 -0.7205  0.2179
 5043TIP3   OH236543   1.923   0.811   0.867 -0.5332  0.1245  0.3020
 5043TIP3    H136544   1.857   0.843   0.806  1.0778 -0.4538 -1.8940
 5043TIP3    H236545   1.975   0.888   0.889  0.5349 -0.0955 -1.3003
 5044TIP3   OH236546   1.955   4.305   6.652  0.3997 -0.5169 -0.5643
 5044TIP3    H136547   1.937   4.212   6.666  1.0294 -0.5635 -0.0282
 5044TIP3    H236548   2.047   4.307   6.625 -0.0349 -0.1865 -2.1714
 5045TIP3   OH236549   4.110   3.620  13.997 -0.3090 -0.0345 -0.3439
 5045TIP3    H136550   4.051   3.597  13.925 -0.0978  1.6517 -1.0915
 5045TIP3    H236551   4.088   3.710  14.019  1.0228  0.1487  0.3314
 5046TIP3   OH236552   1.256   1.195  11.060 -0.3078 -0.0417  0.0476
 5046TIP3    H136553   1.162   1.209  11.072 -0.3987  0.8618 -1.4929
 5046TIP3    H236554   1.276   1.235  10.976  1.3521 -0.7724  0.0526
 5047TIP3   OH236555   2.862   0.230  15.124  0.4532  0.6935 -0.1618
 5047TIP3    H136556   2.817   0.267  15.048  0.0808  0.0967 -0.2340
 5047TIP3    H236557   2.859   0.300  15.190 -0.3913  0.7443 -0.2395
 5048TIP3   OH236558   6.102   0.572   2.913  0.0907  0.1699 -0.1474
 5048TIP3    H136559   6.015   0.562   2.952  0.2388  1.9264  0.7493
 5048TIP3    H236560   6.092   0.541   2.823 -1.7766  1.3590 -0.4103
 5049TIP3   OH236561   3.596   1.862  16.501 -0.2763  0.4976 -0.3693
 5049TIP3    H136562   3.606   1.806  16.579 -0.9957  0.7715 -0.0711
 5049TIP3    H236563   3.539   1.933  16.530 -0.9171  0.3592 -1.2743
 5050TIP3   OH236564   1.767   3.963  11.478  0.3426 -0.3050  0.2680
 5050TIP3    H136565   1.837   3.932  11.534  0.0532 -2.5354 -0.5058
 5050TIP3    H236566   1.812   4.014  11.410  0.8264  1.1286  1.6030
 5051TIP3   OH236567   4.952   4.529   1.527  0.5824 -0.1938 -0.4381
 5051TIP3    H136568   4.859   4.537   1.506  0.4790  0.0237  0.0829
 5051TIP3    H236569   4.985   4.463   1.466  0.3018  0.4312 -1.2900
 5052TIP3   OH236570   1.679   5.614   5.692 -0.6171  0.3425 -0.3309
 5052TIP3    H136571   1.736   5.650   5.760 -2.5124  0.5711  1.2305
 5052TIP3    H236572   1.643   5.691   5.648 -0.2981  0.2173 -0.8162
 5053TIP3   OH236573   4.090   6.411   2.574 -0.1683  0.3440 -0.3092
 5053TIP3    H136574   4.065   6.409   2.481  1.8506  0.1738 -0.8989
 5053TIP3    H236575   4.181   6.441   2.573 -0.7087  2.3139  1.7852
 5054TIP3   OH236576   3.076   6.006  13.725 -0.0116  0.4441  0.1106
 5054TIP3    H136577   3.115   6.001  13.812  1.3796  0.5216 -0.4751
 5054TIP3    H236578   3.006   6.070  13.733 -0.1154  0.1983  1.2479
 5055TIP3   OH236579   5.723   4.874   5.501  0.2184  0.0773  0.3071
 5055TIP3    H136580   5.772   4.955   5.512  0.6212 -0.3051  1.4790
 5055TIP3    H236581   5.645   4.899   5.453  0.0201  1.2832  1.2256
 5056TIP3   OH236582   4.100   0.064   0.771  0.2752  0.1721  0.3300
 5056TIP3    H136583   4.118  -0.022   0.809 -1.2700 -1.2941 -1.9698
 5056TIP3    H236584   4.005   0.073   0.774  0.2346  0.7715 -1.4840
 5057TIP3   OH236585   3.357   5.891   3.657 -0.2226 -0.1793  0.2532
 5057TIP3    H136586   3.361   5.892   3.562  1.6594 -3.8673  0.0863
 5057TIP3    H236587   3.443   5.922   3.685 -0.0299 -1.0130  0.6231
 5058TIP3   OH236588   2.925   3.263   5.982 -0.1364 -0.1388  0.2659
 5058TIP3    H136589   2.929   3.272   5.886  0.1559  1.8871  0.4262
 5058TIP3    H236590   2.950   3.350   6.015 -1.3887 -0.4592  2.1701
 5059TIP3   OH236591   0.693   1.673  15.321  0.3559 -0.1440 -0.5903
 5059TIP3    H136592   0.647   1.660  15.238 -0.9332 -0.3776  0.1366
 5059TIP3    H236593   0.779   1.708  15.295 -0.1068  0.0364 -1.9999
 5060TIP3   OH236594   4.981   4.178   0.580  0.0476 -0.4736  0.2411
 5060TIP3    H136595   4.889   4.191   0.558  0.0507  0.5151  0.7338
 5060TIP3    H236596   5.008   4.103   0.528 -1.2029 -1.1801  0.5747
 5061TIP3   OH236597   1.907   4.531  11.972  0.3080  0.2214  0.3464
 5061TIP3    H136598   1.894   4.585  11.895 -0.3391  1.3483  1.2142
 5061TIP3    H236599   1.999   4.503  11.967  0.4370  0.7750 -0.5052
 5062TIP3   OH236600   2.449   0.414   5.591  0.1704  0.5749 -0.2116
 5062TIP3    H136601   2.539   0.398   5.562 -0.4027 -1.1316 -1.1958
 5062TIP3    H236602   2.451   0.502   5.628  2.3660  0.3499  0.3420
 5063TIP3   OH236603   2.197   0.208  14.274 -0.1618 -0.0762  0.4214
 5063TIP3    H136604   2.106   0.185  14.256  0.3559 -2.2496  0.4057
 5063TIP3    H236605   2.248   0.133  14.245  1.5478  0.5586  1.6101
 5064TIP3   OH236606   4.859   0.533   3.264  0.2776 -0.0404 -0.4394
 5064TIP3    H136607   4.939   0.491   3.296  0.5259 -0.2495 -1.3044
 5064TIP3    H236608   4.792   0.505   3.326  1.1485  1.4997  1.2982
 5065TIP3   OH236609   3.297   4.508  10.394  0.3452  0.3759 -0.6776
 5065TIP3    H136610   3.337   4.563  10.461  0.2242 -1.4363  0.9798
 5065TIP3    H236611   3.203   4.510  10.414  0.5636 -2.4831  1.1749
 5066TIP3   OH236612   6.627   3.385   2.834  0.2812  0.0327 -0.1546
 5066TIP3    H136613   6.542   3.414   2.802 -0.5151 -0.6667  1.2216
 5066TIP3    H236614   6.656   3.319   2.772 -1.7215 -2.0809  1.0145
 5067TIP3   OH236615   3.288   2.942   3.247 -0.1387  0.3275 -0.3197
 5067TIP3    H136616   3.271   2.848   3.241  0.7118  0.1429  0.0760
 5067TIP3    H236617   3.383   2.950   3.248 -0.1634  1.2873 -1.7925
 5068TIP3   OH236618   6.643   1.077   1.382  0.6567  0.7680 -0.0681
 5068TIP3    H136619   6.663   0.985   1.399  0.4966  1.0446  1.7867
 5068TIP3    H236620   6.688   1.125   1.452 -1.6722  1.8554  0.7938
 5069TIP3   OH236621   6.707   6.154  11.102  0.2918 -0.3353  0.2708
 5069TIP3    H136622   6.748   6.127  11.020 -0.0806 -1.2633  0.3738
 5069TIP3    H236623   6.779   6.184  11.157  0.8189 -1.7131  0.3613
 5070TIP3   OH236624   0.447   4.567   5.814  0.5138 -0.7077  0.0686
 5070TIP3    H136625   0.404   4.653   5.822  2.3141  0.5197 -2.3058
 5070TIP3    H236626   0.381   4.505   5.845 -0.7429  1.5116  2.1945
 5071TIP3   OH236627   4.661   0.792   3.257 -0.3203 -0.0824 -0.2895
 5071TIP3    H136628   4.600   0.860   3.285  0.7197  1.3771 -1.4299
 5071TIP3    H236629   4.708   0.767   3.337 -1.8230 -0.6529  0.4399
 5072TIP3   OH236630   5.266   6.296  11.826  0.4338 -0.3021 -0.5241
 5072TIP3    H136631   5.263   6.206  11.792  0.5540 -0.8975  0.9573
 5072TIP3    H236632   5.346   6.298  11.879  0.3245  0.6248 -0.3878
 5073TIP3   OH236633   0.682   3.393   6.042 -0.1014 -0.8258 -0.2693
 5073TIP3    H136634   0.773   3.378   6.016  0.4474 -0.3664  1.2378
 5073TIP3    H236635   0.676   3.356   6.130 -1.6562 -1.7143 -0.7143
 5074TIP3   OH236636   6.352   3.246  14.531  0.2568  0.2630 -0.4228
 5074TIP3    H136637   6.437   3.262  14.490 -0.7784 -0.5954 -3.1364
 5074TIP3    H236638   6.312   3.179  14.477 -1.4847 -0.6503  1.8304
 5075TIP3   OH236639   4.589   1.734   1.183  0.1470 -0.2014 -0.0391
 5075TIP3    H136640   4.642   1.743   1.104  0.4259 -2.0536 -0.1044
 5075TIP3    H236641   4.581   1.639   1.196  1.7291 -0.0182  3.2337
 5076TIP3   OH236642   2.543   0.321  11.438 -0.4577  1.0214 -0.0384
 5076TIP3    H136643   2.518   0.303  11.529  2.2137 -0.4941  0.5001
 5076TIP3    H236644   2.472   0.284  11.386 -0.4744 -1.0814  1.3854
 5077TIP3   OH236645   3.286   2.118  15.082  0.1626  0.0233 -0.1762
 5077TIP3    H136646   3.212   2.150  15.030  0.9890  5.3034  1.3128
 5077TIP3    H236647   3.354   2.097  15.018 -0.0211  2.9272 -1.4516
 5078TIP3   OH236648   5.479   6.365  16.969  0.1884 -0.2368  0.3261
 5078TIP3    H136649   5.443   6.435  16.915 -3.4679 -2.3304 -0.2945
 5078TIP3    H236650   5.489   6.291  16.909  2.8230 -0.6556  1.1791
 5079TIP3   OH236651   2.572   2.117   2.309 -0.2457 -0.0933  0.3380
 5079TIP3    H136652   2.665   2.138   2.298  0.7804 -3.3817  1.4664
 5079TIP3    H236653   2.545   2.165   2.387  0.8457 -0.0288  0.6880
 5080TIP3   OH236654   2.056   5.619  16.418  0.5653 -0.3497  0.3133
 5080TIP3    H136655   2.025   5.529  16.431 -2.1005  0.4910  0.3739
 5080TIP3    H236656   2.120   5.612  16.346 -0.6472 -2.1156 -0.6763
 5081TIP3   OH236657   3.381   4.743   5.004 -0.6700 -0.9441 -0.3142
 5081TIP3    H136658   3.395   4.763   4.911  2.2244 -0.5691  0.1084
 5081TIP3    H236659   3.354   4.651   5.005  0.4019 -1.2986 -1.4784
 5082TIP3   OH236660   0.196   5.821  10.211 -0.0408  0.3158 -0.0388
 5082TIP3    H136661   0.241   5.877  10.147  0.3978  1.1724  0.9922
 5082TIP3    H236662   0.140   5.881  10.260  1.7931  0.2648  2.3188
 5083TIP3   OH236663   2.658   6.632  11.201 -0.1325 -0.6192 -0.2653
 5083TIP3    H136664   2.665   6.544  11.239 -0.8233 -1.0308 -1.0732
 5083TIP3    H236665   2.602   6.621  11.124  0.1484  0.4506 -0.6371
 5084TIP3   OH236666   1.242   3.210  13.130 -0.0145  0.7619  0.6156
 5084TIP3    H136667   1.287   3.149  13.072 -1.4052 -1.5855  1.8394
 5084TIP3    H236668   1.210   3.155  13.202 -3.6351  2.4741  0.5066
 5085TIP3   OH236669   5.567   0.051  17.003  0.5703  0.0699 -0.0277
 5085TIP3    H136670   5.583   0.074  17.095  1.1375  0.7818 -0.2929
 5085TIP3    H236671   5.472   0.051  16.995  0.5144 -0.0695  0.5748
 5086TIP3   OH236672   4.417   0.575   4.857  0.3538 -0.7977  0.0587
 5086TIP3    H136673   4.502   0.542   4.827 -0.2581 -2.3671 -0.0442
 5086TIP3    H236674   4.406   0.537   4.945 -0.5652 -1.2549 -0.2379
 5087TIP3   OH236675   2.583   6.361  12.580 -0.1091  0.0386 -0.5856
 5087TIP3    H136676   2.521   6.409  12.635 -0.5185  0.3458 -1.3004
 5087TIP3    H236677   2.544   6.275  12.570  0.7650 -0.5901  0.9368
 5088TIP3   OH236678   4.419   0.800   0.673 -0.5765  0.1653 -0.0814
 5088TIP3    H136679   4.411   0.841   0.759  0.1357 -0.5645  0.3413
 5088TIP3    H236680   4.392   0.710   0.686  2.9205 -0.9894  0.2724
 5089TIP3   OH236681   5.833   0.663   3.684 -0.1650  0.0789  0.0006
 5089TIP3    H136682   5.794   0.599   3.744 -1.0445  1.4577  0.9721
 5089TIP3    H236683   5.927   0.652   3.695 -0.2976 -0.9908  0.1923
 5090TIP3   OH236684   0.847   1.525   5.682 -0.1865 -0.1953  0.1188
 5090TIP3    H136685   0.867   1.592   5.747 -1.3564 -0.4944  0.8130
 5090TIP3    H236686   0.776   1.473   5.721 -0.3929 -0.8539 -1.0676
 5091TIP3   OH236687   1.074   2.662  14.975  0.1492  0.3682  0.1157
 5091TIP3    H136688   0.997   2.688  14.924 -2.4812 -0.6782  3.2009
 5091TIP3    H236689   1.104   2.581  14.934 -0.2397  0.9213 -1.3000
 5092TIP3   OH236690   1.161   3.660   0.398  0.4927  0.1090  0.5125
 5092TIP3    H136691   1.220   3.668   0.323 -0.6021 -1.2801 -0.5608
 5092TIP3    H236692   1.143   3.566   0.403 -1.6989  0.4925  0.7179
 5093TIP3   OH236693   0.937   1.118  11.789 -0.1786  0.1018  0.0262
 5093TIP3    H136694   0.870   1.107  11.857 -0.2974  1.3122  0.1239
 5093TIP3    H236695   0.972   1.206  11.805  2.2747 -0.9222  0.7286
 5094TIP3   OH236696   2.437   0.487  13.904  0.1550 -0.1598 -0.0710
 5094TIP3    H136697   2.480   0.533  13.976  0.2994  0.2158 -0.3986
 5094TIP3    H236698   2.353   0.459  13.941  0.8778 -1.3805  0.7450
 5095TIP3   OH236699   6.298   1.089   1.147  0.0447 -0.2166  0.5947
 5095TIP3    H136700   6.241   1.022   1.107 -0.5727  0.7911 -0.2930
 5095TIP3    H236701   6.386   1.064   1.120 -0.0970 -1.0757  0.8889
 5096TIP3   OH236702   6.794   3.162  14.627  0.6289 -0.5223  0.3487
 5096TIP3    H136703   6.858   3.142  14.559  1.8336  0.7878  1.0318
 5096TIP3    H236704   6.747   3.080  14.640  0.6251 -0.9095 -1.7601
 5097TIP3   OH236705   5.493   6.592  11.902 -0.5980 -0.2216  0.7846
 5097TIP3    H136706   5.496   6.499  11.881  0.0542  0.0797 -0.5475
 5097TIP3    H236707   5.503   6.636  11.818 -0.8100  1.0596  1.4071
 5098TIP3   OH236708   2.478   1.857   0.392  0.5008  0.2609  0.0628
 5098TIP3    H136709   2.411   1.896   0.448 -0.9171 -0.5643 -0.9840
 5098TIP3    H236710   2.431   1.834   0.311  2.0323 -0.4315 -0.6643
 5099TIP3   OH236711   3.809   1.340   6.216 -0.3137 -0.3069  0.2205
 5099TIP3    H136712   3.768   1.403   6.157  0.5209  1.4429  1.4223
 5099TIP3    H236713   3.902   1.359   6.211 -0.0439 -1.4019  0.6970
 5100TIP3   OH236714   1.518   6.766   1.257 -0.2035 -0.0670 -0.1529
 5100TIP3    H136715   1.549   6.687   1.214 -1.2659  0.3774 -1.8078
 5100TIP3    H236716   1.566   6.837   1.216 -0.0191  0.2445  0.5813
 5101TIP3   OH236717   4.397   3.857  13.164  0.0617  0.0498  0.6158
 5101TIP3    H136718   4.477   3.837  13.212 -0.7877  0.0564  2.0771
 5101TIP3    H236719   4.372   3.774  13.123  1.0412  0.1557 -0.2463
 5102TIP3   OH236720   1.971   3.055   4.374 -0.5626 -0.5068  0.5180
 5102TIP3    H136721   1.986   2.962   4.356 -0.0979 -0.3296 -0.0483
 5102TIP3    H236722   1.936   3.057   4.463  1.2650 -1.0769  1.2780
 5103TIP3   OH236723   0.597   1.731  15.048  0.4331  0.2456  0.2506
 5103TIP3    H136724   0.506   1.715  15.021  0.3910 -0.8892  1.0114
 5103TIP3    H236725   0.627   1.800  14.989 -0.7240  0.1978 -0.4354
 5104TIP3   OH236726   2.171   2.417  16.736 -0.2139 -0.0551  0.3105
 5104TIP3    H136727   2.141   2.340  16.784 -0.8814  0.8998  1.4680
 5104TIP3    H236728   2.135   2.491  16.784 -2.2750  0.9659 -2.5431
 5105TIP3   OH236729   3.009   2.761  17.072 -0.2717  0.6503  0.5325
 5105TIP3    H136730   3.013   2.800  17.160 -1.9828 -1.1496  1.5025
 5105TIP3    H236731   2.933   2.703  17.076  1.5199 -2.0153 -1.0835
 5106TIP3   OH236732   3.630   5.292  15.855 -0.1279 -0.2128 -0.1602
 5106TIP3    H136733   3.685   5.248  15.920  0.2895 -0.7476 -0.8676
 5106TIP3    H236734   3.591   5.366  15.903 -1.2473 -1.6098  1.1698
 5107TIP3   OH236735   1.706   0.714  11.865 -0.0342  0.0583  0.4160
 5107TIP3    H136736   1.714   0.750  11.953  0.5175  0.1846  0.3199
 5107TIP3    H236737   1.622   0.669  11.865 -0.5964  1.0679  0.6427
 5108TIP3   OH236738   4.672   0.392   2.041  0.1793 -0.1243 -0.0782
 5108TIP3    H136739   4.721   0.384   1.959 -0.3730  0.2929 -0.4577
 5108TIP3    H236740   4.660   0.301   2.071  0.9483 -0.2430 -0.1145
 5109TIP3   OH236741   2.982   5.975  13.371 -0.2034 -0.1227  0.3548
 5109TIP3    H136742   2.928   5.910  13.326  0.5026  0.0338 -0.7529
 5109TIP3    H236743   3.065   5.931  13.386  0.6323  0.7731 -1.2818
 5110TIP3   OH236744   1.676   6.536  12.631  0.5319  0.2322 -0.4128
 5110TIP3    H136745   1.648   6.588  12.707  0.9691  1.1551 -0.8750
 5110TIP3    H236746   1.604   6.545  12.569 -0.1973 -1.1875  0.1766
 5111TIP3   OH236747   3.391   1.303   5.643 -0.1122 -0.3764  0.0047
 5111TIP3    H136748   3.349   1.262   5.568 -0.4678 -1.2956  0.6912
 5111TIP3    H236749   3.448   1.235   5.680  0.3197  0.1658  0.3689
 5112TIP3   OH236750   0.586   1.373   3.418  0.0507 -0.3813  0.1544
 5112TIP3    H136751   0.513   1.328   3.375  1.3295 -0.8287 -1.7068
 5112TIP3    H236752   0.604   1.448   3.362  0.3048  0.3806  1.2275
 5113TIP3   OH236753   5.643   3.415   2.972 -0.2301  0.0735 -0.3373
 5113TIP3    H136754   5.567   3.458   2.934 -0.0498  2.4736  1.7375
 5113TIP3    H236755   5.718   3.467   2.942  0.3716 -0.8014 -0.4109
 5114TIP3   OH236756   5.757   1.837  15.212  0.4066  0.0520 -0.2506
 5114TIP3    H136757   5.785   1.757  15.168  0.0561 -0.2753  0.1272
 5114TIP3    H236758   5.675   1.861  15.169  0.4914  0.1899 -0.3373
 5115TIP3   OH236759   6.530   5.544   0.801 -0.3642 -0.8850 -0.6523
 5115TIP3    H136760   6.564   5.585   0.722  2.0362 -1.1356  0.1773
 5115TIP3    H236761   6.592   5.475   0.822 -0.3347 -0.1822  1.9721
 5116TIP3   OH236762   4.856   1.850  15.117  0.6248  0.3364  0.1108
 5116TIP3    H136763   4.821   1.877  15.202 -0.4213 -1.0949  0.1923
 5116TIP3    H236764   4.849   1.927  15.062 -0.4688  0.7711  0.8172
 5117TIP3   OH236765   1.346   2.136  15.756 -0.0965  0.3821 -0.1168
 5117TIP3    H136766   1.417   2.139  15.821 -0.0722  0.9130 -0.1668
 5117TIP3    H236767   1.369   2.061  15.700 -0.5211 -0.5534  0.9358
 5118TIP3   OH236768   4.221   0.649   2.131  0.4118  0.3743 -0.3767
 5118TIP3    H136769   4.154   0.642   2.199  2.3556  0.8220  1.7196
 5118TIP3    H236770   4.187   0.598   2.057 -2.3207  0.8507  0.4737
 5119TIP3   OH236771   0.979   5.489   4.860  0.4193  0.6331 -0.0125
 5119TIP3    H136772   0.902   5.501   4.804  0.6991 -0.0073 -0.5564
 5119TIP3    H236773   0.963   5.545   4.936 -0.4822  0.6747 -0.2223
 5120TIP3   OH236774   3.450   4.181   1.562  0.2106  0.5220  0.5598
 5120TIP3    H136775   3.467   4.272   1.535 -0.2964  0.0513 -1.5526
 5120TIP3    H236776   3.537   4.146   1.582  0.6070  1.0320 -0.1812
 5121TIP3   OH236777   6.245   4.179   3.565 -0.2457  0.3294 -0.1469
 5121TIP3    H136778   6.237   4.186   3.660  2.6126 -0.8023  0.2848
 5121TIP3    H236779   6.314   4.240   3.542 -0.6261  0.2967 -1.4709
 5122TIP3   OH236780   1.230   0.085   5.250  0.4744  0.2183  0.1617
 5122TIP3    H136781   1.236   0.093   5.155  0.7033  0.5188  0.2024
 5122TIP3    H236782   1.146   0.041   5.265  0.2209  0.5944 -0.1556
 5123TIP3   OH236783   6.407   5.042  14.427  0.1226 -0.1668  0.2104
 5123TIP3    H136784   6.502   5.034  14.433  0.0836 -2.3287 -1.1516
 5123TIP3    H236785   6.379   4.965  14.378 -2.2520  0.9309 -0.3062
 5124TIP3   OH236786   4.680   5.675   1.001 -0.6622  0.4159  0.1492
 5124TIP3    H136787   4.744   5.605   1.010 -1.1363 -0.3706 -2.0607
 5124TIP3    H236788   4.733   5.755   0.993  0.0913 -0.2097 -1.5180
 5125TIP3   OH236789   2.587   3.849   3.779 -0.3492  0.0488  0.1885
 5125TIP3    H136790   2.538   3.883   3.854 -1.9967 -1.4745 -0.1439
 5125TIP3    H236791   2.520   3.822   3.717  0.9752  2.0247 -2.2425
 5126TIP3   OH236792   2.482   4.422   5.220  0.7080 -0.3375 -0.2041
 5126TIP3    H136793   2.460   4.367   5.295 -1.2386 -0.3208 -0.7141
 5126TIP3    H236794   2.414   4.489   5.218  2.5564  1.6413 -0.0953
 5127TIP3   OH236795   0.081   0.590   4.737 -0.0033 -0.0073  0.1742
 5127TIP3    H136796  -0.013   0.604   4.755  0.0725 -0.6908  1.1831
 5127TIP3    H236797   0.082   0.530   4.663 -0.4214 -2.0030  1.7104
 5128TIP3   OH236798   1.920   5.948   3.447  0.3229 -0.4349 -0.3566
 5128TIP3    H136799   1.943   5.983   3.361  0.3726  0.6087  0.0575
 5128TIP3    H236800   1.917   5.853   3.435 -0.4443 -0.2725 -1.6977
 5129TIP3   OH236801   0.128   5.707  12.534 -0.3154 -0.0961 -1.1634
 5129TIP3    H136802   0.148   5.793  12.499 -2.5855  0.7394 -0.5899
 5129TIP3    H236803   0.033   5.707  12.546 -0.4297 -2.7805 -1.3874
 5130TIP3   OH236804   2.062   1.145   3.230  0.0254  0.2813 -0.4931
 5130TIP3    H136805   2.101   1.223   3.192  1.2907 -0.4393 -0.7187
 5130TIP3    H236806   2.087   1.074   3.170 -0.1826 -0.4679  0.2884
 5131TIP3   OH236807   4.201   2.827   2.802  0.4058  0.4324 -0.3488
 5131TIP3    H136808   4.238   2.776   2.730  0.9260  0.7726 -0.3194
 5131TIP3    H236809   4.108   2.833   2.781  0.6800  1.1820 -1.3853
 5132TIP3   OH236810   4.651   1.612  14.326 -0.7423  0.0821  0.0962
 5132TIP3    H136811   4.667   1.523  14.359 -1.0941  0.0554  0.1963
 5132TIP3    H236812   4.631   1.663  14.405  1.8471  0.8124  0.3737
 5133TIP3   OH236813   4.539   4.168   3.919  0.0838 -0.1881 -0.1158
 5133TIP3    H136814   4.475   4.227   3.959 -0.2853 -1.8737  1.9345
 5133TIP3    H236815   4.488   4.093   3.889  0.7662 -0.2989 -1.0704
 5134TIP3   OH236816   0.906   2.630  12.591 -0.2153 -0.6796 -0.0169
 5134TIP3    H136817   0.864   2.696  12.537 -2.7267 -1.6363  0.6220
 5134TIP3    H236818   0.924   2.674  12.674 -2.2846 -0.8287  0.5660
 5135TIP3   OH236819   1.060   3.339   3.299  0.4176 -0.0033  0.0124
 5135TIP3    H136820   1.073   3.413   3.358  0.5042 -0.3117  0.3905
 5135TIP3    H236821   1.136   3.341   3.240  0.8859 -0.3084  0.5886
 5136TIP3   OH236822   5.122   3.599   0.168 -0.2029 -0.0268 -0.1844
 5136TIP3    H136823   5.062   3.663   0.130  0.6237  1.2311  0.5505
 5136TIP3    H236824   5.196   3.597   0.108 -2.0227 -3.7223 -2.7071
 5137TIP3   OH236825   5.239   3.823  11.665 -0.2257  0.3754 -0.3068
 5137TIP3    H136826   5.334   3.829  11.651  0.2302 -0.8036  1.8594
 5137TIP3    H236827   5.211   3.756  11.603  1.2172 -2.5816  1.9693
 5138TIP3   OH236828   0.176   2.281  12.450  0.0143  0.0488 -0.0851
 5138TIP3    H136829   0.152   2.199  12.407  0.6890 -0.8185  1.1293
 5138TIP3    H236830   0.106   2.341  12.427 -1.0434 -1.1608 -0.1489
 5139TIP3   OH236831   5.704   4.567   0.755  0.2542 -0.0877 -0.1085
 5139TIP3    H136832   5.778   4.531   0.707 -1.7566 -1.7914 -2.1680
 5139TIP3    H236833   5.637   4.582   0.688 -1.9288 -0.4758  1.8425
 5140TIP3   OH236834   6.041   5.230  10.560 -0.4851 -0.0196  0.3328
 5140TIP3    H136835   6.068   5.322  10.557  0.6156 -0.3374 -1.2172
 5140TIP3    H236836   6.022   5.213  10.652 -0.5241  1.7066  0.6722
 5141TIP3   OH236837   6.175   5.697   3.493  0.0068 -0.6947  0.1958
 5141TIP3    H136838   6.113   5.628   3.518 -0.1073 -1.0364 -0.9783
 5141TIP3    H236839   6.232   5.706   3.570 -0.5772 -1.4177  0.7332
 5142TIP3   OH236840   1.407   1.842  16.646  0.2091  0.2200  0.1513
 5142TIP3    H136841   1.333   1.801  16.690 -0.2337 -0.4043 -1.1241
 5142TIP3    H236842   1.378   1.856  16.556  1.4652  0.4101 -0.2533
 5143TIP3   OH236843   2.850   4.618  11.967 -0.2040  0.2257  0.1166
 5143TIP3    H136844   2.899   4.700  11.954 -0.2174  0.2700  0.3467
 5143TIP3    H236845   2.917   4.550  11.963  0.0855  0.3812  1.7973
 5144TIP3   OH236846   4.159   0.662  12.041  0.5409 -0.0250  0.0564
 5144TIP3    H136847   4.228   0.605  12.007  0.7419 -0.7668  1.5873
 5144TIP3    H236848   4.196   0.750  12.038  1.7579 -0.4556  1.2388
 5145TIP3   OH236849   5.683   2.353  13.072  0.0837  0.3854  0.4423
 5145TIP3    H136850   5.605   2.386  13.117 -0.3033 -1.8782  1.5587
 5145TIP3    H236851   5.694   2.412  12.998 -1.4152  2.0627  1.4593
 5146TIP3   OH236852   5.076   4.610  14.795  0.0441 -0.6749  0.1618
 5146TIP3    H136853   5.068   4.554  14.718 -1.5325 -1.1190  0.6134
 5146TIP3    H236854   5.120   4.689  14.764  3.0117 -2.3563 -0.3664
 5147TIP3   OH236855   0.912   5.781   5.539  0.6154 -0.4816  0.0460
 5147TIP3    H136856   1.002   5.749   5.540 -0.0273 -2.4365  1.2752
 5147TIP3    H236857   0.858   5.702   5.528 -0.9499  0.7179 -1.4876
 5148TIP3   OH236858   1.788   1.624  16.076  0.0361  0.1271 -0.9603
 5148TIP3    H136859   1.755   1.684  16.009  0.6921  0.9286 -0.5685
 5148TIP3    H236860   1.792   1.676  16.156  1.0775 -0.3045 -0.7204
 5149TIP3   OH236861   6.021   2.465  11.139  0.1817 -0.2783 -0.0708
 5149TIP3    H136862   6.059   2.486  11.224 -0.4956 -0.4644  0.2870
 5149TIP3    H236863   6.059   2.529  11.079 -1.4530  1.7087  0.8866
 5150TIP3   OH236864   6.232   5.587   2.057  0.0154 -0.2641 -0.5192
 5150TIP3    H136865   6.204   5.496   2.066 -1.2860 -0.0320 -1.9448
 5150TIP3    H236866   6.227   5.622   2.146  0.1203 -1.4509 -0.0193
 5151TIP3   OH236867   1.625   2.726  12.791  0.2107  0.0907 -0.2825
 5151TIP3    H136868   1.534   2.697  12.780  0.2449 -0.0156 -0.2807
 5151TIP3    H236869   1.630   2.754  12.882  0.0440  0.5642 -0.4169
 5152TIP3   OH236870   4.019   6.050   5.092 -0.2277 -0.1515  0.3234
 5152TIP3    H136871   4.111   6.039   5.117  0.4890  1.2283 -1.5177
 5152TIP3    H236872   3.975   6.074   5.174  1.5735  1.8586  0.7923
 5153TIP3   OH236873   5.741   3.935  16.988 -0.0662  0.5038 -0.2037
 5153TIP3    H136874   5.825   3.946  16.944  0.4747 -1.3737  0.2267
 5153TIP3    H236875   5.678   3.980  16.933  1.1433  1.5495 -0.7865
 5154TIP3   OH236876   1.649   1.292   6.419  0.4896 -0.6272 -0.2959
 5154TIP3    H136877   1.733   1.282   6.376  1.5082 -0.7944  1.6482
 5154TIP3    H236878   1.668   1.341   6.499 -1.1593 -1.1390  0.4596
 5155TIP3   OH236879   6.384   1.301   1.523  0.7033 -0.1612  0.3571
 5155TIP3    H136880   6.411   1.321   1.433  1.3176  0.4462  0.6624
 5155TIP3    H236881   6.312   1.239   1.513  0.2350  0.4956 -0.5793
 5156TIP3   OH236882   6.120   1.355  13.120 -0.5853  0.2179 -0.5787
 5156TIP3    H136883   6.030   1.354  13.151 -0.0765  1.8160  1.2115
 5156TIP3    H236884   6.142   1.263  13.106 -3.1351 -0.0980 -3.3272
 5157TIP3   OH236885   1.507   0.981  15.751  0.2956  0.2060  0.0281
 5157TIP3    H136886   1.422   0.982  15.707  0.9231 -0.2223 -1.2303
 5157TIP3    H236887   1.551   1.061  15.721  0.0726  0.8039  1.2412
 5158TIP3   OH236888   4.083   5.644  12.902  0.1871 -0.0748  0.4846
 5158TIP3    H136889   4.051   5.640  12.993  1.4946 -0.6570  0.9407
 5158TIP3    H236890   4.004   5.633  12.849 -0.2146 -3.9248  1.5579
 5159TIP3   OH236891   6.248   4.421   0.380 -0.2720 -0.0891 -0.1665
 5159TIP3    H136892   6.241   4.475   0.302 -0.3050  0.3317  0.1251
 5159TIP3    H236893   6.240   4.331   0.348 -1.3941  0.1191 -0.5161
 5160TIP3   OH236894   6.137   4.422  13.870 -0.2566 -0.2259  0.2999
 5160TIP3    H136895   6.044   4.445  13.860 -0.1788 -0.1118 -0.1555
 5160TIP3    H236896   6.151   4.422  13.965 -1.1303 -1.8685  0.4646
 5161TIP3   OH236897   2.311   0.294   6.503 -0.0655  0.0665  0.3118
 5161TIP3    H136898   2.244   0.271   6.568  0.4291  0.7243  1.0697
 5161TIP3    H236899   2.299   0.230   6.433 -1.7220  0.3883  0.2679
 5162TIP3   OH236900   0.444   6.106   3.972 -0.4198 -0.4339 -0.1464
 5162TIP3    H136901   0.514   6.064   3.922  0.3264 -0.4471  0.8726
 5162TIP3    H236902   0.481   6.190   3.999 -0.5977 -0.6403  0.8006
 5163TIP3   OH236903   0.038   4.502   1.334 -0.1611  0.0142  0.2423
 5163TIP3    H136904   0.004   4.569   1.274 -0.5796  0.6357  1.1418
 5163TIP3    H236905   0.131   4.524   1.345 -0.3596  0.6426  0.7523
 5164TIP3   OH236906   5.117   3.982   4.010  0.2323 -0.1746 -0.1058
 5164TIP3    H136907   5.062   3.954   4.084 -1.0923 -0.0426 -0.9970
 5164TIP3    H236908   5.094   3.922   3.940  2.1305 -0.8549 -0.1826
 5165TIP3   OH236909   1.358   6.214  12.757 -0.0830  0.3574 -0.6876
 5165TIP3    H136910   1.427   6.257  12.809  0.1046  1.7294 -2.0185
 5165TIP3    H236911   1.404   6.177  12.682 -0.5041 -0.6653 -0.4528
 5166TIP3   OH236912   1.458   2.046  15.307 -0.4978 -0.0703 -0.1900
 5166TIP3    H136913   1.419   2.012  15.226  0.2579 -1.9413  0.1817
 5166TIP3    H236914   1.551   2.027  15.299 -0.1439  1.2555  0.4248
 5167TIP3   OH236915   5.897   1.505   5.957 -0.0517  0.0419  0.2865
 5167TIP3    H136916   5.883   1.560   6.034  0.3622 -0.5547  0.7849
 5167TIP3    H236917   5.979   1.537   5.919 -0.4895  0.6423 -0.1800
 5168TIP3   OH236918   2.026   2.402   5.482 -0.0435  0.2089 -0.0958
 5168TIP3    H136919   2.024   2.491   5.518  0.5056 -1.2429  4.0424
 5168TIP3    H236920   2.098   2.403   5.419  2.2299  1.9566  2.3519
 5169TIP3   OH236921   6.113   0.614   0.543  0.5420  0.4978  0.2249
 5169TIP3    H136922   6.111   0.710   0.535  1.1378  0.4060 -1.3703
 5169TIP3    H236923   6.024   0.590   0.567  0.5415  1.4876  1.3412
 5170TIP3   OH236924   5.757   6.064  12.171 -0.3581 -0.1142 -0.7373
 5170TIP3    H136925   5.819   6.045  12.241 -0.9739  0.0104 -0.1509
 5170TIP3    H236926   5.745   6.159  12.174  0.6923  0.0943 -1.9446
 5171TIP3   OH236927   2.539   0.624  12.324 -0.7803  0.7298  0.1931
 5171TIP3    H136928   2.632   0.643  12.337 -0.9141  0.4716  1.7262
 5171TIP3    H236929   2.538   0.534  12.290 -0.5273 -0.6046  3.3703
 5172TIP3   OH236930   1.305   3.286   1.002 -0.3134  0.0566 -0.3576
 5172TIP3    H136931   1.326   3.261   1.092 -1.4842  0.3921  0.0222
 5172TIP3    H236932   1.368   3.237   0.949 -0.1040 -0.7435  0.5901
 5173TIP3   OH236933   2.018   2.295  13.858  0.2014  0.0879  0.0071
 5173TIP3    H136934   1.974   2.360  13.803  2.3062  0.1914 -1.6998
 5173TIP3    H236935   1.970   2.213  13.842  0.0536  0.3738 -1.0777
 5174TIP3   OH236936   4.801   2.768   4.337  0.2955  0.5121 -0.5287
 5174TIP3    H136937   4.710   2.790   4.318  0.6741  0.5259 -2.5149
 5174TIP3    H236938   4.805   2.673   4.328  0.1450  0.3017  1.2563
 5175TIP3   OH236939   4.398   1.050  10.918  0.0260 -0.4519 -0.2598
 5175TIP3    H136940   4.305   1.026  10.912 -0.2377  0.0946  1.0789
 5175TIP3    H236941   4.417   1.043  11.012  1.7883 -2.1305 -0.6863
 5176TIP3   OH236942   0.259   4.587   2.274  0.5237  0.4706 -0.1603
 5176TIP3    H136943   0.179   4.634   2.248  0.4769 -0.1825 -1.2420
 5176TIP3    H236944   0.328   4.652   2.264  0.0774  1.2697  1.4910
 5177TIP3   OH236945   1.224   4.422  14.992 -0.3320 -0.5970  0.3067
 5177TIP3    H136946   1.154   4.451  14.935 -0.5628 -0.3928  0.6907
 5177TIP3    H236947   1.185   4.352  15.046  0.0186 -1.1308 -0.1176
 5178TIP3   OH236948   0.942   4.274   3.765  0.1590  0.4899 -0.5062
 5178TIP3    H136949   0.947   4.236   3.678  0.7191 -0.9884  0.1323
 5178TIP3    H236950   1.025   4.249   3.807 -0.3696  0.5919  0.6552
 5179TIP3   OH236951   4.663   4.214  16.463 -0.1772  0.2729  0.4505
 5179TIP3    H136952   4.709   4.282  16.513  0.3272  1.7675 -1.9001
 5179TIP3    H236953   4.595   4.262  16.415 -0.8635 -1.1513 -0.0462
 5180TIP3   OH236954   3.964   4.121  14.553 -0.1841 -0.2734 -0.4639
 5180TIP3    H136955   3.954   4.040  14.603  1.6533 -1.0522 -1.2708
 5180TIP3    H236956   3.954   4.094  14.462  2.8046 -0.1337 -0.9298
 5181TIP3   OH236957   1.237   4.802   5.183 -0.4002  0.0733 -0.2283
 5181TIP3    H136958   1.241   4.713   5.146  1.8483  0.6943 -1.6726
 5181TIP3    H236959   1.204   4.856   5.111  0.2372  0.7154 -0.0413
 5182TIP3   OH236960   6.395   5.250   3.605  0.4296  0.1541  0.1765
 5182TIP3    H136961   6.418   5.311   3.536  1.2176  0.3377  0.5890
 5182TIP3    H236962   6.476   5.202   3.623 -0.1500 -0.9745 -0.0935
 5183TIP3   OH236963   0.988   2.823  15.205  0.3101 -0.3288  0.0341
 5183TIP3    H136964   1.048   2.896  15.186  0.7436 -0.5749  0.4528
 5183TIP3    H236965   1.019   2.752  15.150  0.1741 -0.3432 -0.0242
 5184TIP3   OH236966   5.524   1.593  15.656 -0.0777  0.4560  0.8526
 5184TIP3    H136967   5.525   1.548  15.740  2.2370 -0.4129  0.4502
 5184TIP3    H236968   5.615   1.591  15.627 -0.6054  1.7972 -1.1291
 5185TIP3   OH236969   3.536   2.231   3.988  0.6124 -0.3597  0.4107
 5185TIP3    H136970   3.506   2.235   4.079  2.1808 -2.6754  1.0994
 5185TIP3    H236971   3.610   2.292   3.985  0.9792 -0.7678  0.8920
 5186TIP3   OH236972   3.372   0.018   5.033 -0.4094  0.2659  0.0517
 5186TIP3    H136973   3.429  -0.009   5.105 -0.2556 -0.5008 -0.3483
 5186TIP3    H236974   3.329  -0.062   5.005  0.9491  0.1511 -1.9440
 5187TIP3   OH236975   5.307   6.144   4.038  0.0092 -0.0935  0.1630
 5187TIP3    H136976   5.276   6.217   4.092  2.6402  1.0071  0.3523
 5187TIP3    H236977   5.297   6.175   3.948 -0.9714 -0.4397  0.1457
 5188TIP3   OH236978   4.854   0.150   1.513 -0.6152 -0.6552 -0.4037
 5188TIP3    H136979   4.780   0.094   1.538 -0.2066 -1.1474 -0.2901
 5188TIP3    H236980   4.921   0.089   1.484 -0.0296 -0.2464  0.0771
 5189TIP3   OH236981   6.539   0.580  15.946 -0.4810  0.1666 -0.6122
 5189TIP3    H136982   6.572   0.546  15.863  2.5213  1.5140 -0.1105
 5189TIP3    H236983   6.524   0.673  15.929 -1.0232  0.2124  0.0661
 5190TIP3   OH236984   0.961   0.525   6.548 -0.4925 -0.7078  0.3992
 5190TIP3    H136985   0.916   0.599   6.508 -1.1179 -1.6575 -0.7043
 5190TIP3    H236986   1.028   0.500   6.484  0.5439 -0.3510  1.3046
 5191TIP3   OH236987   4.096   1.355   3.779  0.4357 -0.3692 -0.4823
 5191TIP3    H136988   4.146   1.276   3.798  0.1596 -0.1186  1.4844
 5191TIP3    H236989   4.030   1.328   3.715  1.2335 -1.3665 -0.9060
 5192TIP3   OH236990   5.421   0.903  12.152 -0.9805  0.0835 -0.4339
 5192TIP3    H136991   5.331   0.882  12.178 -1.4118  1.4818 -0.7230
 5192TIP3    H236992   5.454   0.960  12.221 -0.3267 -0.3877 -0.3541
 5193TIP3   OH236993   3.220   4.558   5.459 -0.0953  0.8131 -0.0864
 5193TIP3    H136994   3.275   4.635   5.471  1.7760 -0.2927 -1.0067
 5193TIP3    H236995   3.213   4.518   5.546  1.5975  0.3522 -0.1242
 5194TIP3   OH236996   3.566   6.329   0.925 -0.1805  0.6915  0.0806
 5194TIP3    H136997   3.568   6.262   0.994 -1.2741 -1.4282 -1.7739
 5194TIP3    H236998   3.657   6.339   0.899 -0.1005 -1.2753 -0.5874
 5195TIP3   OH236999   0.473   0.392  11.891 -0.4454  0.3390  0.5597
 5195TIP3    H137000   0.445   0.477  11.860 -1.7804 -0.6369 -1.0892
 5195TIP3    H237001   0.435   0.385  11.979 -0.0050  1.5584  0.8615
 5196TIP3   OH237002   4.887   1.723   3.534 -0.0045 -0.7763  0.5262
 5196TIP3    H137003   4.943   1.791   3.571 -1.2495  0.1972  0.6828
 5196TIP3    H237004   4.814   1.717   3.595 -1.1665 -0.4609 -0.7980
 5197TIP3   OH237005   6.563   6.636  16.262  0.5909 -0.1687 -0.4939
 5197TIP3    H137006   6.635   6.696  16.278  1.1106  0.0558 -3.1123
 5197TIP3    H237007   6.605   6.557  16.227 -0.3017 -0.8491 -0.0797
 5198TIP3   OH237008   2.459   6.648   4.601 -0.1231 -0.4911  0.4448
 5198TIP3    H137009   2.549   6.616   4.596 -0.1854 -1.4066  3.2034
 5198TIP3    H237010   2.465   6.742   4.586  0.3910 -1.0559 -5.4054
 5199TIP3   OH237011   2.468   1.611   0.998  0.0788 -0.3011  0.8413
 5199TIP3    H137012   2.545   1.554   0.993  0.3356  0.0141  1.1369
 5199TIP3    H237013   2.427   1.604   0.912  2.1118  1.8594 -0.4128
 5200TIP3   OH237014   5.619   1.941   1.995 -0.0360  0.2585 -0.1045
 5200TIP3    H137015   5.647   1.899   1.913 -0.4783 -1.2180  0.4808
 5200TIP3    H237016   5.613   1.869   2.058 -2.1323  0.9956  0.5952
 5201TIP3   OH237017   4.826   5.693   4.000  0.7694 -0.4654 -0.6584
 5201TIP3    H137018   4.738   5.708   3.966  0.3328  0.1411  0.6627
 5201TIP3    H237019   4.884   5.742   3.941  0.1870 -0.5483 -1.3030
 5202TIP3   OH237020   1.958   6.758  15.605  0.1415  0.0548  0.3578
 5202TIP3    H137021   2.013   6.679  15.603 -0.8341 -0.7614  2.4662
 5202TIP3    H237022   2.020   6.830  15.615  0.9088 -0.7427  1.6232
 5203TIP3   OH237023   1.840   5.266  16.780 -0.0147  0.0559 -0.2864
 5203TIP3    H137024   1.757   5.280  16.735 -0.7414  0.5301  1.1173
 5203TIP3    H237025   1.822   5.197  16.844  0.0789  1.5318  1.4060
 5204TIP3   OH237026   2.074   3.137   0.360  0.0099  0.3592  0.2021
 5204TIP3    H137027   2.000   3.145   0.300  0.1798  3.7932  0.2770
 5204TIP3    H237028   2.034   3.141   0.447  0.1169 -0.3843  0.2943
 5205TIP3   OH237029   5.640   0.561   0.747  0.6525  0.0628 -0.1197
 5205TIP3    H137030   5.617   0.591   0.835 -1.4430  0.4845 -0.7536
 5205TIP3    H237031   5.642   0.466   0.754  0.9604  0.1081  0.4840
 5206TIP3   OH237032   2.045   1.073   0.884 -0.6192 -0.0616  0.0982
 5206TIP3    H137033   2.039   1.121   0.801  1.6921 -0.5859 -0.4589
 5206TIP3    H237034   2.077   1.138   0.947  0.9792 -0.4240 -0.2871
 5207TIP3   OH237035   0.307   5.381   6.260 -0.3273 -0.5698 -0.0983
 5207TIP3    H137036   0.223   5.423   6.276 -0.7938 -1.6862  0.4407
 5207TIP3    H237037   0.315   5.315   6.329  0.5778 -1.0880 -0.6761
 5208TIP3   OH237038   0.376   6.283  15.272  0.2074  0.6277 -0.4513
 5208TIP3    H137039   0.385   6.287  15.367  1.8817 -1.9762 -0.4212
 5208TIP3    H237040   0.303   6.222  15.257  0.8034 -0.0117 -0.8107
 5209TIP3   OH237041   6.083   1.111  15.271  0.0940 -0.2683  0.1213
 5209TIP3    H137042   6.099   1.026  15.311 -1.2155  0.6015  2.7375
 5209TIP3    H237043   6.065   1.169  15.345  3.8225  3.0699 -1.2162
 5210TIP3   OH237044   5.393   6.306  16.424 -0.0251 -0.6657 -0.3265
 5210TIP3    H137045   5.453   6.358  16.370  0.0561 -0.0006  0.3841
 5210TIP3    H237046   5.346   6.251  16.361  1.0582 -0.9310 -0.9369
 5211TIP3   OH237047   4.730   0.415  12.366 -0.1029  0.5515 -0.4917
 5211TIP3    H137048   4.811   0.383  12.406 -0.2015  0.2084 -0.5661
 5211TIP3    H237049   4.678   0.447  12.440  0.3605  1.3701 -0.5047
 5212TIP3   OH237050   5.841   4.515   2.882 -0.3956  0.3279  0.6347
 5212TIP3    H137051   5.806   4.586   2.828  0.1937  1.4457  1.6573
 5212TIP3    H237052   5.788   4.519   2.962  0.1580  0.1363  1.0148
 5213TIP3   OH237053   5.481   3.577  14.257 -0.3602 -0.1530  0.8435
 5213TIP3    H137054   5.503   3.512  14.324 -0.4096  0.5855  1.6040
 5213TIP3    H237055   5.559   3.581  14.202  0.8809  1.2564  2.5606
 5214TIP3   OH237056   1.128   4.339   4.155 -0.2439  0.0917 -0.0250
 5214TIP3    H137057   1.123   4.339   4.250 -2.4376 -0.7650 -0.0829
 5214TIP3    H237058   1.037   4.342   4.126  0.3394 -0.4002 -2.0893
 5215TIP3   OH237059   2.407   0.931   0.246 -0.3666  0.4953  0.4112
 5215TIP3    H137060   2.466   0.927   0.171  1.5388  0.5066  1.8139
 5215TIP3    H237061   2.319   0.937   0.208  0.5336  0.7397 -1.7830
 5216TIP3   OH237062   4.898   5.446   2.648  0.4565  0.1083  0.8506
 5216TIP3    H137063   4.977   5.392   2.655 -0.2384 -1.1215 -0.2524
 5216TIP3    H237064   4.865   5.452   2.737  0.3256 -1.6945  0.9608
 5217TIP3   OH237065   5.473   6.491  12.832  0.3150  0.5601  0.3366
 5217TIP3    H137066   5.474   6.400  12.862 -0.8622  0.3266 -0.3103
 5217TIP3    H237067   5.429   6.489  12.747  0.6022  1.6861  0.1385
 5218TIP3   OH237068   2.855   5.523   1.564 -0.1315 -0.2881  0.1147
 5218TIP3    H137069   2.845   5.540   1.657 -0.4576  1.4523 -0.2040
 5218TIP3    H237070   2.831   5.605   1.521  2.6919 -0.0877 -1.3756
 5219TIP3   OH237071   3.109   2.688  14.005 -0.3574 -0.0662 -0.7187
 5219TIP3    H137072   3.199   2.719  13.992 -0.0382 -0.7082 -0.1114
 5219TIP3    H237073   3.079   2.734  14.083 -0.0414 -0.9142 -0.0805
 5220TIP3   OH237074   1.739   4.218   4.046  0.2189  0.3806 -0.0053
 5220TIP3    H137075   1.678   4.171   4.103  2.5390 -0.1390  2.2485
 5220TIP3    H237076   1.795   4.149   4.009  0.4783  0.9654 -0.7261
 5221TIP3   OH237077   6.023   1.197   5.227 -0.0572 -0.4661 -0.0776
 5221TIP3    H137078   6.064   1.273   5.185  2.0383 -1.0997  0.6862
 5221TIP3    H237079   5.994   1.229   5.312  0.0861 -0.3372 -0.0764
 5222TIP3   OH237080   5.562   4.902   4.527  0.0991  0.2995 -0.1903
 5222TIP3    H137081   5.543   4.834   4.592  1.6042 -1.3024 -1.3334
 5222TIP3    H237082   5.549   4.858   4.443  0.8660  1.5058 -0.9548
 5223TIP3   OH237083   5.306   2.974   4.469 -0.1178  0.2346 -0.1525
 5223TIP3    H137084   5.278   2.952   4.558 -2.7183  1.7747 -0.4919
 5223TIP3    H237085   5.319   2.889   4.427  0.1533 -0.5282  1.4074
 5224TIP3   OH237086   2.328   1.880  14.005 -0.1731  0.2079  0.1764
 5224TIP3    H137087   2.345   1.967  13.970 -0.7232 -0.0193 -0.6647
 5224TIP3    H237088   2.236   1.882  14.031  0.0365  0.1409  0.9685
 5225TIP3   OH237089   1.203   0.818   0.159  0.0336  0.0423  0.2471
 5225TIP3    H137090   1.171   0.866   0.235  0.8833  1.1687 -0.0739
 5225TIP3    H237091   1.166   0.866   0.084 -0.4778 -0.8215 -0.0639
 5226TIP3   OH237092   4.317   0.953  16.467  0.4457 -0.5633 -0.3588
 5226TIP3    H137093   4.356   0.874  16.504 -2.4447 -0.9929  2.1548
 5226TIP3    H237094   4.290   1.004  16.543 -0.3388  1.5103 -1.9450
 5227TIP3   OH237095   2.735   3.119  14.577 -0.5466 -0.0809  0.2334
 5227TIP3    H137096   2.802   3.160  14.631  1.2461 -0.3361 -1.6550
 5227TIP3    H237097   2.700   3.049  14.632  1.5287 -0.6525  0.9437
 5228TIP3   OH237098   4.315   3.105  12.403  0.0941  0.5068  0.0805
 5228TIP3    H137099   4.276   3.017  12.409  0.8918 -0.0647 -2.1691
 5228TIP3    H237100   4.409   3.090  12.417  0.2551  0.9715 -0.5022
 5229TIP3   OH237101   5.014   6.228  17.027 -0.4598  0.1515  0.3854
 5229TIP3    H137102   5.081   6.275  16.977 -0.8306 -0.2373 -0.4923
 5229TIP3    H237103   5.030   6.255  17.118  1.6094 -0.7924  0.3718
 5230TIP3   OH237104   6.079   5.010   4.978  0.5565  0.2032 -0.1330
 5230TIP3    H137105   6.043   5.093   5.008  0.4514  0.9961 -2.3102
 5230TIP3    H237106   6.167   5.030   4.947  0.2058 -0.2589 -1.5400
 5231TIP3   OH237107   0.802   0.068   2.716  0.3293 -0.3911  0.0011
 5231TIP3    H137108   0.856   0.024   2.650  0.0270  0.2139 -0.6628
 5231TIP3    H237109   0.805   0.161   2.692 -3.0204 -0.5485 -1.6095
 5232TIP3   OH237110   1.664   1.398  14.677 -0.2210  0.7030 -0.3659
 5232TIP3    H137111   1.663   1.457  14.752  1.8507 -0.0878  0.3676
 5232TIP3    H237112   1.611   1.323  14.705  0.7318  0.3053  0.4299
 5233TIP3   OH237113   3.302   1.975   4.413 -0.1377 -0.0480 -0.3005
 5233TIP3    H137114   3.275   2.012   4.497  1.2970  1.3936 -0.4232
 5233TIP3    H237115   3.387   1.935   4.431 -0.6103 -1.2735 -0.7055
 5234TIP3   OH237116   3.428   1.873   4.039  0.3502 -0.0279 -0.5650
 5234TIP3    H137117   3.522   1.885   4.030  0.2930 -0.2983 -1.7395
 5234TIP3    H237118   3.419   1.806   4.106  0.8895  1.5515  1.1615
 5235TIP3   OH237119   1.499   4.468  15.174  0.2900  0.0379  0.2805
 5235TIP3    H137120   1.536   4.401  15.116  0.6199 -1.1924  1.8469
 5235TIP3    H237121   1.565   4.537  15.177  0.2901  0.0982 -0.7516
 5236TIP3   OH237122   1.662   1.094   3.117  0.0919 -0.7993 -0.0938
 5236TIP3    H137123   1.681   1.187   3.102 -1.7009 -0.7138 -2.4922
 5236TIP3    H237124   1.712   1.071   3.195 -0.7244  2.6218  1.6320
 5237TIP3   OH237125   2.510   6.375  16.415  0.1434  0.1658  0.1022
 5237TIP3    H137126   2.440   6.331  16.366 -1.2913  0.6978  1.5831
 5237TIP3    H237127   2.543   6.308  16.474  0.8286 -0.0404 -0.4906
 5238TIP3   OH237128   6.545   2.802  14.101  0.4374 -0.2935 -0.2307
 5238TIP3    H137129   6.558   2.721  14.052  0.4254  0.5629 -1.6917
 5238TIP3    H237130   6.630   2.819  14.142  1.0182 -0.0509 -1.4913
 5239TIP3   OH237131   0.853   1.747   4.628 -0.4857  0.0202  0.0445
 5239TIP3    H137132   0.905   1.827   4.636 -0.9650  0.2590  0.9342
 5239TIP3    H237133   0.912   1.684   4.585  0.2735  0.5089  0.3470
 5240TIP3   OH237134   2.032   4.510  16.208 -0.2232 -0.0206 -0.8225
 5240TIP3    H137135   1.994   4.498  16.121 -0.8847 -1.6072 -0.3557
 5240TIP3    H237136   2.060   4.422  16.234  0.1335  0.4581  0.4875
 5241TIP3   OH237137   3.441   0.176  12.814 -0.5080 -0.1068 -0.2738
 5241TIP3    H137138   3.390   0.118  12.871  0.4023 -0.1445  0.5269
 5241TIP3    H237139   3.456   0.254  12.867  0.4514 -0.1868 -0.4170
 5242TIP3   OH237140   3.731   3.075   5.704  0.4490  0.3432 -0.3857
 5242TIP3    H137141   3.713   3.076   5.798 -1.0618  3.2471 -0.5848
 5242TIP3    H237142   3.826   3.088   5.697  0.6190 -0.2040  0.7370
 5243TIP3   OH237143   0.858   2.118  13.687 -0.1120 -0.4858  0.1789
 5243TIP3    H137144   0.888   2.114  13.596  0.7385 -0.1174  0.4378
 5243TIP3    H237145   0.919   2.178  13.730  0.4981 -1.9161  1.3882
 5244TIP3   OH237146   3.180   4.097   4.790 -0.3821 -0.1481  0.0744
 5244TIP3    H137147   3.193   4.140   4.705 -1.1907 -0.5474 -0.2634
 5244TIP3    H237148   3.184   4.004   4.770  1.1161 -0.2691  0.7622
 5245TIP3   OH237149   1.497   4.800  12.065 -0.0628 -0.1202  0.7860
 5245TIP3    H137150   1.500   4.706  12.046  0.1477 -0.1984  1.1857
 5245TIP3    H237151   1.403   4.819  12.073 -0.0835 -0.4885  1.5699
 5246TIP3   OH237152   2.105   3.128  16.629  0.3815  0.3332  0.3922
 5246TIP3    H137153   2.121   3.213  16.588 -0.2345  0.3716  0.2300
 5246TIP3    H237154   2.013   3.129  16.654  0.1234 -0.6191 -0.4229
 5247TIP3   OH237155   5.825   1.580   1.581 -0.0499  0.0231 -0.1346
 5247TIP3    H137156   5.869   1.650   1.630 -2.5502 -0.3074  2.8928
 5247TIP3    H237157   5.875   1.501   1.603  0.0099  0.1661  0.2482
 5248TIP3   OH237158   1.347   2.617  16.633  0.6086  0.3834 -0.1078
 5248TIP3    H137159   1.347   2.698  16.581  0.2998  0.2865 -0.2599
 5248TIP3    H237160   1.375   2.549  16.572  1.3689  0.4497  0.1496
 5249TIP3   OH237161   6.235   1.461   5.627  0.7290 -0.5065 -0.0884
 5249TIP3    H137162   6.212   1.381   5.579  1.6428 -0.9626  0.2118
 5249TIP3    H237163   6.242   1.434   5.718 -0.7302  0.3047  0.3004
 5250TIP3   OH237164   5.540   0.467   1.394  0.2839 -0.4091 -0.1360
 5250TIP3    H137165   5.462   0.501   1.438  0.9203  0.3906  0.4047
 5250TIP3    H237166   5.601   0.447   1.465  1.4321  1.1723 -0.6075
 5251TIP3   OH237167   0.796   3.430  12.680  0.6767  0.1927  0.3777
 5251TIP3    H137168   0.840   3.447  12.763  3.8884 -0.5642 -1.0554
 5251TIP3    H237169   0.803   3.513  12.633  2.6114 -0.5518 -0.7013
 5252TIP3   OH237170   5.742   5.238   4.239 -0.2457 -0.3417  0.2700
 5252TIP3    H137171   5.770   5.165   4.183  0.1624 -0.8389  1.0901
 5252TIP3    H237172   5.819   5.257   4.294 -0.4614  0.4812  0.3005
 5253TIP3   OH237173   0.248   1.558   0.926 -0.6366 -0.3587  0.4287
 5253TIP3    H137174   0.175   1.501   0.949 -2.8399  2.5833  1.2460
 5253TIP3    H237175   0.271   1.603   1.008  2.0107 -1.0049  0.1469
 5254TIP3   OH237176   2.162   1.677  15.185 -0.2377  0.1141 -0.1089
 5254TIP3    H137177   2.097   1.662  15.117 -1.0322  0.3813  0.5737
 5254TIP3    H237178   2.183   1.590  15.218 -2.7940  0.1370  1.9610
 5255TIP3   OH237179   2.721   5.696   2.927 -0.1050  0.8621  0.4523
 5255TIP3    H137180   2.631   5.678   2.901  0.2950  1.4116 -1.4072
 5255TIP3    H237181   2.722   5.678   3.021 -1.5972 -1.3858  0.1335
 5256TIP3   OH237182   3.363   5.589   0.644  0.3232 -0.0439 -0.1557
 5256TIP3    H137183   3.344   5.628   0.730  0.3025 -1.3527  0.4716
 5256TIP3    H237184   3.277   5.580   0.603  0.5084  2.5140 -1.2397
 5257TIP3   OH237185   2.694   1.251   3.465 -0.0340 -0.0575 -0.1813
 5257TIP3    H137186   2.608   1.273   3.429 -0.6121  0.3789  1.3641
 5257TIP3    H237187   2.740   1.335   3.468 -0.0041 -0.0835  0.1086
 5258TIP3   OH237188   3.260   5.322   6.174 -0.2919  0.9357 -0.3236
 5258TIP3    H137189   3.306   5.271   6.241 -0.3252  1.5311  0.1697
 5258TIP3    H237190   3.174   5.339   6.213 -1.5833 -1.5170 -1.8684
 5259TIP3   OH237191   5.359   2.632   1.044 -0.0625 -0.8000 -0.1926
 5259TIP3    H137192   5.430   2.690   1.016 -0.4794  1.0384  2.2528
 5259TIP3    H237193   5.402   2.548   1.062  1.6983  0.4183  1.7747
 5260TIP3   OH237194   3.865   0.819   3.702  0.3209 -0.2140  0.6858
 5260TIP3    H137195   3.868   0.872   3.782 -1.7699  0.9107  0.0902
 5260TIP3    H237196   3.863   0.729   3.733  0.5974  0.1546  1.8523
 5261TIP3   OH237197   3.733   6.459   4.453  0.3274 -0.0873  0.0477
 5261TIP3    H137198   3.687   6.484   4.373  0.6745 -0.0423 -0.1406
 5261TIP3    H237199   3.718   6.531   4.513 -1.1987 -0.7881  0.5566
 5262TIP3   OH237200   6.014   2.908   5.745 -0.0596 -0.2362  0.2400
 5262TIP3    H137201   6.014   2.836   5.682  2.7984  1.9227 -2.5265
 5262TIP3    H237202   6.105   2.938   5.748 -0.8047  2.2168  2.5683
 5263TIP3   OH237203   3.899   3.540   4.013 -0.1284 -0.1602 -0.8664
 5263TIP3    H137204   3.939   3.625   4.029 -1.6421  0.2512  1.1419
 5263TIP3    H237205   3.957   3.478   4.058 -0.8511  0.2492  0.6769
 5264TIP3   OH237206   6.353   1.143   3.291  0.2373  0.3360  0.5799
 5264TIP3    H137207   6.395   1.101   3.366 -0.1356 -1.3276 -0.1011
 5264TIP3    H237208   6.424   1.191   3.247  1.2416 -1.5505  0.0504
 5265TIP3   OH237209   3.450   0.414  16.449 -0.0620  0.0920 -0.2344
 5265TIP3    H137210   3.539   0.429  16.482  0.1130  0.1159 -0.7016
 5265TIP3    H237211   3.447   0.320  16.431  0.4339  0.3434 -1.7833
 5266TIP3   OH237212   1.895   0.867  14.734  0.2527  0.4719  0.0200
 5266TIP3    H137213   1.960   0.916  14.684  0.0793  1.8595  1.0878
 5266TIP3    H237214   1.930   0.779  14.740  1.0854  0.7104 -1.0779
 5267TIP3   OH237215   6.077   0.862  15.378 -0.6923 -0.0504 -1.4851
 5267TIP3    H137216   6.021   0.835  15.451 -0.3696 -0.1044 -1.2542
 5267TIP3    H237217   6.123   0.782  15.353  1.2374  0.4975  0.0388
 5268TIP3   OH237218   3.744   2.031  13.878 -0.2598  0.4386 -0.0526
 5268TIP3    H137219   3.753   2.082  13.959 -0.2767 -1.5520  1.2508
 5268TIP3    H237220   3.765   2.094  13.809  0.4657  2.0203  1.5184
 5269TIP3   OH237221   2.796   2.720  14.283 -0.1258  0.1557 -0.0958
 5269TIP3    H137222   2.871   2.777  14.266 -0.3439  0.3468 -0.4131
 5269TIP3    H237223   2.776   2.681  14.198 -0.5854  0.3379 -0.0687
 5270TIP3   OH237224   1.685   3.160  10.770 -0.1248 -0.1828 -0.3688
 5270TIP3    H137225   1.735   3.091  10.724  1.9078  0.7045  0.3929
 5270TIP3    H237226   1.594   3.135  10.757  0.5030 -2.5190 -0.9156
 5271TIP3   OH237227   0.976   2.498  14.038 -0.4650 -0.3681  0.4731
 5271TIP3    H137228   0.927   2.486  14.120  0.8148  0.0976  1.3356
 5271TIP3    H237229   0.979   2.593  14.026 -1.5663 -0.4592 -0.7154
 5272TIP3   OH237230   5.605   1.257   2.838  0.0492 -0.3784  0.2509
 5272TIP3    H137231   5.553   1.191   2.793 -1.2271  2.3729 -2.6438
 5272TIP3    H237232   5.691   1.253   2.796  0.0280 -0.3230  0.2017
 5273TIP3   OH237233   5.553   5.868  12.223 -0.4769  0.1197  0.3644
 5273TIP3    H137234   5.561   5.788  12.275 -0.6741 -1.1450 -1.4466
 5273TIP3    H237235   5.643   5.902  12.219 -0.2430 -0.4623  0.4679
 5274TIP3   OH237236   4.073   5.253  10.678 -0.0904 -0.4287 -0.2612
 5274TIP3    H137237   4.129   5.227  10.605  0.7941 -1.1610  0.6482
 5274TIP3    H237238   4.133   5.293  10.741 -0.7674 -0.1934  0.2544
 5275TIP3   OH237239   1.123   4.460  13.543 -0.3114  0.6602  0.0044
 5275TIP3    H137240   1.102   4.368  13.527 -1.8662  0.8945  0.4489
 5275TIP3    H237241   1.124   4.500  13.457  1.6411  0.0245 -0.3175
 5276TIP3   OH237242   3.866   5.213  16.237 -0.0760  0.0165  0.1243
 5276TIP3    H137243   3.827   5.298  16.259 -0.7890  0.5374 -2.6990
 5276TIP3    H237244   3.848   5.203  16.143  0.3849 -3.0671  0.2759
 5277TIP3   OH237245   0.146   0.569   5.123  0.0534 -0.0612  0.0112
 5277TIP3    H137246   0.052   0.574   5.107  0.1105 -0.2187 -0.3872
 5277TIP3    H237247   0.182   0.649   5.084  0.2765 -0.7708 -1.3009
 5278TIP3   OH237248   4.743   2.018   2.011  0.4217 -0.6078 -0.0356
 5278TIP3    H137249   4.724   2.082   1.943 -1.2237 -0.5803  0.4167
 5278TIP3    H237250   4.758   1.936   1.963  1.0324 -0.2303 -0.5119
 5279TIP3   OH237251   0.409   0.564  12.567  0.5701 -0.7396 -0.1169
 5279TIP3    H137252   0.352   0.510  12.621  0.0421  0.3976  0.4947
 5279TIP3    H237253   0.354   0.590  12.493  1.4177 -2.6722 -1.5419
 5280TIP3   OH237254   6.365   6.043  11.307  0.1723  0.1659  0.0233
 5280TIP3    H137255   6.407   6.128  11.296  1.5016 -0.5238 -0.4734
 5280TIP3    H237256   6.337   6.041  11.399  1.2495  0.6515  0.3738
 5281TIP3   OH237257   4.522   2.863  13.847  0.5843 -0.4993  0.0783
 5281TIP3    H137258   4.511   2.774  13.881  0.3605 -0.2261  0.7418
 5281TIP3    H237259   4.575   2.908  13.913 -0.4531  0.2406  0.4389
 5282TIP3   OH237260   2.758   3.217  16.880 -0.0565 -0.2886  0.6243
 5282TIP3    H137261   2.717   3.160  16.946 -1.0567 -0.0657  0.2284
 5282TIP3    H237262   2.741   3.172  16.797  0.4337 -0.1413  0.4468
 5283TIP3   OH237263   3.162   0.691  11.334  0.7037 -0.2555 -0.6906
 5283TIP3    H137264   3.133   0.602  11.354  0.1998 -0.4485 -2.1294
 5283TIP3    H237265   3.206   0.721  11.413 -0.5874 -1.1611  0.4094
 5284TIP3   OH237266   5.152   4.991  13.922 -0.3123  1.3366  0.6829
 5284TIP3    H137267   5.159   4.966  14.014  1.8531  4.6520  1.6026
 5284TIP3    H237268   5.241   5.016  13.897 -0.2559 -1.6383 -3.1650
 5285TIP3   OH237269   2.239   6.661  16.104  0.1601 -0.0762 -0.0865
 5285TIP3    H137270   2.171   6.726  16.125 -0.7861 -0.9952 -0.1932
 5285TIP3    H237271   2.191   6.591  16.059  0.7606 -1.8516  1.9296
 5286TIP3   OH237272   4.067   6.552   2.813  0.6147  0.3143  0.4291
 5286TIP3    H137273   4.051   6.516   2.726  0.6030 -0.0263  0.5728
 5286TIP3    H237274   4.130   6.623   2.798  0.6918  0.1897  0.1564
 5287TIP3   OH237275   4.309   6.747   4.937  0.0011 -0.4754  0.1152
 5287TIP3    H137276   4.278   6.801   4.865 -0.9349  0.0582  0.8852
 5287TIP3    H237277   4.309   6.807   5.012  0.2982 -1.1880  0.6874
 5288TIP3   OH237278   0.436   0.404  13.765  0.3821  0.1570  0.8440
 5288TIP3    H137279   0.394   0.371  13.845  3.2327 -0.9826  2.0376
 5288TIP3    H237280   0.491   0.477  13.795  0.2865  0.7572 -0.3787
 5289TIP3   OH237281   5.552   3.010  14.841 -0.2882  0.2371 -0.3333
 5289TIP3    H137282   5.480   2.948  14.835  1.0857 -1.5424  0.4365
 5289TIP3    H237283   5.604   2.979  14.916 -0.1909  3.0744  0.8678
 5290TIP3   OH237284   2.815   3.991   3.361 -0.3516 -0.0795 -0.0883
 5290TIP3    H137285   2.762   3.929   3.310  0.1227 -0.0748 -0.6089
 5290TIP3    H237286   2.775   3.992   3.448 -1.7554  0.6083 -0.7057
 5291TIP3   OH237287   6.349   0.357  14.097 -0.0400  0.2667  0.4169
 5291TIP3    H137288   6.391   0.407  14.167  1.4635 -1.6257  0.9437
 5291TIP3    H237289   6.272   0.409  14.074  0.4018  1.8424  2.2171
 5292TIP3   OH237290   6.351   0.807   5.968 -0.0938  0.4222  0.0866
 5292TIP3    H137291   6.316   0.719   5.977 -0.2142  0.6708  2.6763
 5292TIP3    H237292   6.431   0.807   6.021  0.9379  1.3801 -1.3736
 5293TIP3   OH237293   1.568   3.931  14.332 -0.2441  0.5720  0.2782
 5293TIP3    H137294   1.608   3.850  14.364 -1.4517  0.2796  1.1077
 5293TIP3    H237295   1.503   3.953  14.398  0.1907  2.3428  0.1660
 5294TIP3   OH237296   2.141   4.660  16.594  0.4096  0.6168 -0.2098
 5294TIP3    H137297   2.228   4.692  16.571  0.4982  0.4078 -0.1683
 5294TIP3    H237298   2.137   4.669  16.689  0.8370 -0.4871 -0.0745
 5295TIP3   OH237299   0.672   1.225  13.475  0.1095  0.4505  0.2371
 5295TIP3    H137300   0.609   1.170  13.430 -1.2275  0.7625  1.6284
 5295TIP3    H237301   0.753   1.174  13.475 -0.6251 -0.7465 -0.0260
 5296TIP3   OH237302   3.027   4.057  13.493 -0.6903  0.2935 -1.0429
 5296TIP3    H137303   3.019   4.036  13.586  0.7640  0.6787 -0.8042
 5296TIP3    H237304   2.954   4.012  13.451 -0.8712 -0.5738  0.1720
 5297TIP3   OH237305   1.794   2.285  13.099  0.6849 -0.4024  0.1247
 5297TIP3    H137306   1.743   2.230  13.158  1.4031 -0.2467  0.9144
 5297TIP3    H237307   1.866   2.229  13.071  1.8066  0.2955  1.4651
 5298TIP3   OH237308   3.209   0.003  15.521  0.1386 -0.1362  0.2761
 5298TIP3    H137309   3.137  -0.053  15.492  0.7779 -1.2347  0.7406
 5298TIP3    H237310   3.201   0.082  15.468 -3.0271  0.9674  2.1169
 5299TIP3   OH237311   1.888   5.057  12.294 -0.7589 -0.0731  0.3730
 5299TIP3    H137312   1.956   5.099  12.347 -0.0670  0.7034 -1.0584
 5299TIP3    H237313   1.884   5.111  12.215 -0.1262 -2.4879 -1.3926
 5300TIP3   OH237314   0.658   4.340  12.731 -0.4923 -0.1982  0.2017
 5300TIP3    H137315   0.605   4.267  12.762  2.5824 -2.1632  1.3015
 5300TIP3    H237316   0.639   4.412  12.791 -1.7434 -0.8743  0.6376
 5301TIP3   OH237317   1.836   4.947  14.271  0.1555  0.0115  0.1489
 5301TIP3    H137318   1.785   4.950  14.190 -0.4700 -2.1309  0.4055
 5301TIP3    H237319   1.917   4.902  14.247 -0.4346 -1.5051  0.8615
 5302TIP3   OH237320   2.135   1.715   4.006  0.1963  0.7820 -0.8794
 5302TIP3    H137321   2.208   1.655   4.024 -0.4034  0.4345  0.5043
 5302TIP3    H237322   2.153   1.791   4.062 -1.2839  0.0301  0.7084
 5303TIP3   OH237323   5.009   2.602   0.320 -0.5684  0.6337  0.2273
 5303TIP3    H137324   5.095   2.636   0.298  0.6579 -2.3532 -0.0496
 5303TIP3    H237325   4.981   2.554   0.242 -1.7667  0.2041  0.8812
 5304TIP3   OH237326   2.119   6.496   6.270 -0.2860 -0.4113 -0.6105
 5304TIP3    H137327   2.026   6.501   6.245 -0.4642 -0.5443  0.0071
 5304TIP3    H237328   2.119   6.449   6.354  0.2219  0.6684  0.0118
 5305TIP3   OH237329   5.164   0.413  11.837 -0.0438  0.3464  0.4540
 5305TIP3    H137330   5.181   0.326  11.802  0.1795  0.9560 -1.0605
 5305TIP3    H237331   5.073   0.410  11.866  0.4812 -0.8837  2.0671
 5306TIP3   OH237332   5.666   1.562   2.835  0.0578 -0.1372  0.7775
 5306TIP3    H137333   5.587   1.562   2.780  1.5685  0.4699 -1.5115
 5306TIP3    H237334   5.696   1.471   2.834  0.1179 -0.1140  0.5642
 5307TIP3   OH237335   5.584   4.668   3.954 -0.2740 -0.2398 -0.4295
 5307TIP3    H137336   5.565   4.614   3.877 -0.9283 -1.9071  0.8426
 5307TIP3    H237337   5.655   4.621   3.998  0.2511  0.8290 -0.1039
 5308TIP3   OH237338   0.804   1.181   5.654 -0.4302  0.7481 -0.5980
 5308TIP3    H137339   0.896   1.202   5.637  0.0272 -1.5760 -1.3459
 5308TIP3    H237340   0.798   1.179   5.750 -0.0281  2.0719 -0.5185
 5309TIP3   OH237341   5.758   0.857  11.452  0.2560 -0.4348 -0.0335
 5309TIP3    H137342   5.765   0.913  11.375  0.3533 -0.0468  0.2529
 5309TIP3    H237343   5.827   0.791  11.440 -0.9439 -1.5444 -1.1993
 5310TIP3   OH237344   5.933   6.223   3.277 -0.0658 -0.1659  0.3404
 5310TIP3    H137345   5.911   6.260   3.363 -1.3209 -2.1733  0.9370
 5310TIP3    H237346   5.924   6.129   3.288  1.3144 -0.5839 -1.5974
 5311TIP3   OH237347   0.270   4.289  12.163  0.1894  0.0657  0.1095
 5311TIP3    H137348   0.229   4.346  12.097  1.0810  0.1652 -0.3782
 5311TIP3    H237349   0.251   4.200  12.134  3.3010 -0.0224 -2.2105
 5312TIP3   OH237350   2.424   1.979  16.064 -0.2293  0.1552 -0.2706
 5312TIP3    H137351   2.347   1.942  16.108  0.0801  1.6482  1.6194
 5312TIP3    H237352   2.394   2.065  16.033  0.2486  0.1075 -0.8769
 5313TIP3   OH237353   6.131   3.404   3.824  0.3225  1.0379  0.1403
 5313TIP3    H137354   6.171   3.409   3.737  1.8198  1.4120  0.8034
 5313TIP3    H237355   6.181   3.337   3.870 -1.4456 -0.2626  0.2677
 5314TIP3   OH237356   3.447   1.581   3.828  0.5474  0.2095 -0.2497
 5314TIP3    H137357   3.367   1.633   3.819  0.0199 -0.7549 -1.4895
 5314TIP3    H237358   3.426   1.497   3.788  2.1809 -0.0868 -0.5771
 5315TIP3   OH237359   5.114   4.399  14.320  0.3092  0.0795 -0.9187
 5315TIP3    H137360   5.024   4.431  14.314  0.5657  0.8647 -0.6665
 5315TIP3    H237361   5.162   4.451  14.255  0.7750  0.3724 -0.3494
 5316TIP3   OH237362   3.795   1.081   0.467  0.0016  0.3366  0.8689
 5316TIP3    H137363   3.771   0.990   0.487  0.4498  0.0577  0.1792
 5316TIP3    H237364   3.715   1.131   0.485 -0.0037 -0.0716  2.0433
 5317TIP3   OH237365   6.665   0.968   0.018  0.2147 -0.4188 -0.0265
 5317TIP3    H137366   6.682   1.052   0.062 -0.9682 -0.2243  0.1043
 5317TIP3    H237367   6.660   0.905   0.090 -0.6936 -0.2750  0.0553
 5318TIP3   OH237368   6.474   3.279  14.804  0.4305 -0.1425 -0.3120
 5318TIP3    H137369   6.387   3.310  14.829  0.1324 -2.1519  1.5508
 5318TIP3    H237370   6.461   3.235  14.720 -0.3132 -0.1382 -0.2050
 5319TIP3   OH237371   3.829   5.645   5.452 -0.0477 -0.1209  0.1689
 5319TIP3    H137372   3.786   5.567   5.487  2.8575 -1.4261  1.0925
 5319TIP3    H237373   3.843   5.701   5.528 -2.4245  1.5986 -0.5308
 5320TIP3   OH237374   1.510   1.761  16.950  0.8100  0.1883  0.7428
 5320TIP3    H137375   1.547   1.830  16.895  2.0894  0.4940  1.9461
 5320TIP3    H237376   1.451   1.807  17.009  0.8919  0.1127  0.8835
 5321TIP3   OH237377   2.806   5.260   3.051  0.5380 -0.2311  0.0691
 5321TIP3    H137378   2.774   5.249   3.141 -1.7504 -3.3583 -0.9554
 5321TIP3    H237379   2.728   5.271   2.998  1.7799  0.6319 -1.6968
 5322TIP3   OH237380   2.093   5.256   4.279 -0.5096  0.3619 -0.8651
 5322TIP3    H137381   2.049   5.191   4.224  3.2406 -1.2413 -2.2992
 5322TIP3    H237382   2.137   5.314   4.217  0.1678  1.3002  0.4396
 5323TIP3   OH237383   5.259   4.199  12.419 -0.7069  0.5757  0.3186
 5323TIP3    H137384   5.230   4.161  12.337 -1.1249  0.5926  0.4569
 5323TIP3    H237385   5.196   4.167  12.484 -0.5334  0.7724  0.5844
 5324TIP3   OH237386   3.974   2.660   2.470  0.5780  0.2342  0.3136
 5324TIP3    H137387   4.053   2.713   2.460  0.7727  0.0598  0.9193
 5324TIP3    H237388   3.953   2.665   2.563 -0.5493  0.8794  0.0473
 5325TIP3   OH237389   5.053   3.964   5.470  0.9463  0.2140 -0.3275
 5325TIP3    H137390   5.019   3.894   5.525  0.2357  1.3914  0.7852
 5325TIP3    H237391   5.147   3.965   5.488  0.9531 -0.4153 -0.3184
 5326TIP3   OH237392   0.710   0.966   2.906 -0.2816  0.4509  0.2433
 5326TIP3    H137393   0.768   1.017   2.849  0.4155  0.2034  0.7189
 5326TIP3    H237394   0.760   0.955   2.987  0.2608 -2.3145 -0.3747
 5327TIP3   OH237395   3.599   3.215   3.377 -0.1794  0.8826  0.0655
 5327TIP3    H137396   3.675   3.224   3.435 -0.6057 -0.8009  0.9378
 5327TIP3    H237397   3.533   3.170   3.430  0.2557 -3.0268 -2.3641
 5328TIP3   OH237398   2.777   6.638  12.574 -0.0778 -0.0756 -0.3874
 5328TIP3    H137399   2.736   6.614  12.658  1.5863 -0.3979  0.3613
 5328TIP3    H237400   2.857   6.685  12.599  0.4311 -0.1679 -1.7996
 5329TIP3   OH237401   4.475   1.305   1.274  0.2553  0.4117  0.4864
 5329TIP3    H137402   4.495   1.232   1.215 -2.2393  0.2327 -0.2814
 5329TIP3    H237403   4.460   1.264   1.359  0.2360  0.2007  0.3812
 5330TIP3   OH237404   5.438   3.570   1.572  0.5751  0.2656 -0.4781
 5330TIP3    H137405   5.519   3.615   1.599  0.4956 -0.4145  0.9895
 5330TIP3    H237406   5.411   3.615   1.492  3.3228 -0.5558 -1.9996
 5331TIP3   OH237407   1.471   6.411   6.534  0.1304 -0.2252  0.1904
 5331TIP3    H137408   1.566   6.411   6.529  0.0745  0.1833 -1.0802
 5331TIP3    H237409   1.442   6.464   6.460 -1.0665  0.8098  1.3438
 5332TIP3   OH237410   5.687   5.928   4.838 -0.4979  0.1040 -0.7327
 5332TIP3    H137411   5.716   5.940   4.928  0.8156  2.1629 -1.3510
 5332TIP3    H237412   5.658   6.015   4.811  0.9832  0.0099 -2.8747
 5333TIP3   OH237413   0.484   6.389  14.348  0.2300  0.0353  0.1488
 5333TIP3    H137414   0.528   6.328  14.406  0.3090  0.4940  0.5804
 5333TIP3    H237415   0.493   6.474  14.391 -1.0155  0.1506  0.2108
 5334TIP3   OH237416   2.868   4.325  13.145  0.2862 -0.2186  0.2398
 5334TIP3    H137417   2.944   4.310  13.089 -0.5031 -1.7677 -0.4527
 5334TIP3    H237418   2.793   4.304  13.091 -0.7390  2.1676  0.6219
 5335TIP3   OH237419   0.177   6.093  15.301 -0.4690 -0.0121  0.6133
 5335TIP3    H137420   0.170   6.009  15.347 -2.7633  0.1532  0.6885
 5335TIP3    H237421   0.128   6.080  15.220  2.0796  0.2415 -1.0846
 5336TIP3   OH237422   5.476   4.069   1.158 -0.3099  0.0742 -0.1995
 5336TIP3    H137423   5.513   4.143   1.109  0.9098 -1.4477 -1.6973
 5336TIP3    H237424   5.381   4.079   1.148 -0.1217  0.4445 -1.9806
 5337TIP3   OH237425   2.098   4.208  16.111  0.0568 -0.2195 -0.2477
 5337TIP3    H137426   2.154   4.286  16.106 -0.5683  0.5854  3.0070
 5337TIP3    H237427   2.156   4.139  16.145  0.6548 -1.3640 -3.2866
 5338TIP3   OH237428   6.347   2.191   1.246  0.0946  0.4568  0.4876
 5338TIP3    H137429   6.277   2.164   1.306 -0.4362  1.5819  0.4104
 5338TIP3    H237430   6.306   2.258   1.191  0.9978  0.5078 -0.1351
 5339TIP3   OH237431   4.316   5.742   0.427  0.3076 -0.1351  0.5528
 5339TIP3    H137432   4.276   5.701   0.504  1.5729 -0.6737  0.9431
 5339TIP3    H237433   4.336   5.831   0.455  0.7199 -0.3148  0.8355
 5340TIP3   OH237434   6.591   6.366   5.405  0.5439  0.3328  0.0275
 5340TIP3    H137435   6.511   6.370   5.458  0.1171 -0.4033 -0.5348
 5340TIP3    H237436   6.649   6.431   5.444 -0.3956  1.0163  0.3448
 5341TIP3   OH237437   6.503   4.220   3.465 -0.1509  0.6345 -0.4889
 5341TIP3    H137438   6.522   4.286   3.398  0.8144  0.9841  0.1040
 5341TIP3    H237439   6.519   4.136   3.422 -0.3554  0.8279 -0.9436
 5342TIP3   OH237440   0.130   0.050  14.525  0.4141 -0.2314 -0.0168
 5342TIP3    H137441   0.149   0.042  14.619  0.5993 -3.3616 -0.2040
 5342TIP3    H237442   0.063  -0.016  14.510 -0.9089  1.4277 -1.8353
 5343TIP3   OH237443   0.181   4.755   0.205 -0.2025  0.0370 -0.4208
 5343TIP3    H137444   0.209   4.797   0.287  2.0118  0.1693 -1.1677
 5343TIP3    H237445   0.105   4.703   0.230 -1.0687  1.9300  1.2106
 5344TIP3   OH237446   3.542   6.705   0.137 -0.4175 -0.5130  0.1041
 5344TIP3    H137447   3.630   6.743   0.135 -0.2515 -0.9350 -0.6044
 5344TIP3    H237448   3.511   6.710   0.047 -1.0440 -0.5598  0.3091
 5345TIP3   OH237449   2.878   3.501  15.210 -0.6519 -0.3176 -0.2528
 5345TIP3    H137450   2.961   3.511  15.162 -0.5348 -1.5569 -0.3413
 5345TIP3    H237451   2.810   3.507  15.143 -0.4995 -1.7986 -0.5726
 5346TIP3   OH237452   1.999   4.986  13.829  0.1029 -0.1992  0.2220
 5346TIP3    H137453   1.984   4.891  13.825 -0.3357 -0.0922 -1.3325
 5346TIP3    H237454   2.093   4.994  13.844  0.4027 -0.9033 -1.0993
 5347TIP3   OH237455   0.266   1.206  13.295  0.2394 -0.6387  0.1060
 5347TIP3    H137456   0.186   1.201  13.347  1.7863  0.7366  2.8641
 5347TIP3    H237457   0.244   1.266  13.223 -0.4446  2.4278  2.6467
 5348TIP3   OH237458   1.241   0.139   4.962  0.0773 -0.1858  0.3285
 5348TIP3    H137459   1.261   0.145   4.869  1.5995  1.8648  0.7110
 5348TIP3    H237460   1.151   0.170   4.970  0.0371 -0.1027 -0.4188
 5349TIP3   OH237461   1.185   2.475  11.800 -0.0260 -0.0140  0.2723
 5349TIP3    H137462   1.157   2.560  11.833 -0.0380 -0.0083  0.2476
 5349TIP3    H237463   1.253   2.446  11.861  0.9404  0.6220 -0.4645
 5350TIP3   OH237464   3.787   5.126  15.994  0.7052  0.1517  0.1338
 5350TIP3    H137465   3.768   5.034  15.976  1.2954 -0.5625  2.8109
 5350TIP3    H237466   3.876   5.139  15.962  1.1844 -0.6600  1.0904
 5351TIP3   OH237467   2.854   5.106   3.621 -0.2624 -0.2069 -1.1700
 5351TIP3    H137468   2.867   5.030   3.565  1.2754 -0.3967 -0.6020
 5351TIP3    H237469   2.905   5.088   3.700 -1.4196  0.5812 -0.2062
 5352TIP3   OH237470   0.549   4.252   1.843 -0.7301 -0.5340  0.6226
 5352TIP3    H137471   0.467   4.258   1.796 -0.1698  0.1895 -0.2883
 5352TIP3    H237472   0.544   4.320   1.910 -1.1586 -0.9800  1.0589
 5353TIP3   OH237473   3.709   3.855   0.841  0.2998  0.2977 -0.0807
 5353TIP3    H137474   3.687   3.764   0.821 -0.0199  0.2458  0.4938
 5353TIP3    H237475   3.633   3.905   0.810  0.8491  0.4682 -1.2026
 5354TIP3   OH237476   4.448   5.696   4.854 -0.4774 -0.1430  0.0909
 5354TIP3    H137477   4.537   5.700   4.820 -0.1242 -1.6651  0.7562
 5354TIP3    H237478   4.450   5.628   4.920 -1.2725  2.2454  2.7947
 5355TIP3   OH237479   1.068   3.453  12.057  0.0255  0.4435  0.0583
 5355TIP3    H137480   1.092   3.397  12.130 -0.0662 -1.3722 -1.2496
 5355TIP3    H237481   1.072   3.542  12.093 -1.4824 -0.4332  2.6678
 5356TIP3   OH237482   3.100   4.289  16.083  0.2110  0.6895  0.0967
 5356TIP3    H137483   3.051   4.270  16.003  1.0002  0.1074 -0.2613
 5356TIP3    H237484   3.058   4.234  16.149  0.6977 -0.2147 -0.3244
 5357TIP3   OH237485   1.402   2.868   0.796  0.5264 -0.0644  0.1581
 5357TIP3    H137486   1.486   2.866   0.843  0.3658 -3.2257  0.4970
 5357TIP3    H237487   1.336   2.873   0.865  0.3551 -2.9140  0.3252
 5358TIP3   OH237488   5.086   0.692  14.427  0.5947  0.3183 -0.0615
 5358TIP3    H137489   5.152   0.754  14.457  0.5083  0.5618 -0.3656
 5358TIP3    H237490   5.003   0.736  14.445  0.5331  0.2788 -0.2531
 5359TIP3   OH237491   4.060   4.071  12.614  0.5882 -0.3518 -0.3588
 5359TIP3    H137492   4.003   3.999  12.588  2.8503 -1.3378 -3.1152
 5359TIP3    H237493   4.121   4.032  12.677  0.7064 -0.4088 -0.5066
 5360TIP3   OH237494   0.224   0.147   5.684 -0.0064 -0.1103 -0.5136
 5360TIP3    H137495   0.175   0.079   5.638 -1.5373 -0.4771  1.5167
 5360TIP3    H237496   0.263   0.102   5.759 -0.4663  1.0847  0.4779
 5361TIP3   OH237497   6.810   4.035  11.483 -0.0823  0.0334 -0.1833
 5361TIP3    H137498   6.886   4.086  11.509 -0.6437 -0.1295  1.9859
 5361TIP3    H237499   6.834   3.998  11.398  1.0426  2.3844 -0.9794
 5362TIP3   OH237500   1.298   4.673  15.059 -0.3071 -0.2873 -0.5692
 5362TIP3    H137501   1.372   4.662  15.120  1.1366  1.5742 -1.8972
 5362TIP3    H237502   1.270   4.583  15.041  0.6189 -0.9847  1.1434
 5363TIP3   OH237503   5.178   5.225   0.456 -0.2272  0.1029 -0.0925
 5363TIP3    H137504   5.120   5.181   0.393 -0.8125 -0.3362  0.7266
 5363TIP3    H237505   5.119   5.282   0.506  0.2715  0.6277 -0.1040
 5364TIP3   OH237506   0.069   4.826  16.096 -0.2437  0.8759  0.4569
 5364TIP3    H137507   0.003   4.758  16.085  1.9869 -1.3877  0.2522
 5364TIP3    H237508   0.063   4.879  16.017  0.7131 -1.6470 -1.4163
 5365TIP3   OH237509   3.356   3.602   5.632  0.3024  0.0590 -0.0710
 5365TIP3    H137510   3.425   3.666   5.653 -0.4917  1.1399 -0.6749
 5365TIP3    H237511   3.289   3.616   5.698  0.2563 -0.3709 -0.0229
 5366TIP3   OH237512   2.389   5.577  10.476 -0.7244 -0.0627  0.6288
 5366TIP3    H137513   2.340   5.655  10.451 -2.1256 -1.3953 -1.1244
 5366TIP3    H237514   2.361   5.557  10.565 -1.4612  0.6104  0.5526
 5367TIP3   OH237515   5.543   1.870   5.512  0.2916 -0.3845  0.1782
 5367TIP3    H137516   5.512   1.934   5.448 -2.7656  0.1532  2.0292
 5367TIP3    H237517   5.573   1.923   5.586 -2.5294 -0.9433  1.8467
 5368TIP3   OH237518   3.919   6.563   5.567 -0.7851  0.2698 -0.0793
 5368TIP3    H137519   3.836   6.593   5.531  0.1401  2.9207 -0.2224
 5368TIP3    H237520   3.985   6.591   5.504  0.3880  0.0863  1.0143
 5369TIP3   OH237521   4.991   5.516   1.733  0.0110  0.0498 -0.2832
 5369TIP3    H137522   5.055   5.450   1.760 -0.4015 -0.0015  0.6278
 5369TIP3    H237523   5.040   5.598   1.727  0.1067  0.0788  0.7518
 5370TIP3   OH237524   1.775   0.606   3.787  0.0099  0.0803  0.1143
 5370TIP3    H137525   1.798   0.687   3.834 -0.4430  1.5657 -2.0898
 5370TIP3    H237526   1.690   0.581   3.824  1.4471 -1.2134  2.9444
 5371TIP3   OH237527   3.078   1.069   2.160  0.5089  0.3039 -0.0822
 5371TIP3    H137528   3.118   1.156   2.158 -0.9588  1.0101  0.0678
 5371TIP3    H237529   3.103   1.033   2.246 -1.6979  2.0087  1.3823
 5372TIP3   OH237530   4.602   1.134  10.547  0.3165 -0.1764  0.2013
 5372TIP3    H137531   4.672   1.082  10.509  0.5893  0.9675 -0.9316
 5372TIP3    H237532   4.604   1.217  10.499 -2.6672 -0.5842 -0.8320
 5373TIP3   OH237533   3.304   0.811  15.180 -0.5415  0.5436  0.3321
 5373TIP3    H137534   3.347   0.759  15.248 -1.6902 -1.2311 -0.2174
 5373TIP3    H237535   3.364   0.807  15.106 -0.8188 -0.4456  0.1420
 5374TIP3   OH237536   0.779   1.530  10.357  0.0689  0.1819  0.0345
 5374TIP3    H137537   0.825   1.614  10.360  0.5722 -0.0703 -0.5294
 5374TIP3    H237538   0.838   1.472  10.309 -0.7475 -0.2079 -0.5045
 5375TIP3   OH237539   3.942   5.672   3.802 -0.1510 -0.8692 -0.2946
 5375TIP3    H137540   3.930   5.597   3.860  0.8831 -2.0489 -1.5338
 5375TIP3    H237541   3.855   5.687   3.764 -0.4404 -1.1918  0.2204
 5376TIP3   OH237542   5.247   5.542   3.367  0.7392  0.5554 -0.1356
 5376TIP3    H137543   5.173   5.480   3.367 -0.7582  2.1575 -2.7197
 5376TIP3    H237544   5.324   5.487   3.353  0.3870 -1.3349  3.9133
 5377TIP3   OH237545   3.686   3.018   4.585  0.7901  0.0010  0.1790
 5377TIP3    H137546   3.671   3.064   4.502 -0.8996 -0.6608  0.0879
 5377TIP3    H237547   3.639   3.070   4.650 -2.9842 -2.4886 -0.2203
 5378TIP3   OH237548   2.130   1.548   3.546  0.1621 -0.7946  0.3390
 5378TIP3    H137549   2.078   1.615   3.502  2.1559  0.5522 -0.1012
 5378TIP3    H237550   2.181   1.506   3.476  0.1648 -1.6411  0.8307
 5379TIP3   OH237551   2.891   1.687  14.655 -0.5224 -1.0523  0.1385
 5379TIP3    H137552   2.867   1.723  14.740 -1.2347  0.2076 -0.5549
 5379TIP3    H237553   2.810   1.689  14.604 -0.2238 -2.2627 -0.4231
 5380TIP3   OH237554   1.126   2.285  12.340  0.6622  0.5617  0.5624
 5380TIP3    H137555   1.064   2.216  12.316  0.3846  0.3598  1.7814
 5380TIP3    H237556   1.096   2.362  12.291  0.4144  0.0544 -0.0952
 5381TIP3   OH237557   1.530   5.466  13.890 -0.1710 -0.0110  0.8087
 5381TIP3    H137558   1.447   5.429  13.861  0.7040 -1.1426 -0.3463
 5381TIP3    H237559   1.511   5.558  13.908 -0.9063  0.7020 -2.9524
 5382TIP3   OH237560   1.996   5.543   0.727  0.2336  0.7745 -0.3068
 5382TIP3    H137561   1.920   5.510   0.774  2.6397  0.8119  4.2205
 5382TIP3    H237562   1.980   5.637   0.718 -0.2015  0.8268  0.8311
 5383TIP3   OH237563   6.636   2.451   6.280 -0.0100 -0.2384  0.0711
 5383TIP3    H137564   6.648   2.546   6.284 -2.3299  0.0802  1.4225
 5383TIP3    H237565   6.542   2.439   6.264  0.3071 -2.3253 -0.5832
 5384TIP3   OH237566   3.680   0.188  15.466 -0.1626 -0.1179 -0.0026
 5384TIP3    H137567   3.688   0.156  15.556  0.9107  0.1147 -0.0030
 5384TIP3    H237568   3.587   0.181  15.446 -0.2994 -0.8988  0.8599
 5385TIP3   OH237569   6.510   3.316   5.941  1.0014 -0.0944 -0.0165
 5385TIP3    H137570   6.486   3.396   5.893 -2.0959 -0.7759  0.2088
 5385TIP3    H237571   6.495   3.338   6.033  0.1361 -0.9130  0.0485
 5386TIP3   OH237572   6.555   5.844   4.873  0.4607 -0.0383 -0.2613
 5386TIP3    H137573   6.487   5.865   4.809 -0.3216 -3.6494 -0.8645
 5386TIP3    H237574   6.507   5.809   4.948  1.4962 -3.4638 -1.0223
 5387TIP3   OH237575   2.316   4.140   1.070 -0.4094 -0.4081  0.2738
 5387TIP3    H137576   2.356   4.174   1.150 -0.2853  0.4377 -0.1440
 5387TIP3    H237577   2.352   4.193   1.000 -1.0519 -0.6847 -0.2789
 5388TIP3   OH237578   1.143   2.518   5.499  0.0651  0.0620  0.7858
 5388TIP3    H137579   1.152   2.467   5.419  0.3820 -1.1186  1.5362
 5388TIP3    H237580   1.078   2.470   5.551 -0.8242  1.3184  0.8608
 5389TIP3   OH237581   0.227   3.738  14.054 -0.6401 -0.2221 -0.2926
 5389TIP3    H137582   0.178   3.789  13.989 -1.0347 -2.0997 -1.5719
 5389TIP3    H237583   0.305   3.708  14.006  0.0365 -0.0592  0.6910
 5390TIP3   OH237584   5.749   1.039   3.098  0.3860 -0.3029 -0.5275
 5390TIP3    H137585   5.836   1.008   3.124  0.3907  0.7766  0.8038
 5390TIP3    H237586   5.713   1.080   3.176 -2.8846 -3.9168  0.1313
 5391TIP3   OH237587   0.733   4.565   1.717 -0.0420  0.0342  1.1052
 5391TIP3    H137588   0.811   4.599   1.761 -0.2608  0.0005  1.5212
 5391TIP3    H237589   0.659   4.606   1.762 -0.2522  1.1753 -0.1818
 5392TIP3   OH237590   0.926   5.647  15.173  0.4901 -0.1788 -0.0271
 5392TIP3    H137591   0.980   5.627  15.097  0.4075  0.5598 -0.2869
 5392TIP3    H237592   0.967   5.597  15.245  3.2500  2.4002  0.4170
 5393TIP3   OH237593   0.273   0.325  11.597 -0.2985 -0.3231 -0.4298
 5393TIP3    H137594   0.325   0.340  11.676  0.3167 -3.6223 -0.0203
 5393TIP3    H237595   0.193   0.284  11.629 -0.0772 -1.6228 -1.4398
 5394TIP3   OH237596   3.856   2.924  12.047  0.1891 -0.7038 -0.2926
 5394TIP3    H137597   3.844   2.842  11.999 -0.9760  1.0807 -3.3591
 5394TIP3    H237598   3.925   2.970  11.999  0.9319  0.1306  1.4544
 5395TIP3   OH237599   3.934   2.624  11.107  0.1741 -0.7750  0.5451
 5395TIP3    H137600   3.928   2.660  11.196  2.1799 -1.1903  0.9008
 5395TIP3    H237601   3.965   2.697  11.053  0.0427 -0.8201  0.4075
 5396TIP3   OH237602   3.306   3.419  16.086  0.6887 -0.2373 -0.0657
 5396TIP3    H137603   3.270   3.343  16.040 -0.9221 -0.3124  1.1971
 5396TIP3    H237604   3.368   3.381  16.149  1.0601 -0.3610 -0.5056
 5397TIP3   OH237605   2.029   6.607   3.208  0.0584  0.0541 -0.0738
 5397TIP3    H137606   1.999   6.683   3.257  0.4781 -0.0824  0.4067
 5397TIP3    H237607   1.999   6.532   3.259  0.4916 -0.0882 -0.0232
 5398TIP3   OH237608   5.494   4.084  10.654  0.2094  0.0549 -0.3100
 5398TIP3    H137609   5.528   4.068  10.566 -0.1858  2.0685 -0.8648
 5398TIP3    H237610   5.521   4.174  10.674 -0.9680  0.1322  1.0302
 5399TIP3   OH237611   5.774   4.350  13.542 -0.3253  0.0485 -0.3284
 5399TIP3    H137612   5.818   4.302  13.613 -1.5036 -0.8161 -0.1362
 5399TIP3    H237613   5.768   4.287  13.471 -0.4857  0.4289 -0.6532
 5400TIP3   OH237614   0.777   3.072  14.688 -0.1306  0.2740  0.2588
 5400TIP3    H137615   0.687   3.076  14.720 -0.0783  2.1449  0.2814
 5400TIP3    H237616   0.822   3.143  14.734  1.3558 -0.5581  0.1710
 5401TIP3   OH237617   1.717   6.224   2.169 -0.2566  0.0950 -0.3726
 5401TIP3    H137618   1.714   6.132   2.196 -0.1317  0.2348  0.1209
 5401TIP3    H237619   1.695   6.273   2.248  1.5897  0.5776 -0.1068
 5402TIP3   OH237620   2.316   5.596   6.239 -0.2867  0.1545 -0.0933
 5402TIP3    H137621   2.321   5.509   6.279 -1.3524  0.4279  0.6756
 5402TIP3    H237622   2.232   5.631   6.269  0.4017  1.6876  0.1084
 5403TIP3   OH237623   4.802   6.013   3.350 -0.8405 -0.4372 -0.2362
 5403TIP3    H137624   4.732   6.044   3.293 -1.3471  0.9251  1.0559
 5403TIP3    H237625   4.882   6.044   3.309 -1.2114  0.6822 -0.1667
 5404TIP3   OH237626   1.681   3.875  15.096  0.4830 -0.0372  0.3177
 5404TIP3    H137627   1.727   3.864  15.179  2.9884 -0.0595 -0.9916
 5404TIP3    H237628   1.650   3.787  15.074 -0.4998  0.0277  1.3489
 5405TIP3   OH237629   3.983   0.729   1.549 -0.1148 -0.3696  0.7734
 5405TIP3    H137630   4.059   0.779   1.577  0.8951 -2.2213  1.4705
 5405TIP3    H237631   3.991   0.724   1.454 -0.7382  1.5118  0.5797
 5406TIP3   OH237632   3.242   3.891  14.583 -0.2003  0.6090 -0.3387
 5406TIP3    H137633   3.229   3.986  14.584 -1.1347  0.4967 -0.1637
 5406TIP3    H237634   3.162   3.857  14.542  0.4769 -0.0610 -1.1289
 5407TIP3   OH237635   3.351   4.794  16.057 -0.2960  0.3642 -0.4489
 5407TIP3    H137636   3.388   4.707  16.070 -1.0667  0.2947  1.6517
 5407TIP3    H237637   3.284   4.781  15.989  1.0050 -0.2037 -1.6863
 5408TIP3   OH237638   4.639   3.649  12.917 -0.2836 -0.5512 -0.4486
 5408TIP3    H137639   4.604   3.726  12.872 -1.6151 -0.5551  0.4958
 5408TIP3    H237640   4.695   3.606  12.852 -0.0026  0.8820 -1.1799
 5409TIP3   OH237641   3.863   3.003  16.114  0.1846 -0.2853  0.5571
 5409TIP3    H137642   3.803   3.078  16.117 -1.0565 -1.2566  0.7447
 5409TIP3    H237643   3.806   2.926  16.120  1.5334 -1.2401  2.1256
 5410TIP3   OH237644   5.279   4.312   0.308 -0.3026 -0.0562 -0.3728
 5410TIP3    H137645   5.244   4.382   0.253 -1.0509 -1.2986 -1.5675
 5410TIP3    H237646   5.368   4.298   0.274 -0.1938  0.2293 -0.2098
 5411TIP3   OH237647   5.699   6.730  12.654 -0.3980 -0.0404 -0.6051
 5411TIP3    H137648   5.689   6.662  12.588  0.0311 -1.5269  0.7852
 5411TIP3    H237649   5.765   6.695  12.714 -0.3818  1.4904  0.3181
 5412TIP3   OH237650   1.289   1.799   0.275 -0.2803  0.2662  0.3139
 5412TIP3    H137651   1.308   1.705   0.278  0.0133  0.3180  0.1533
 5412TIP3    H237652   1.196   1.806   0.294 -1.2633 -0.3627 -3.4589
 5413TIP3   OH237653   2.969   6.561   6.339 -0.1987  1.0561 -0.0494
 5413TIP3    H137654   2.943   6.484   6.390  1.4640 -0.0994 -0.8597
 5413TIP3    H237655   2.992   6.526   6.253 -2.0332  2.8376 -1.3700
 5414TIP3   OH237656   1.315   6.047  16.765 -0.1157 -0.5497 -0.8392
 5414TIP3    H137657   1.366   5.975  16.727  1.2055  0.3097 -0.7418
 5414TIP3    H237658   1.233   6.046  16.716  0.4562 -1.2027 -1.8209
 5415TIP3   OH237659   4.710   5.273  12.981  0.8317 -0.2734  0.2060
 5415TIP3    H137660   4.649   5.294  12.910  1.0229  1.2637  0.4590
 5415TIP3    H237661   4.754   5.193  12.952 -1.7346 -1.8244  0.3020
 5416TIP3   OH237662   3.743   0.906  11.756 -0.1320  0.1089 -0.4024
 5416TIP3    H137663   3.773   0.824  11.797  0.8516 -0.3899 -2.0314
 5416TIP3    H237664   3.651   0.913  11.783  1.1797  1.6846  4.7479
 5417TIP3   OH237665   5.680   2.791   1.452 -0.6380  0.0653 -0.1398
 5417TIP3    H137666   5.615   2.860   1.464 -0.4963  0.0422  0.8654
 5417TIP3    H237667   5.758   2.824   1.497 -1.1866 -1.6080  2.2479
 5418TIP3   OH237668   1.422   1.671  11.750 -0.1242 -0.3729 -0.7408
 5418TIP3    H137669   1.350   1.608  11.741 -0.2928 -0.2486 -0.2469
 5418TIP3    H237670   1.381   1.751  11.782  0.0060  0.1697 -1.8772
 5419TIP3   OH237671   0.569   2.700  11.239 -0.2416  0.4135 -0.3724
 5419TIP3    H137672   0.520   2.708  11.320 -0.8773  0.3701 -0.7472
 5419TIP3    H237673   0.528   2.627  11.192  2.4492 -2.1388  0.8885
 5420TIP3   OH237674   5.483   1.004   5.983 -0.7659  0.1474 -0.1349
 5420TIP3    H137675   5.499   1.031   5.892 -0.2323  0.2383 -0.0151
 5420TIP3    H237676   5.387   0.996   5.988 -0.9851  2.0927 -0.1669
 5421TIP3   OH237677   1.392   5.444  12.706 -0.1320  0.2183  0.2572
 5421TIP3    H137678   1.366   5.503  12.635  1.0881 -0.4720 -0.7953
 5421TIP3    H237679   1.479   5.414  12.682  0.5721  0.4030  2.3536
 5422TIP3   OH237680   2.215   3.230   1.960 -0.5802  0.0802 -0.0099
 5422TIP3    H137681   2.137   3.230   2.014  0.1497 -0.3214  1.0664
 5422TIP3    H237682   2.259   3.148   1.981  0.5696  0.6919  0.0425
 5423TIP3   OH237683   3.554   5.659  14.371  0.2235 -0.2060  0.2638
 5423TIP3    H137684   3.595   5.686  14.454 -0.6527  1.5633  0.1664
 5423TIP3    H237685   3.483   5.600  14.397 -0.0131  0.2986  0.7649
 5424TIP3   OH237686   1.396   2.167  14.860 -0.6705 -0.3725  0.1482
 5424TIP3    H137687   1.307   2.200  14.842  0.0425  1.6414  0.0458
 5424TIP3    H237688   1.437   2.162  14.774  0.9236  3.8149  0.4415
 5425TIP3   OH237689   4.523   0.848   4.756  0.0369  0.3086  0.0762
 5425TIP3    H137690   4.443   0.821   4.800 -0.4150  0.7043 -0.4975
 5425TIP3    H237691   4.539   0.780   4.690 -0.9209  1.2273 -1.1455
 5426TIP3   OH237692   1.973   2.574   0.759 -0.4629 -0.0726 -0.3073
 5426TIP3    H137693   1.909   2.638   0.789 -1.6015 -1.3007 -0.0194
 5426TIP3    H237694   2.058   2.612   0.783 -1.1827  0.5204  1.4780
 5427TIP3   OH237695   2.855   1.572  11.287 -0.0463 -0.2046  0.1307
 5427TIP3    H137696   2.901   1.653  11.309 -2.5011  1.6090 -0.8992
 5427TIP3    H237697   2.824   1.586  11.197 -1.7512 -1.6525  0.4427
 5428TIP3   OH237698   6.638   6.268   2.667 -0.0230  0.4668 -0.3212
 5428TIP3    H137699   6.602   6.195   2.617  1.8591 -0.2532 -0.6733
 5428TIP3    H237700   6.569   6.335   2.663 -0.5632 -0.1340 -2.5784
 5429TIP3   OH237701   5.118   2.106   1.159  0.0415 -0.8312  0.3996
 5429TIP3    H137702   5.091   2.142   1.244 -1.0237 -2.0877  0.6239
 5429TIP3    H237703   5.206   2.072   1.174 -0.7697 -2.5416  1.4857
 5430TIP3   OH237704   5.532   0.167   1.303  0.0036  0.5482 -0.0381
 5430TIP3    H137705   5.625   0.159   1.284 -0.0792 -1.7709  0.1807
 5430TIP3    H237706   5.514   0.260   1.298  1.9711  0.9072 -1.7968
 5431TIP3   OH237707   3.346   4.796  11.704  0.3529  0.3649 -0.2628
 5431TIP3    H137708   3.358   4.798  11.609 -1.7614 -1.7228 -0.6627
 5431TIP3    H237709   3.427   4.756  11.737  0.7480  0.3011 -1.2670
 5432TIP3   OH237710   1.068   1.250   5.570  1.0112 -0.1531 -0.6099
 5432TIP3    H137711   1.117   1.231   5.490 -0.6723 -2.0906 -1.2548
 5432TIP3    H237712   1.110   1.196   5.638  2.3666  1.4053 -0.1310
 5433TIP3   OH237713   1.632   4.858  11.497  0.4262 -0.5493 -0.0409
 5433TIP3    H137714   1.559   4.881  11.555 -0.6490 -0.9429 -1.1990
 5433TIP3    H237715   1.665   4.775  11.532  1.5721  0.5386  1.6029
 5434TIP3   OH237716   4.835   1.776   0.451 -0.6248  0.1637 -0.0363
 5434TIP3    H137717   4.800   1.756   0.538  1.4176  0.9226  1.0423
 5434TIP3    H237718   4.761   1.811   0.402 -2.3200 -2.1792  0.6850
 5435TIP3   OH237719   5.539   4.354  13.709  0.1458 -0.2875  0.1649
 5435TIP3    H137720   5.561   4.292  13.779  2.5631 -0.0450 -0.2821
 5435TIP3    H237721   5.618   4.358  13.656 -0.5577  1.8750 -0.8259
 5436TIP3   OH237722   3.022   1.537  16.420 -0.2267  0.0517 -0.2753
 5436TIP3    H137723   3.106   1.574  16.445 -0.8279  2.8134 -1.8405
 5436TIP3    H237724   3.002   1.579  16.336 -4.0244  1.1128  0.9465
 5437TIP3   OH237725   3.486   4.346  14.337 -0.1652  0.6188  0.1242
 5437TIP3    H137726   3.427   4.280  14.301  1.0522 -0.0081 -0.7842
 5437TIP3    H237727   3.528   4.302  14.412 -2.1504  1.6765  1.9697
 5438TIP3   OH237728   4.663   3.301   2.358 -0.0422 -0.0065  0.1346
 5438TIP3    H137729   4.728   3.364   2.390 -0.8059  0.6414  0.4284
 5438TIP3    H237730   4.591   3.307   2.420 -1.2565  0.7451 -1.2993
 5439TIP3   OH237731   3.412   3.741   3.063  0.1623 -0.1851 -0.2207
 5439TIP3    H137732   3.463   3.796   3.123 -0.4038 -0.4067  0.4732
 5439TIP3    H237733   3.478   3.694   3.012  0.7180 -1.6495  1.7351
 5440TIP3   OH237734   4.203   3.215  13.959  0.3859 -0.0745  0.0039
 5440TIP3    H137735   4.215   3.237  14.051  1.2630  2.1212 -0.5573
 5440TIP3    H237736   4.292   3.202  13.926  0.0646 -1.1193 -0.4904
 5441TIP3   OH237737   2.571   0.056  12.963  0.3605  0.0879 -0.8385
 5441TIP3    H137738   2.566   0.151  12.975  1.4787  0.2298 -1.3623
 5441TIP3    H237739   2.521   0.039  12.883 -0.9645  0.0535 -0.0222
 5442TIP3   OH237740   6.678   3.616   1.432  0.0220  0.0169 -0.1904
 5442TIP3    H137741   6.746   3.674   1.469  0.1911  0.5375 -1.2674
 5442TIP3    H237742   6.616   3.604   1.504 -0.2626  1.9285 -0.0581
 5443TIP3   OH237743   5.407   3.084  15.361  0.2300 -0.2451 -0.3730
 5443TIP3    H137744   5.370   3.158  15.408  0.9066  1.2128 -1.9957
 5443TIP3    H237745   5.487   3.062  15.410  0.6551  0.9047 -0.5137
 5444TIP3   OH237746   6.481   6.315   4.864 -0.2140  0.4289 -0.1341
 5444TIP3    H137747   6.457   6.400   4.900 -2.5842 -0.5744  0.8605
 5444TIP3    H237748   6.575   6.309   4.878  0.0329  2.8540 -0.2439
 5445TIP3   OH237749   0.252   2.914   5.512  0.3202  0.1473 -0.3561
 5445TIP3    H137750   0.241   2.906   5.607  1.4775  1.3779 -0.0790
 5445TIP3    H237751   0.173   2.960   5.483  0.0243 -0.1107  0.0243
 5446TIP3   OH237752   2.332   5.920   4.464  0.6224  0.2743  0.1134
 5446TIP3    H137753   2.296   5.836   4.493 -1.4224  0.5507 -1.3758
 5446TIP3    H237754   2.382   5.899   4.385 -0.9183  0.5651 -0.9747
 5447TIP3   OH237755   4.467   0.853   2.417 -0.2804 -0.0329  0.0662
 5447TIP3    H137756   4.548   0.829   2.462 -0.4084 -0.9135 -0.1479
 5447TIP3    H237757   4.478   0.818   2.329 -0.4530  0.7972 -0.2907
 5448TIP3   OH237758   3.541   4.139   2.576 -0.4800  0.0651 -0.2721
 5448TIP3    H137759   3.612   4.185   2.621 -1.5932  0.8145  0.7961
 5448TIP3    H237760   3.507   4.078   2.642 -1.5144  0.4877 -0.3941
 5449TIP3   OH237761   6.289   2.216  13.058  0.3469  0.0951 -0.5401
 5449TIP3    H137762   6.351   2.172  13.001 -0.4081  1.2769 -2.3511
 5449TIP3    H237763   6.208   2.222  13.007 -0.4696  0.9043  0.7684
 5450TIP3   OH237764   5.215   1.351   4.756 -0.3079  0.0788  0.0098
 5450TIP3    H137765   5.251   1.298   4.685  0.1988  0.9307 -0.3992
 5450TIP3    H237766   5.291   1.372   4.811 -0.8030 -1.1336  1.2083
 5451TIP3   OH237767   0.761   0.306   1.247  0.0793  0.5205 -0.2045
 5451TIP3    H137768   0.807   0.329   1.328  0.3065 -0.2620 -0.1003
 5451TIP3    H237769   0.712   0.385   1.224  1.0953  1.2119 -0.0599
 5452TIP3   OH237770   4.267   6.421   0.910  0.3559 -0.2439 -0.0649
 5452TIP3    H137771   4.225   6.363   0.847 -0.4679  2.0074 -1.7328
 5452TIP3    H237772   4.199   6.439   0.975 -0.4488  1.1605 -1.2220
 5453TIP3   OH237773   1.496   1.033   4.043 -1.0623 -0.4392  0.0997
 5453TIP3    H137774   1.556   1.107   4.055 -2.6505  1.0538 -0.6165
 5453TIP3    H237775   1.493   1.019   3.949 -0.2067 -1.9646  0.2765
 5454TIP3   OH237776   3.687   3.396  13.526 -0.1602 -0.0052 -0.3978
 5454TIP3    H137777   3.737   3.330  13.575  0.7914  1.4177  0.6419
 5454TIP3    H237778   3.656   3.456  13.593 -3.5933 -0.9460 -0.9777
 5455TIP3   OH237779   6.793   5.428   4.727  0.2238 -0.2620 -0.0101
 5455TIP3    H137780   6.870   5.384   4.765  0.0673  0.0749  0.7245
 5455TIP3    H237781   6.764   5.487   4.796 -0.1249  0.3187 -0.6485
 5456TIP3   OH237782   0.351   5.181   0.611  0.1979  0.3321  1.1072
 5456TIP3    H137783   0.259   5.205   0.618 -0.0848 -0.4799  0.3012
 5456TIP3    H237784   0.354   5.089   0.636  0.2509 -0.6179 -1.9679
 5457TIP3   OH237785   0.773   1.103  14.575 -0.0721  0.2863  0.3482
 5457TIP3    H137786   0.834   1.034  14.601 -0.9220 -0.4910  0.3032
 5457TIP3    H237787   0.794   1.176  14.633  0.7785 -0.0347  0.4550
 5458TIP3   OH237788   1.720   0.446   4.703  0.6101  0.2753 -0.3655
 5458TIP3    H137789   1.664   0.428   4.627  1.4460  0.6808 -1.0989
 5458TIP3    H237790   1.700   0.376   4.765 -0.0642 -0.0824 -0.9676
 5459TIP3   OH237791   5.990   0.572   5.813 -0.2509 -0.1194 -0.2811
 5459TIP3    H137792   5.962   0.647   5.866 -1.1070 -1.1081  0.7401
 5459TIP3    H237793   6.050   0.524   5.871  1.6809  0.6486 -1.5494
 5460TIP3   OH237794   4.626   4.842  11.828 -0.2418  0.0933 -0.1245
 5460TIP3    H137795   4.533   4.846  11.805 -0.6540 -2.1682  0.9506
 5460TIP3    H237796   4.669   4.811  11.749 -0.6511 -0.5653 -0.0914
 5461TIP3   OH237797   6.242   0.733   1.058 -0.0829  0.9441  0.5172
 5461TIP3    H137798   6.214   0.674   1.128  0.7710 -0.6863 -0.4767
 5461TIP3    H237799   6.222   0.686   0.977  1.9529  1.3738 -0.2865
 5462TIP3   OH237800   2.310   0.944  12.904 -0.2553 -0.0928  0.2091
 5462TIP3    H137801   2.274   1.015  12.851  1.6982 -0.4785 -1.7722
 5462TIP3    H237802   2.280   0.864  12.860  0.0915 -0.4603  0.6296
 5463TIP3   OH237803   0.847   5.336   1.135 -0.8011  0.3695  0.0092
 5463TIP3    H137804   0.890   5.372   1.213 -2.1567 -2.1637  2.0755
 5463TIP3    H237805   0.785   5.404   1.110  0.7759  1.9201  0.0756
 5464TIP3   OH237806   0.224   2.487  11.510  0.0343 -0.2098  0.1561
 5464TIP3    H137807   0.186   2.448  11.589  0.0668  1.4647  1.0418
 5464TIP3    H237808   0.150   2.495  11.450 -0.1438 -0.8483  0.2891
 5465TIP3   OH237809   0.311   1.184   2.891  0.3855 -0.9763  0.2645
 5465TIP3    H137810   0.375   1.214   2.956 -0.3624  1.1103  0.1299
 5465TIP3    H237811   0.361   1.172   2.811  0.3527  3.6226 -0.7063
 5466TIP3   OH237812   4.421   2.569  14.430  0.6059 -0.4527  0.3489
 5466TIP3    H137813   4.445   2.590  14.521  1.1996 -3.4612  0.9884
 5466TIP3    H237814   4.498   2.524  14.395 -0.6492 -1.8705 -0.7037
 5467TIP3   OH237815   6.487   2.937   3.860 -0.1562  0.1615  0.3449
 5467TIP3    H137816   6.540   2.974   3.930  1.0650 -2.0902  0.7092
 5467TIP3    H237817   6.404   2.912   3.901 -0.0536  0.3046  0.6343
 5468TIP3   OH237818   4.532   6.622   0.388  0.6972 -0.5096 -0.1400
 5468TIP3    H137819   4.503   6.691   0.328 -0.0975 -2.8110 -2.6112
 5468TIP3    H237820   4.512   6.656   0.475 -1.0777  1.7269 -1.3158
 5469TIP3   OH237821   1.087   3.684  15.114 -0.0023 -0.0139  0.0324
 5469TIP3    H137822   1.136   3.660  15.193  0.7043  1.6766  0.1709
 5469TIP3    H237823   1.134   3.641  15.043  1.1808  0.8271  0.2656
 5470TIP3   OH237824   1.862   3.224   3.997 -0.5469 -0.5172 -0.0898
 5470TIP3    H137825   1.953   3.194   4.006 -0.4463 -0.2871 -0.3269
 5470TIP3    H237826   1.859   3.308   4.042 -0.3928 -0.0492 -0.9267
 5471TIP3   OH237827   2.868   2.260   0.540 -0.5690 -0.1072 -0.1024
 5471TIP3    H137828   2.900   2.310   0.615  0.3004 -1.2784  0.3383
 5471TIP3    H237829   2.947   2.230   0.495 -1.0771 -0.1592 -0.9860
 5472TIP3   OH237830   0.032   6.309  15.399  0.4342 -1.1172 -0.2761
 5472TIP3    H137831   0.080   6.247  15.344 -1.5977 -0.4287 -3.0599
 5472TIP3    H237832  -0.046   6.261  15.427  1.5406 -1.5297  2.3559
 5473TIP3   OH237833   1.354   2.943  13.760 -0.0497  1.0012  0.3622
 5473TIP3    H137834   1.441   2.926  13.797 -0.0626  1.4948  0.6200
 5473TIP3    H237835   1.370   3.002  13.687 -0.0445  0.1612 -0.3389
 5474TIP3   OH237836   6.418   4.235  15.246  0.3021  0.0718 -0.4666
 5474TIP3    H137837   6.388   4.148  15.220  0.0705  0.5034 -1.7281
 5474TIP3    H237838   6.394   4.291  15.172  2.7833  0.7323 -0.8522
 5475TIP3   OH237839   0.140   1.034  15.948 -0.5255 -0.1637 -0.2285
 5475TIP3    H137840   0.099   1.022  15.862  0.3249  1.1172 -0.8411
 5475TIP3    H237841   0.231   1.007  15.934 -0.6580 -1.0612  0.5864
 5476TIP3   OH237842   0.640   3.508  12.960 -0.7256  0.1023  0.1039
 5476TIP3    H137843   0.665   3.417  12.977 -0.6750 -0.1010 -0.9717
 5476TIP3    H237844   0.699   3.560  13.014  0.6542 -0.4399 -0.8195
 5477TIP3   OH237845   5.942   4.359  10.360 -0.3134  0.0239  0.2720
 5477TIP3    H137846   5.984   4.305  10.427  1.5243  2.3245  1.1387
 5477TIP3    H237847   5.856   4.380  10.396 -1.1665 -2.3671 -0.1831
 5478TIP3   OH237848   5.130   1.608   2.001  0.1296  0.8725  0.1714
 5478TIP3    H137849   5.209   1.556   2.018 -0.4718  0.0448  0.5032
 5478TIP3    H237850   5.058   1.547   2.018 -0.6068  1.9272  0.9073
 5479TIP3   OH237851   3.208   0.915  11.796 -0.2359  0.1579 -0.2549
 5479TIP3    H137852   3.187   1.001  11.760 -2.3794  1.0078  2.6359
 5479TIP3    H237853   3.154   0.908  11.875  1.3613 -3.0295  0.7396
 5480TIP3   OH237854   2.211   1.718   3.727  0.1801  0.0583 -0.6994
 5480TIP3    H137855   2.160   1.661   3.670 -2.4952  0.0929  1.4687
 5480TIP3    H237856   2.218   1.670   3.809  0.2003  1.7219  0.3200
 5481TIP3   OH237857   0.269   2.320   5.359 -0.5608  0.3403 -0.6695
 5481TIP3    H137858   0.243   2.412   5.360  0.4673  0.6585  0.8243
 5481TIP3    H237859   0.199   2.275   5.406 -0.9222  0.3894 -1.1501
 5482TIP3   OH237860   0.843   2.279   3.636  0.1998 -0.0009 -0.1384
 5482TIP3    H137861   0.931   2.302   3.667  0.1097  0.0907  0.0519
 5482TIP3    H237862   0.851   2.274   3.541 -0.0380  1.9571 -0.3034
 5483TIP3   OH237863   5.653   4.841  14.805 -0.1785 -0.3913 -0.2021
 5483TIP3    H137864   5.699   4.914  14.763  0.4707  0.2176  1.4802
 5483TIP3    H237865   5.722   4.778  14.827 -0.8730 -2.3260 -2.9707
 5484TIP3   OH237866   4.808   5.805   2.027 -0.2761 -0.0047 -0.0415
 5484TIP3    H137867   4.764   5.831   2.108 -1.7133  2.7141 -1.5204
 5484TIP3    H237868   4.740   5.759   1.977 -0.2711  0.7351 -0.7546
 5485TIP3   OH237869   5.654   0.455  14.791 -0.1978  0.0654  0.1663
 5485TIP3    H137870   5.610   0.425  14.871 -0.0114  0.2658  0.3477
 5485TIP3    H237871   5.623   0.396  14.723  2.2043 -2.3858  0.9895
 5486TIP3   OH237872   1.583   1.268  16.300  0.2251 -0.4458  0.0163
 5486TIP3    H137873   1.531   1.334  16.347  2.7262  2.1144 -0.5318
 5486TIP3    H237874   1.662   1.257  16.353  1.6641  0.0895 -1.9074
 5487TIP3   OH237875   2.019   3.026  14.501  0.0194  0.2814 -0.1634
 5487TIP3    H137876   2.032   2.947  14.449 -1.2603 -0.3304  0.3894
 5487TIP3    H237877   1.925   3.043  14.496 -0.2716 -0.1438  2.3665
 5488TIP3   OH237878   5.112   2.694   4.811  0.4203 -0.1015 -0.9736
 5488TIP3    H137879   5.147   2.643   4.739 -1.4321 -1.8904 -0.7023
 5488TIP3    H237880   5.017   2.694   4.797  0.1992  1.6718  0.0978
 5489TIP3   OH237881   2.715   6.182   4.373  0.1439  0.0096 -0.3810
 5489TIP3    H137882   2.725   6.087   4.364 -0.3009 -0.0958  0.1540
 5489TIP3    H237883   2.697   6.195   4.466  1.2492  0.7248 -0.2497
 5490TIP3   OH237884   0.691   3.247  12.998 -0.4921 -0.1378 -0.5250
 5490TIP3    H137885   0.673   3.166  13.044  0.5013  0.3834  0.8496
 5490TIP3    H237886   0.786   3.249  12.990 -0.6149 -0.2039 -2.6577
 5491TIP3   OH237887   2.568   0.031   5.948  0.2576 -0.4194  0.4799
 5491TIP3    H137888   2.561   0.047   5.854 -0.9463  1.2693  0.8203
 5491TIP3    H237889   2.644  -0.027   5.956  1.6533  1.0108 -1.3658
 5492TIP3   OH237890   5.033   4.129  16.421 -0.1885 -0.0907 -0.1530
 5492TIP3    H137891   5.011   4.166  16.507 -1.1943 -0.8172 -0.0794
 5492TIP3    H237892   4.968   4.165  16.361  0.4015  0.2711 -0.5870
 5493TIP3   OH237893   6.007   0.914   3.166 -0.7171  0.2953  0.4243
 5493TIP3    H137894   6.032   1.006   3.173 -2.1158  0.8725 -1.4904
 5493TIP3    H237895   6.087   0.870   3.140 -0.1957  1.0664  0.6685
 5494TIP3   OH237896   0.655   6.469  12.984  0.2646  0.0336  0.1231
 5494TIP3    H137897   0.620   6.504  13.066 -1.0912 -0.4476 -0.2300
 5494TIP3    H237898   0.579   6.434  12.938  1.2043 -1.0220 -0.6941
 5495TIP3   OH237899   5.104   6.594  11.471  0.4139 -0.5233  0.2190
 5495TIP3    H137900   5.017   6.569  11.500  0.1882 -0.4911 -0.4193
 5495TIP3    H237901   5.119   6.543  11.392  0.6092  0.1273 -0.1712
 5496TIP3   OH237902   0.077   2.273   3.062  0.3503  0.1431  0.1447
 5496TIP3    H137903   0.110   2.307   3.145  1.8355  0.2758 -0.4606
 5496TIP3    H237904   0.155   2.240   3.017 -0.5272 -0.5994 -0.8914
 5497TIP3   OH237905   1.625   5.776   3.349  0.2280  0.0352  0.5499
 5497TIP3    H137906   1.713   5.785   3.313 -0.7380  1.5041 -1.6902
 5497TIP3    H237907   1.581   5.858   3.326 -1.6824 -0.5701  1.7851
 5498TIP3   OH237908   3.459   2.281   2.547 -0.1682  0.7744  0.2079
 5498TIP3    H137909   3.547   2.315   2.558 -0.2030  1.0456 -0.3537
 5498TIP3    H237910   3.439   2.292   2.454 -0.0158 -1.2025 -0.0990
 5499TIP3   OH237911   3.531   1.485   0.383  0.2829 -0.1728 -0.0089
 5499TIP3    H137912   3.482   1.550   0.333  0.9504  1.8978  1.8311
 5499TIP3    H237913   3.472   1.410   0.391  0.0152 -0.4674 -3.4268
 5500TIP3   OH237914   2.966   1.740  12.111 -0.1320  0.9032  0.1773
 5500TIP3    H137915   2.975   1.831  12.083  0.7044  0.7663 -0.0161
 5500TIP3    H237916   2.915   1.699  12.041 -2.9464  1.8000  1.5354
 5501TIP3   OH237917   1.982   3.467  12.406  0.0663  0.3646 -0.2207
 5501TIP3    H137918   1.981   3.547  12.459  0.3260  1.2528 -1.5145
 5501TIP3    H237919   2.075   3.444  12.400 -0.0313 -0.2364  0.4114
 5502TIP3   OH237920   5.040   3.891  16.050 -0.2224 -0.0310 -0.4837
 5502TIP3    H137921   5.028   3.798  16.066  0.4802 -0.4060 -1.9185
 5502TIP3    H237922   5.114   3.917  16.106 -1.2971  0.0195  0.9628
 5503TIP3   OH237923   6.655   0.122  15.744  0.3736 -0.5396  0.3410
 5503TIP3    H137924   6.598   0.132  15.668  1.1884  0.3023 -0.1742
 5503TIP3    H237925   6.604   0.068  15.805  0.7430 -3.6961 -1.8753
 5504TIP3   OH237926   5.541   0.450  11.345 -0.3703  0.5852  0.7053
 5504TIP3    H137927   5.560   0.356  11.340 -1.6296  0.3740 -0.4458
 5504TIP3    H237928   5.627   0.492  11.333  0.2193 -0.3987  1.3248
 5505TIP3   OH237929   1.460   1.138   6.301  0.5417  1.1360 -0.7542
 5505TIP3    H137930   1.530   1.188   6.343  0.7078  1.5134 -1.4689
 5505TIP3    H237931   1.380   1.168   6.344  0.4867  2.9838 -2.0156
 5506TIP3   OH237932   4.484   0.708  14.174  0.7392 -0.4615  0.4108
 5506TIP3    H137933   4.462   0.802  14.178  0.8377 -0.4185  0.0427
 5506TIP3    H237934   4.512   0.695  14.083 -0.8948 -1.2088 -0.0132
 5507TIP3   OH237935   4.782   2.624  11.386  0.4088  0.7659 -0.1899
 5507TIP3    H137936   4.816   2.536  11.408  1.0241  0.9445 -0.3862
 5507TIP3    H237937   4.736   2.611  11.303  0.0426  0.5273  0.0493
 5508TIP3   OH237938   0.118   5.844  16.589  0.1346 -0.0847 -0.5675
 5508TIP3    H137939   0.049   5.847  16.523  0.6653 -1.9982 -1.2837
 5508TIP3    H237940   0.089   5.777  16.650  0.4298  0.5219  0.2537
 5509TIP3   OH237941   0.983   1.185  11.046 -0.8259  0.1816 -0.5705
 5509TIP3    H137942   0.916   1.120  11.066 -0.3316 -1.1697 -2.8980
 5509TIP3    H237943   0.984   1.190  10.951  0.3092  2.4285 -0.5118
 5510TIP3   OH237944   6.082   0.200   4.142 -0.7019  0.4625 -0.2034
 5510TIP3    H137945   6.108   0.110   4.126  1.2745  0.6394  1.6021
 5510TIP3    H237946   6.091   0.243   4.057  4.1771  0.2263 -0.0889
 5511TIP3   OH237947   2.971   1.321   4.268 -0.0242  0.2739  0.0998
 5511TIP3    H137948   2.976   1.361   4.355 -0.5099  0.7207 -0.0772
 5511TIP3    H237949   2.977   1.227   4.285  5.4175  0.3343  0.2782
 5512TIP3   OH237950   2.563   2.995   4.147  0.0946  0.5495  0.0745
 5512TIP3    H137951   2.488   3.040   4.186  0.2374  0.2941  0.6471
 5512TIP3    H237952   2.636   3.013   4.207  0.1506 -0.4533  0.3147
 5513TIP3   OH237953   3.465   2.650  16.199  0.4595  0.5062  0.4254
 5513TIP3    H137954   3.477   2.599  16.279  2.9430  2.0335  1.1448
 5513TIP3    H237955   3.383   2.697  16.213  0.2998 -0.0723  1.5895
 5514TIP3   OH237956   3.807   1.740   2.682  0.5470  0.2669  0.3745
 5514TIP3    H137957   3.719   1.705   2.700  0.2655  1.0329  0.5190
 5514TIP3    H237958   3.793   1.834   2.672  1.1235  0.2163 -1.1195
 5515TIP3   OH237959   2.998   5.514  10.496 -0.7566 -0.1755 -0.0387
 5515TIP3    H137960   3.057   5.566  10.440  0.7522  0.7664  2.2649
 5515TIP3    H237961   2.922   5.571  10.509 -0.6002  0.0764 -0.2042
 5516TIP3   OH237962   5.200   4.914  16.400 -0.2547  0.3958 -0.3100
 5516TIP3    H137963   5.172   4.921  16.492  0.6041  0.6913 -0.0559
 5516TIP3    H237964   5.119   4.912  16.350 -0.8774 -2.2750  0.5933
 5517TIP3   OH237965   3.593   4.753  12.843 -0.0252  0.0826 -0.2793
 5517TIP3    H137966   3.550   4.834  12.814  1.1462  0.5042 -0.8905
 5517TIP3    H237967   3.574   4.749  12.937 -1.6830  0.0557 -0.5743
 5518TIP3   OH237968   0.488   1.753   5.990 -0.4410 -0.4876 -0.4075
 5518TIP3    H137969   0.449   1.684   6.043 -0.2533 -0.9607 -0.8812
 5518TIP3    H237970   0.485   1.831   6.046  0.5156 -1.1617  0.6058
 5519TIP3   OH237971   0.220   3.744   5.123  0.6666  0.0941  0.4151
 5519TIP3    H137972   0.270   3.686   5.180  0.4350 -0.4541  0.0694
 5519TIP3    H237973   0.151   3.780   5.179 -1.0478 -2.2749 -0.0219
 5520TIP3   OH237974   4.640   1.892  15.616  0.2981  0.5587  0.0873
 5520TIP3    H137975   4.702   1.822  15.638 -1.2836 -1.0012 -0.1856
 5520TIP3    H237976   4.605   1.921  15.701 -1.5981 -1.4770  0.0852
 5521TIP3   OH237977   2.879   2.460   2.382  0.2411  0.2071 -0.2245
 5521TIP3    H137978   2.820   2.403   2.333  0.3555  1.1407 -1.4832
 5521TIP3    H237979   2.956   2.469   2.325  0.9870  0.1828  0.7474
 5522TIP3   OH237980   2.328   4.199  13.725  0.6951  0.0267  0.0943
 5522TIP3    H137981   2.246   4.150  13.734  0.5146  0.1595 -0.6845
 5522TIP3    H237982   2.332   4.220  13.631  3.0677 -2.4938 -0.4833
 5523TIP3   OH237983   2.507   0.841   1.076  0.1900 -0.2385  0.3317
 5523TIP3    H137984   2.436   0.873   1.131  0.7539  0.3402  0.7227
 5523TIP3    H237985   2.464   0.823   0.991 -0.2887  0.7698  0.3462
 5524TIP3   OH237986   4.460   5.421  13.644 -0.3782  0.4208  0.3471
 5524TIP3    H137987   4.416   5.421  13.730  1.0224  0.8119  1.0899
 5524TIP3    H237988   4.534   5.361  13.655 -1.5106 -1.4300 -1.3462
 5525TIP3   OH237989   4.721   5.950  10.534  0.3187 -0.0635 -0.3758
 5525TIP3    H137990   4.658   5.943  10.605  1.2689 -0.2383  0.4807
 5525TIP3    H237991   4.728   5.861  10.499  1.5558 -0.5010  0.8705
 5526TIP3   OH237992   0.160   3.765  12.474  0.4771  0.0886  0.2329
 5526TIP3    H137993   0.246   3.741  12.509  0.1106 -2.0099 -0.1599
 5526TIP3    H237994   0.099   3.745  12.545  0.1892  0.4186  0.0834
 5527TIP3   OH237995   4.245   2.110   2.084 -0.0649 -0.0813  0.2433
 5527TIP3    H137996   4.162   2.146   2.117 -0.5178 -0.4899 -0.4124
 5527TIP3    H237997   4.310   2.134   2.150 -0.5255  1.0891  0.2991
 5528TIP3   OH237998   5.819   5.706  13.665 -0.1182  0.3178 -0.4198
 5528TIP3    H137999   5.793   5.770  13.732 -0.9491 -0.9848  0.5402
 5528TIP3    H238000   5.906   5.677  13.692 -1.2021 -1.6307  1.2865
 5529TIP3   OH238001   1.670   5.544  16.696  0.0567  0.5474  0.2718
 5529TIP3    H138002   1.612   5.603  16.649 -1.3359 -0.6322  0.4268
 5529TIP3    H238003   1.655   5.563  16.789 -2.4316 -1.7578  0.4515
 5530TIP3   OH238004   1.292   3.818   4.743  0.2089  0.0426  0.3299
 5530TIP3    H138005   1.362   3.771   4.697 -0.3711 -0.5431  0.0248
 5530TIP3    H238006   1.289   3.778   4.830  0.7880  0.6200  0.6189
 5531TIP3   OH238007   5.395   1.380   3.989  0.6217  0.2419 -0.2676
 5531TIP3    H138008   5.433   1.317   3.928 -0.6683 -2.3936  1.4045
 5531TIP3    H238009   5.436   1.360   4.073  1.5515  3.0116  0.0309
 5532TIP3   OH238010   2.769   5.425  15.227 -0.4405 -0.5542 -0.1385
 5532TIP3    H138011   2.810   5.351  15.182 -0.7298 -0.6226 -0.2941
 5532TIP3    H238012   2.691   5.387  15.268  0.1647 -0.6303  0.9745
 5533TIP3   OH238013   1.481   0.796  11.571  0.3085 -0.1368 -0.3831
 5533TIP3    H138014   1.438   0.744  11.638  0.4310  0.7221  0.3929
 5533TIP3    H238015   1.507   0.876  11.617 -0.0981  0.7133 -1.5862
 5534TIP3   OH238016   1.642   1.753  16.442 -0.9153  0.2601 -0.1499
 5534TIP3    H138017   1.608   1.836  16.476 -0.5655 -0.3489  1.8483
 5534TIP3    H238018   1.729   1.774  16.408 -0.6460  0.6436  0.7555
 5535TIP3   OH238019   0.699   0.320  16.032 -0.3848  0.4045 -0.1745
 5535TIP3    H138020   0.713   0.244  15.975 -1.4923  1.5436 -2.0417
 5535TIP3    H238021   0.767   0.382  16.006 -0.7697  0.8574 -0.0982
 5536TIP3   OH238022   4.711   2.652  11.828  0.1388 -0.2978 -0.7897
 5536TIP3    H138023   4.674   2.569  11.857 -0.5940  0.4815  0.6030
 5536TIP3    H238024   4.640   2.715  11.838  1.1060  0.7711 -0.3669
 5537TIP3   OH238025   2.041   6.207   6.173  0.6554 -0.2789 -0.0474
 5537TIP3    H138026   2.094   6.131   6.199  2.3681  0.9696  0.2603
 5537TIP3    H238027   2.096   6.283   6.192 -0.5457  1.0138 -1.4190
 5538TIP3   OH238028   0.391   3.424   5.041 -0.0463  0.1539 -0.0830
 5538TIP3    H138029   0.371   3.467   5.124  2.7963 -1.5801  1.6577
 5538TIP3    H238030   0.486   3.435   5.030 -0.4120  1.0515 -3.6183
 5539TIP3   OH238031   2.036   4.287   5.488  0.3248 -0.2010  0.4192
 5539TIP3    H138032   2.124   4.274   5.453  0.0374  1.2954 -0.9716
 5539TIP3    H238033   2.049   4.324   5.575  1.0876  0.8745 -0.1401
 5540TIP3   OH238034   0.767   4.635   5.987 -0.5550  0.4594 -0.0317
 5540TIP3    H138035   0.733   4.612   6.074 -2.7501  0.5313 -0.7940
 5540TIP3    H238036   0.801   4.724   5.998 -2.8814  1.3877  0.3323
 5541TIP3   OH238037   3.739   5.041  11.044 -0.3625  0.5938  0.0775
 5541TIP3    H138038   3.762   5.064  10.954 -0.6691  0.1414 -0.1211
 5541TIP3    H238039   3.801   5.090  11.098  1.5947 -1.1325 -0.4569
 5542TIP3   OH238040   0.909   1.995  15.056 -0.5552  0.4750 -0.5737
 5542TIP3    H138041   0.905   1.971  15.149  1.8930  2.3775  0.1538
 5542TIP3    H238042   0.909   1.912  15.010 -0.5147 -0.5825  1.2267
 5543TIP3   OH238043   4.595   3.801   0.185  0.0323  0.0372  0.0478
 5543TIP3    H138044   4.665   3.797   0.249 -0.2468  0.0382  0.3570
 5543TIP3    H238045   4.556   3.888   0.196 -1.2739 -0.6489  1.2453
 5544TIP3   OH238046   0.046   1.930   2.875 -0.0461  0.3374  0.3982
 5544TIP3    H138047   0.044   2.000   2.810  0.2529 -0.1710 -0.1636
 5544TIP3    H238048  -0.013   1.863   2.840  0.8446 -0.3473  0.1712
 5545TIP3   OH238049   2.672   3.749  12.344  0.4492 -0.7691  0.4924
 5545TIP3    H138050   2.711   3.824  12.389  0.5861  0.0548 -0.9581
 5545TIP3    H238051   2.579   3.771  12.337  0.6455 -0.3036 -0.7494
 5546TIP3   OH238052   0.520   4.549  14.531 -0.2267  0.4414 -0.2247
 5546TIP3    H138053   0.472   4.622  14.569 -0.6320  0.2444 -0.3492
 5546TIP3    H238054   0.565   4.508  14.605 -1.5229 -0.3346  0.1745
 5547TIP3   OH238055   5.918   3.689   5.975 -0.1341  0.2899  0.3110
 5547TIP3    H138056   5.864   3.759   6.013 -0.3318  1.2427 -1.6059
 5547TIP3    H238057   5.991   3.735   5.933  0.2810 -0.7374 -0.1256
 5548TIP3   OH238058   3.266   5.785  11.617 -0.1520  0.3170 -0.1726
 5548TIP3    H138059   3.311   5.710  11.577 -0.6928 -0.9557  1.4701
 5548TIP3    H238060   3.328   5.821  11.680 -1.0618 -0.9878  1.5666
 5549TIP3   OH238061   5.660   0.794  16.020 -0.3688 -0.2046  0.2134
 5549TIP3    H138062   5.723   0.723  16.036 -1.0345 -0.7921  0.3082
 5549TIP3    H238063   5.692   0.867  16.073  0.8187 -0.1314 -0.5602
 5550TIP3   OH238064   4.692   2.906   4.080  0.2263  0.3033 -0.7844
 5550TIP3    H138065   4.629   2.913   4.008 -0.2339  1.5298 -0.2970
 5550TIP3    H238066   4.733   2.821   4.068 -0.3168  0.2031 -2.1078
 5551TIP3   OH238067   1.777   2.053  15.340 -0.4963 -0.2353 -0.5297
 5551TIP3    H138068   1.729   2.073  15.420 -1.0361  1.0478 -1.1420
 5551TIP3    H238069   1.856   2.107  15.345 -0.0575 -0.8732 -0.4316
 5552TIP3   OH238070   2.351   2.445  16.501 -0.1849 -0.7455 -0.0294
 5552TIP3    H138071   2.295   2.440  16.578 -2.1599 -0.4743 -1.3734
 5552TIP3    H238072   2.299   2.405  16.431  0.8980  0.4016 -1.5546
 5553TIP3   OH238073   0.206   5.711   1.733  0.2225 -0.2232 -0.0136
 5553TIP3    H138074   0.234   5.762   1.809 -2.2231 -1.4058  1.8153
 5553TIP3    H238075   0.239   5.623   1.749 -0.3683 -0.4986 -0.2571
 5554TIP3   OH238076   3.980   2.589  13.607 -0.0305 -0.7021  0.0294
 5554TIP3    H138077   3.957   2.682  13.615  0.4443 -0.4863 -0.9242
 5554TIP3    H238078   3.943   2.548  13.685 -0.0591  0.3259  0.5711
 5555TIP3   OH238079   2.944   2.504  16.823 -0.3470  0.4769  0.5876
 5555TIP3    H138080   2.990   2.434  16.870 -0.4952  1.0504  1.6251
 5555TIP3    H238081   2.865   2.518  16.874 -0.4694  1.1860  0.2076
 5556TIP3   OH238082   2.991   6.007   2.858  0.9226 -0.1200  0.2173
 5556TIP3    H138083   2.978   6.091   2.901  1.1484  0.1802 -0.2931
 5556TIP3    H238084   2.903   5.971   2.846  0.6675  0.9332 -1.3135
 5557TIP3   OH238085   1.301   0.966  11.425 -0.5467 -0.4553 -0.4629
 5557TIP3    H138086   1.346   0.898  11.475 -1.7801 -0.4297  0.7582
 5557TIP3    H238087   1.233   0.998  11.485 -1.8626 -0.1668 -2.0386
 5558TIP3   OH238088   5.395   1.549  16.713 -0.1721  0.6876 -0.1091
 5558TIP3    H138089   5.479   1.542  16.667 -0.6430 -0.3570 -0.8777
 5558TIP3    H238090   5.330   1.552  16.642 -0.8556  0.0122  0.4741
 5559TIP3   OH238091   2.858   3.186  13.042 -0.1944 -0.4106  0.2793
 5559TIP3    H138092   2.831   3.275  13.064 -0.0314 -0.2671 -0.0778
 5559TIP3    H238093   2.827   3.174  12.952 -0.6090 -0.8781  0.4802
 5560TIP3   OH238094   0.567   4.004   4.736 -0.0513  0.4987 -0.2651
 5560TIP3    H138095   0.600   4.053   4.812 -1.4568 -1.5624  1.8368
 5560TIP3    H238096   0.507   4.065   4.693 -0.4448  1.2538  1.2599
 5561TIP3   OH238097   4.520   0.070   6.148 -0.0184 -0.1640 -0.3434
 5561TIP3    H138098   4.598   0.015   6.142  0.2394 -0.1727  1.9518
 5561TIP3    H238099   4.544   0.152   6.105  0.9254 -0.4987 -0.4682
 5562TIP3   OH238100   1.325   6.257   4.758  0.5200 -0.5081 -0.0392
 5562TIP3    H138101   1.305   6.174   4.801  0.0546  0.1779  1.1049
 5562TIP3    H238102   1.257   6.268   4.693  0.3331 -0.8162  0.1030
 5563TIP3   OH238103   4.702   1.201   1.600  0.6416  0.3598 -0.0616
 5563TIP3    H138104   4.718   1.149   1.521 -1.2501  0.0501 -0.2706
 5563TIP3    H238105   4.689   1.137   1.669 -1.5444  0.4981 -0.2865
 5564TIP3   OH238106   2.972   5.119  13.866  0.2296 -0.4743  0.2177
 5564TIP3    H138107   2.953   5.190  13.805 -0.6525 -1.3555 -0.5812
 5564TIP3    H238108   3.012   5.162  13.941  1.6910  0.6158 -1.1078
 5565TIP3   OH238109   1.516   0.016  15.462 -0.1805 -0.1187  0.3718
 5565TIP3    H138110   1.604   0.023  15.425 -0.4428  0.3784 -0.1752
 5565TIP3    H238111   1.526   0.046  15.553  0.5218 -1.6208  0.8315
 5566TIP3   OH238112   5.889   2.511   5.046 -0.1519  0.0013 -0.0083
 5566TIP3    H138113   5.868   2.602   5.070 -0.1440  0.0792 -0.2909
 5566TIP3    H238114   5.815   2.460   5.078 -0.3260  0.1549 -0.1639
 5567TIP3   OH238115   6.391   1.253  13.899 -0.4908 -0.3321  0.1537
 5567TIP3    H138116   6.462   1.213  13.950  1.0720  0.0426 -1.6023
 5567TIP3    H238117   6.403   1.347  13.911 -0.3956 -0.2551 -0.4996
 5568TIP3   OH238118   0.594   6.632   3.641  0.2376  0.6695  0.0904
 5568TIP3    H138119   0.599   6.562   3.576  0.7271  0.6280  0.1695
 5568TIP3    H238120   0.511   6.676   3.622 -0.2377 -0.1396  0.2596
 5569TIP3   OH238121   4.476   3.369  16.855  0.1718 -0.2952  0.0954
 5569TIP3    H138122   4.385   3.395  16.842  0.2945 -0.1165 -0.3844
 5569TIP3    H238123   4.525   3.419  16.791  0.5681 -0.6691  0.1054
 5570TIP3   OH238124   4.163   6.576   3.982  0.4167  0.1571 -0.6064
 5570TIP3    H138125   4.067   6.578   3.993  0.1764 -0.4088 -2.3793
 5570TIP3    H238126   4.192   6.661   4.017 -0.7847  0.5352 -0.4675
 5571TIP3   OH238127   2.048   6.327  11.286  0.4080 -0.0160 -0.5559
 5571TIP3    H138128   2.038   6.318  11.381  0.1341 -2.2174 -0.7504
 5571TIP3    H238129   1.967   6.292  11.249 -0.5745  3.0522 -1.6185
 5572TIP3   OH238130   0.760   1.751   0.464 -0.0128  0.5474 -0.2637
 5572TIP3    H138131   0.698   1.748   0.391 -0.3918  3.1312 -0.1609
 5572TIP3    H238132   0.733   1.827   0.516  2.0422  0.5830  0.8958
 5573TIP3   OH238133   2.105   2.793   5.058 -0.3105  0.4459 -0.2211
 5573TIP3    H138134   2.149   2.712   5.083 -0.4819  0.3827 -0.1237
 5573TIP3    H238135   2.020   2.790   5.103 -0.0029  1.0459  0.4195
 5574TIP3   OH238136   2.917   6.396   2.398  0.6294 -0.1934  0.2251
 5574TIP3    H138137   2.934   6.316   2.447 -0.4093  0.4883  1.7970
 5574TIP3    H238138   2.971   6.388   2.319  1.2782 -1.9846  0.7948
 5575TIP3   OH238139   0.985   1.508  11.976  0.2979  0.1146 -0.1801
 5575TIP3    H138140   1.074   1.492  11.947  0.5989  0.0308  0.7822
 5575TIP3    H238141   0.932   1.494  11.897  0.9063 -1.8577 -0.2872
 5576TIP3   OH238142   6.330   4.911  14.753  0.4390 -0.0416  0.2823
 5576TIP3    H138143   6.386   4.871  14.687  1.0568  0.2645  0.6082
 5576TIP3    H238144   6.380   4.903  14.835  0.4507  1.1318  0.4068
 5577TIP3   OH238145   5.135   6.704  15.236  0.0171 -0.2174  0.3186
 5577TIP3    H138146   5.045   6.698  15.268  0.5896 -1.8572  1.7910
 5577TIP3    H238147   5.189   6.697  15.314  1.4486  0.5983 -0.5478
 5578TIP3   OH238148   1.174   1.851  16.784  0.2900  1.0499 -0.0098
 5578TIP3    H138149   1.190   1.873  16.876  0.2597  0.5518  0.1194
 5578TIP3    H238150   1.102   1.788  16.787  1.3291 -0.1823 -0.2494
 5579TIP3   OH238151   2.439   5.896   3.448  0.1442 -0.0617 -0.5658
 5579TIP3    H138152   2.514   5.936   3.404 -0.3132 -0.5493 -1.8480
 5579TIP3    H238153   2.364   5.948   3.420  0.0353  0.8084  1.2045
 5580TIP3   OH238154   3.075   4.429  10.716  0.2494 -0.0357  0.1330
 5580TIP3    H138155   2.984   4.407  10.733  0.2431 -0.3809 -0.3353
 5580TIP3    H238156   3.082   4.435  10.620  0.6335  0.3584  0.1773
 5581TIP3   OH238157   3.380   4.070  15.579 -0.3826  0.3600  0.3795
 5581TIP3    H138158   3.393   4.154  15.623  1.4260 -0.8626  2.3249
 5581TIP3    H238159   3.403   4.088  15.488 -0.1549  1.9936  0.7253
 5582TIP3   OH238160   1.671   1.366  15.525  0.2811 -0.3856  1.2468
 5582TIP3    H138161   1.616   1.370  15.448  0.1350  1.6118  1.4028
 5582TIP3    H238162   1.755   1.402  15.497  0.7853 -1.2598  1.5917
 5583TIP3   OH238163   3.056   1.460   2.429 -0.3523  0.2627  0.7517
 5583TIP3    H138164   3.093   1.512   2.501 -1.3972 -2.3004  3.3808
 5583TIP3    H238165   2.981   1.511   2.398 -0.5723  0.9554  2.3124
 5584TIP3   OH238166   5.576   6.634   1.325  0.7247  0.1320 -0.1395
 5584TIP3    H138167   5.627   6.561   1.290  1.4704 -0.6995  2.4317
 5584TIP3    H238168   5.497   6.593   1.361  0.8524  0.6487  0.7612
 5585TIP3   OH238169   6.068   4.388   1.492 -0.6170  0.3640 -0.1428
 5585TIP3    H138170   6.039   4.330   1.562  0.5163 -1.4957 -1.1154
 5585TIP3    H238171   6.028   4.351   1.413  1.4404 -0.1409 -1.0102
 5586TIP3   OH238172   1.211   2.997   0.525  0.0830  0.6377  0.2570
 5586TIP3    H138173   1.239   2.976   0.436 -2.1264  0.8315 -0.5320
 5586TIP3    H238174   1.181   2.914   0.561  0.7790  0.6007  0.7821
 5587TIP3   OH238175   4.124   2.218   5.162 -0.0661 -0.3390 -0.6713
 5587TIP3    H138176   4.204   2.261   5.133  0.0046 -0.6285 -0.9116
 5587TIP3    H238177   4.154   2.144   5.215 -0.1729 -0.4922 -0.8251
 5588TIP3   OH238178   3.956   6.467  12.048 -0.3669  0.3194  0.0851
 5588TIP3    H138179   3.958   6.409  12.123  1.0515 -0.4886 -0.5480
 5588TIP3    H238180   4.001   6.547  12.076  0.4857 -0.1235 -0.0095
 5589TIP3   OH238181   3.382   3.725   3.424 -0.3339  0.2805 -0.3209
 5589TIP3    H138182   3.432   3.720   3.343  1.7477 -0.7437  0.9552
 5589TIP3    H238183   3.400   3.643   3.469 -4.1423 -0.7117 -0.2544
 5590TIP3   OH238184   2.836   3.099   1.567 -0.1742  0.2154  0.4979
 5590TIP3    H138185   2.780   3.114   1.643 -0.6103 -1.1792  0.4934
 5590TIP3    H238186   2.793   3.146   1.495 -0.6659  0.1847  0.7647
 5591TIP3   OH238187   3.275   0.976  14.333  0.6441  0.0307  0.1065
 5591TIP3    H138188   3.285   1.064  14.297  0.2254  0.8022  1.7654
 5591TIP3    H238189   3.253   0.921  14.258 -1.3178  1.7607 -0.6649
 5592TIP3   OH238190   5.810   3.240   3.910 -0.5099  0.0678  0.1803
 5592TIP3    H138191   5.841   3.322   3.949 -1.3637  0.7325 -0.4945
 5592TIP3    H238192   5.888   3.203   3.867 -0.2300  0.7743  0.0724
 5593TIP3   OH238193   5.232   4.897  11.687  0.3090 -0.3827  0.4847
 5593TIP3    H138194   5.162   4.871  11.627  0.9614  0.1917 -0.5521
 5593TIP3    H238195   5.217   4.844  11.766 -1.1618 -0.4138  0.2137
 5594TIP3   OH238196   0.806   6.134  16.513 -0.1480  0.6035 -0.2895
 5594TIP3    H138197   0.870   6.086  16.461 -0.3028  0.8251 -0.6844
 5594TIP3    H238198   0.856   6.204  16.555  0.7279 -1.6330  2.7167
 5595TIP3   OH238199   2.383   2.245  12.877 -0.0757 -0.3111  0.1773
 5595TIP3    H138200   2.356   2.188  12.949 -0.7456 -0.1967  0.0219
 5595TIP3    H238201   2.329   2.217  12.803  2.0929 -1.8753 -0.9074
 5596TIP3   OH238202   0.370   6.585   3.277  0.4063 -0.6833 -0.2723
 5596TIP3    H138203   0.277   6.597   3.257  0.7125  1.3706 -0.6978
 5596TIP3    H238204   0.414   6.594   3.192  1.1562  1.0145  0.2426
 5597TIP3   OH238205   1.489   1.142   4.555 -0.2016 -0.2810 -0.5338
 5597TIP3    H138206   1.569   1.173   4.513 -0.0404  0.0717  0.0142
 5597TIP3    H238207   1.475   1.054   4.520 -1.6256  0.9834 -3.4617
 5598TIP3   OH238208   3.772   0.865  14.526  0.1649  0.1105 -0.6289
 5598TIP3    H138209   3.771   0.918  14.606 -1.3828 -1.2974  0.3651
 5598TIP3    H238210   3.692   0.890  14.480 -2.4028 -3.4105  1.4346
 5599TIP3   OH238211   0.354   5.652  15.284 -0.3070  0.0041 -0.2180
 5599TIP3    H138212   0.411   5.721  15.251 -0.0317 -0.4392 -0.6850
 5599TIP3    H238213   0.318   5.611  15.206  0.6742 -1.3322 -0.0038
 5600TIP3   OH238214   6.239   0.108  13.835  0.3829 -0.0671  0.3804
 5600TIP3    H138215   6.196   0.070  13.912 -2.3088  0.6090 -0.6447
 5600TIP3    H238216   6.316   0.152  13.870 -0.8737  0.4433  2.7815
 5601TIP3   OH238217   0.258   4.758   1.149  0.0364  0.5748  0.4747
 5601TIP3    H138218   0.166   4.737   1.135  0.3148 -1.0245  0.8290
 5601TIP3    H238219   0.276   4.728   1.238  1.3053 -0.7630 -0.1857
 5602TIP3   OH238220   1.602   6.159   1.326  0.1431 -0.3008 -0.3668
 5602TIP3    H138221   1.689   6.128   1.353  0.3638  0.6050  0.0030
 5602TIP3    H238222   1.547   6.081   1.330  0.9088 -0.8629 -0.4851
 5603TIP3   OH238223   4.988   1.248   3.095 -0.1585 -0.0901 -0.1045
 5603TIP3    H138224   4.955   1.307   3.028 -2.2061  0.8606  1.6010
 5603TIP3    H238225   4.959   1.161   3.067  0.6031  0.0169 -1.3099
 5604TIP3   OH238226   0.018   1.471   2.091 -0.7477  0.7110 -0.2692
 5604TIP3    H138227   0.111   1.492   2.092 -1.0525  2.2753 -1.2540
 5604TIP3    H238228  -0.003   1.455   1.999 -1.4312  0.2583 -0.0472
 5605TIP3   OH238229   0.781   5.033   1.016 -0.2293 -0.2230  0.4544
 5605TIP3    H138230   0.754   5.064   0.929  1.9414  1.4158  0.2724
 5605TIP3    H238231   0.804   5.113   1.063  0.6771 -1.2350  1.7966
 5606TIP3   OH238232   6.687   1.672   0.784  0.5848 -0.4518 -0.3469
 5606TIP3    H138233   6.639   1.739   0.734 -3.5199 -2.7249  0.0397
 5606TIP3    H238234   6.703   1.712   0.869  0.7922  0.9217 -0.9963
 5607TIP3   OH238235   0.064   2.146  11.683 -0.4759  0.4282  0.0861
 5607TIP3    H138236  -0.015   2.186  11.647  0.6087  0.3111 -2.6448
 5607TIP3    H238237   0.121   2.221  11.705 -1.7657  0.5802  3.4066
 5608TIP3   OH238238   6.592   3.457   0.726  0.4722 -0.0394 -0.5675
 5608TIP3    H138239   6.574   3.408   0.806  1.5036 -0.9490 -0.8623
 5608TIP3    H238240   6.506   3.477   0.689  0.0178 -0.8913  0.0132
 5609TIP3   OH238241   3.375   2.822  14.954  0.0525  0.3142  0.5743
 5609TIP3    H138242   3.327   2.845  15.034  0.0389  0.6292  0.4783
 5609TIP3    H238243   3.467   2.822  14.981  0.0335  0.2210  0.6382
 5610TIP3   OH238244   1.985   2.396   5.964  0.4337  0.2808  0.2342
 5610TIP3    H138245   1.955   2.306   5.951  1.4328 -0.0150 -0.1574
 5610TIP3    H238246   1.905   2.446   5.981 -0.6252 -0.0088 -3.1395
 5611TIP3   OH238247   6.431   2.790   4.815 -0.1647  0.3884  0.0109
 5611TIP3    H138248   6.464   2.865   4.865  1.9817  0.2835 -1.1501
 5611TIP3    H238249   6.509   2.743   4.787 -1.3271 -0.2476 -2.3964
 5612TIP3   OH238250   2.665   0.929  11.945  0.4777  0.2572 -0.4502
 5612TIP3    H138251   2.634   0.876  12.019 -0.0149  0.3860 -0.5588
 5612TIP3    H238252   2.719   0.869  11.894 -0.8639 -0.4527 -1.1088
 5613TIP3   OH238253   5.113   1.636   1.082 -0.4550 -0.3511  0.1134
 5613TIP3    H138254   5.148   1.562   1.033  1.0250  0.2553  0.2046
 5613TIP3    H238255   5.190   1.688   1.104 -1.4389  1.0877  0.2600
 5614TIP3   OH238256   5.383   5.187   5.688  0.0097 -0.0762  0.2678
 5614TIP3    H138257   5.304   5.153   5.729 -1.7392  0.6466 -2.2336
 5614TIP3    H238258   5.453   5.167   5.750 -1.8166 -2.4625  1.7464
 5615TIP3   OH238259   3.916   1.603   4.980 -0.1373  0.5798  0.3813
 5615TIP3    H138260   4.011   1.617   4.983  0.1830 -1.1024 -0.3440
 5615TIP3    H238261   3.883   1.675   4.926  0.5821  1.7455  1.4660
 5616TIP3   OH238262   1.639   1.681   1.958 -0.0771 -0.1578  0.3951
 5616TIP3    H138263   1.670   1.741   1.891 -0.7465  1.2436  1.3049
 5616TIP3    H238264   1.677   1.713   2.040 -1.4108 -0.2391  1.0690
 5617TIP3   OH238265   4.724   6.644   4.299  0.7422 -0.6706 -0.3759
 5617TIP3    H138266   4.773   6.653   4.381 -0.3225  1.3703  0.0863
 5617TIP3    H238267   4.792   6.632   4.232  1.6512 -1.7204  0.6852
 5618TIP3   OH238268   1.648   3.308   2.160 -0.3837 -0.4211  0.5140
 5618TIP3    H138269   1.621   3.292   2.250 -1.1535 -0.8412  0.2219
 5618TIP3    H238270   1.603   3.389   2.135  0.1198 -0.1057  0.6236
 5619TIP3   OH238271   5.013   5.232  16.453 -0.0030 -0.1210  0.2018
 5619TIP3    H138272   5.059   5.176  16.516 -0.3074 -0.0954  0.4528
 5619TIP3    H238273   5.032   5.321  16.482 -0.6208 -0.1160  0.6152
 5620TIP3   OH238274   3.218   0.758   1.230  0.0559 -0.0765 -0.3188
 5620TIP3    H138275   3.285   0.710   1.277  0.9330 -0.0839 -1.5124
 5620TIP3    H238276   3.243   0.749   1.138 -1.5948 -0.0866 -0.7947
 5621TIP3   OH238277   1.606   3.747  11.518  0.6538 -0.0543  0.2855
 5621TIP3    H138278   1.681   3.799  11.490  1.7253 -1.0250  1.2334
 5621TIP3    H238279   1.612   3.667  11.465 -2.0273  1.3967 -2.5169
 5622TIP3   OH238280   5.529   4.628   0.555 -0.1386 -0.0343  0.7943
 5622TIP3    H138281   5.460   4.623   0.489 -0.9174 -2.7236  1.6780
 5622TIP3    H238282   5.540   4.722   0.571 -0.8280  0.6627 -2.1552
 5623TIP3   OH238283   0.952   0.884   1.841  0.1834  0.3239 -0.0436
 5623TIP3    H138284   0.944   0.842   1.756  1.2397 -1.4699  0.6810
 5623TIP3    H238285   0.871   0.861   1.887  0.6773 -0.8525  0.2841
 5624TIP3   OH238286   4.626   1.546  13.202 -0.0839 -0.1934 -0.1381
 5624TIP3    H138287   4.630   1.536  13.107 -0.7231  0.7179 -0.2802
 5624TIP3    H238288   4.660   1.634  13.218 -0.1307 -0.2798  0.4587
 5625TIP3   OH238289   2.499   6.300   4.558  0.4819  0.2883 -1.0835
 5625TIP3    H138290   2.539   6.385   4.543  0.0768  0.6134 -0.3840
 5625TIP3    H238291   2.468   6.304   4.648  0.8615 -0.7709 -0.8904
 5626TIP3   OH238292   2.629   3.314   0.139 -0.4065 -0.1504 -0.0436
 5626TIP3    H138293   2.631   3.234   0.088 -1.3912  1.0917 -2.1466
 5626TIP3    H238294   2.716   3.319   0.179  0.5930 -0.9369 -2.0067
 5627TIP3   OH238295   2.735   4.620   4.907  0.0569 -0.0574 -0.1100
 5627TIP3    H138296   2.766   4.545   4.957 -0.3212  0.6082  1.1686
 5627TIP3    H238297   2.657   4.649   4.954 -0.0010  0.9166 -0.7868
 5628TIP3   OH238298   3.953   3.311  15.142 -0.3378  0.6840 -0.8041
 5628TIP3    H138299   3.893   3.324  15.069  0.1050  2.2199 -0.9479
 5628TIP3    H238300   3.897   3.288  15.216 -0.9256  0.4024 -1.3307
 5629TIP3   OH238301   4.149   5.774   3.662 -0.2466  0.1724  0.0142
 5629TIP3    H138302   4.082   5.736   3.719 -0.2877  0.6459  0.2821
 5629TIP3    H238303   4.209   5.818   3.722 -1.2181  2.1750 -0.3903
 5630TIP3   OH238304   1.449   6.203   2.757  0.0409  0.3634  0.8096
 5630TIP3    H138305   1.402   6.121   2.772 -0.3662  0.3673 -0.3416
 5630TIP3    H238306   1.474   6.233   2.845 -0.9341 -0.3270  1.3386
 5631TIP3   OH238307   4.685   4.679  14.498  0.3832  0.7518  0.5241
 5631TIP3    H138308   4.669   4.766  14.536 -0.7008  1.3177 -1.1121
 5631TIP3    H238309   4.603   4.658  14.452  1.1123 -0.5359 -0.2249
 5632TIP3   OH238310   1.750   2.252   3.957  0.2895 -0.1601 -0.4737
 5632TIP3    H138311   1.822   2.308   3.987  0.1068 -0.6841  1.0618
 5632TIP3    H238312   1.750   2.178   4.019 -0.4901 -1.0330 -1.4778
 5633TIP3   OH238313   0.234   5.322  16.026 -0.3642 -0.3168  0.1930
 5633TIP3    H138314   0.276   5.323  15.940  0.0848 -1.9658  0.3465
 5633TIP3    H238315   0.204   5.412  16.040  1.1396  0.4033 -0.9110
 5634TIP3   OH238316   6.154   4.026  13.556  0.3605  0.4467 -0.1498
 5634TIP3    H138317   6.158   4.117  13.586 -0.0701 -0.1472  1.8925
 5634TIP3    H238318   6.186   3.975  13.631  0.8044 -1.0850 -1.3230
 5635TIP3   OH238319   5.844   0.432  15.551  0.5185  0.4531 -0.3036
 5635TIP3    H138320   5.861   0.498  15.484  1.1778  0.0609 -0.5240
 5635TIP3    H238321   5.906   0.362  15.533 -2.2082 -1.7636 -2.1056
 5636TIP3   OH238322   2.941   5.293   5.606  0.2985  0.1040 -0.7660
 5636TIP3    H138323   2.957   5.375   5.652  0.0552 -0.4481  0.3366
 5636TIP3    H238324   2.852   5.269   5.631  0.4428 -0.5965 -0.9155
 5637TIP3   OH238325   1.063   3.698  17.065  0.3223 -0.1452 -0.5900
 5637TIP3    H138326   0.980   3.743  17.081  0.3469 -0.8841  2.0381
 5637TIP3    H238327   1.041   3.605  17.066  0.7689 -0.3253 -2.8571
 5638TIP3   OH238328   0.059   0.853  12.240  0.0577 -0.1635  0.0715
 5638TIP3    H138329   0.143   0.891  12.214  1.8859 -0.5145  4.5141
 5638TIP3    H238330   0.079   0.760  12.255 -0.9855 -0.2105  1.3912
 5639TIP3   OH238331   6.556   1.063  11.872 -0.3068 -0.0161 -0.1516
 5639TIP3    H138332   6.552   1.040  11.780 -0.5236  0.8989 -0.3795
 5639TIP3    H238333   6.643   1.035  11.900 -0.5918 -1.1841 -0.3720
 5640TIP3   OH238334   5.427   2.672   0.393 -0.4430  0.3968 -0.2201
 5640TIP3    H138335   5.383   2.589   0.374  0.5214  0.0369 -0.9604
 5640TIP3    H238336   5.361   2.738   0.370 -2.2491 -0.1090  2.9685
 5641TIP3   OH238337   6.345   0.707   3.015 -0.2810  0.4521  0.4315
 5641TIP3    H138338   6.253   0.680   3.021 -0.3714  0.8406  0.8161
 5641TIP3    H238339   6.344   0.801   3.032 -0.1713  1.0932 -2.4774
 5642TIP3   OH238340   5.529   6.316   2.074  0.1658 -0.1483 -0.4687
 5642TIP3    H138341   5.486   6.276   1.998  0.1807 -0.2781 -0.4087
 5642TIP3    H238342   5.617   6.278   2.074  0.2727  0.0950 -0.5739
 5643TIP3   OH238343   1.602   2.708   3.004  0.1400  0.0892  0.6928
 5643TIP3    H138344   1.691   2.741   2.993  0.3898 -0.6361  0.4986
 5643TIP3    H238345   1.548   2.767   2.952  0.6593 -0.1702 -0.1473
 5644TIP3   OH238346   6.101   1.815   4.374 -0.5767  0.2529 -0.5075
 5644TIP3    H138347   6.016   1.786   4.406 -0.0493  0.7001  1.4317
 5644TIP3    H238348   6.083   1.901   4.335 -0.8961  0.7398  0.6695
 5645TIP3   OH238349   4.127   0.128   3.229  0.1592 -0.7438 -0.2576
 5645TIP3    H138350   4.220   0.104   3.230  0.1386 -0.8348  0.6227
 5645TIP3    H238351   4.111   0.163   3.316 -0.5356 -0.3205 -0.5477
 5646TIP3   OH238352   0.887   3.741   1.454  0.2623  0.1684 -0.1567
 5646TIP3    H138353   0.836   3.781   1.525  0.6034  1.0979 -0.4375
 5646TIP3    H238354   0.881   3.647   1.472 -0.6558  0.3219  0.4240
 5647TIP3   OH238355   3.446   2.484   2.838  0.0500 -0.4600  0.4225
 5647TIP3    H138356   3.448   2.388   2.836 -1.2734 -0.5465  1.5754
 5647TIP3    H238357   3.354   2.506   2.851 -0.1880  1.1146 -2.9734
 5648TIP3   OH238358   0.291   1.194  12.621 -0.2056  0.3277  0.1899
 5648TIP3    H138359   0.214   1.188  12.678  0.2457 -1.1217  0.6893
 5648TIP3    H238360   0.297   1.287  12.600 -2.7829  0.3540 -0.8566
 5649TIP3   OH238361   5.546   0.352  14.509 -0.0461 -0.0732  0.1551
 5649TIP3    H138362   5.471   0.367  14.452 -1.0088 -0.2477  1.3289
 5649TIP3    H238363   5.608   0.304  14.455 -0.6745  0.2630 -0.9090
 5650TIP3   OH238364   2.671   4.354  10.604 -0.0778  0.6041 -0.0565
 5650TIP3    H138365   2.658   4.260  10.609  0.5571  0.5672  1.1267
 5650TIP3    H238366   2.741   4.373  10.667 -1.0323  2.0042  0.6510
 5651TIP3   OH238367   1.522   2.264  12.667  0.2639  0.9069 -0.0169
 5651TIP3    H138368   1.469   2.273  12.747  2.3617 -1.4277  1.7979
 5651TIP3    H238369   1.600   2.316  12.685  0.8844  0.1159 -0.3962
 5652TIP3   OH238370   5.585   6.689  11.653  0.4038  0.5256 -0.2410
 5652TIP3    H138371   5.652   6.633  11.614  1.0881  1.4080 -0.3732
 5652TIP3    H238372   5.521   6.703  11.583  1.8766  2.5064 -1.2850
 5653TIP3   OH238373   1.617   5.659  12.268 -0.4204  0.4477 -0.5291
 5653TIP3    H138374   1.638   5.711  12.191 -2.3270  1.2639 -0.5692
 5653TIP3    H238375   1.666   5.699  12.339 -0.8047  1.4767 -0.8192
 5654TIP3   OH238376   2.501   0.910  15.514  0.4422  0.2119  0.6041
 5654TIP3    H138377   2.510   0.911  15.609 -0.4371 -3.7221  0.9215
 5654TIP3    H238378   2.420   0.958  15.497  0.7858  1.2488  1.7646
 5655TIP3   OH238379   1.235   3.253   4.681 -0.0289  0.5038 -0.0345
 5655TIP3    H138380   1.227   3.293   4.767  1.6330 -0.8780  0.8236
 5655TIP3    H238381   1.321   3.281   4.649 -0.7275  1.1954 -1.3595
 5656TIP3   OH238382   4.839   4.898   1.938  0.4899  0.4350 -0.4389
 5656TIP3    H138383   4.855   4.839   2.012  1.7582  0.3491 -0.7638
 5656TIP3    H238384   4.804   4.841   1.869 -0.6764  0.5116  0.0613
 5657TIP3   OH238385   4.882   5.466  16.014  0.8705 -0.1796 -0.1385
 5657TIP3    H138386   4.948   5.397  16.027  0.3172 -0.8686 -0.9117
 5657TIP3    H238387   4.933   5.543  15.988  1.5133 -0.2293  0.9141
 5658TIP3   OH238388   3.930   2.571   2.736 -0.4416  0.3316  0.1730
 5658TIP3    H138389   3.940   2.505   2.805 -0.4036  0.3986  0.2314
 5658TIP3    H238390   3.893   2.647   2.781 -1.5389 -0.0248 -0.1017
 5659TIP3   OH238391   4.696   0.767   2.543  0.2115 -0.3022 -0.5141
 5659TIP3    H138392   4.621   0.708   2.550 -2.0118  2.2292 -1.6342
 5659TIP3    H238393   4.766   0.712   2.505 -0.8705 -2.8197  0.8691
 5660TIP3   OH238394   4.911   4.143  11.657  0.1685  0.0960  0.5060
 5660TIP3    H138395   4.935   4.200  11.731 -0.4104  0.5555  0.3432
 5660TIP3    H238396   4.971   4.169  11.587  1.6345 -1.2544  1.1950
 5661TIP3   OH238397   5.855   1.557  12.839 -0.7368  0.6723  0.0795
 5661TIP3    H138398   5.928   1.532  12.783  0.5565  1.7135  1.2090
 5661TIP3    H238399   5.895   1.573  12.925 -1.2563  6.1901 -0.3252
 5662TIP3   OH238400   3.916   0.724   5.080  0.2297 -0.1095  0.3363
 5662TIP3    H138401   3.932   0.810   5.120 -2.4738  0.6888 -0.1020
 5662TIP3    H238402   3.972   0.664   5.129  2.7483  1.9347  0.2126
 5663TIP3   OH238403   0.400   2.755  12.327  0.1213  0.3944 -0.2115
 5663TIP3    H138404   0.468   2.691  12.350 -0.9449 -1.1500 -1.2259
 5663TIP3    H238405   0.319   2.717  12.361 -0.0885  3.2589  3.0249
 5664TIP3   OH238406   2.266   4.435   3.203  0.2934 -0.2316 -0.2222
 5664TIP3    H138407   2.180   4.471   3.227  0.9990  1.0592  0.4849
 5664TIP3    H238408   2.259   4.341   3.223 -0.4454  0.1191  1.3667
 5665TIP3   OH238409   5.702   4.363   0.374 -0.2419 -0.2866  0.0136
 5665TIP3    H138410   5.698   4.456   0.396  3.9829  0.3513 -1.0361
 5665TIP3    H238411   5.722   4.319   0.456 -1.3108 -0.2014  0.3381
 5666TIP3   OH238412   0.802   4.395   3.433 -0.4583  0.4449  0.0865
 5666TIP3    H138413   0.788   4.302   3.450 -0.8665  0.4529 -0.2031
 5666TIP3    H238414   0.749   4.414   3.356 -1.4555  1.2205  0.9445
 5667TIP3   OH238415   4.699   0.821   0.482  0.5014 -0.4022 -0.4372
 5667TIP3    H138416   4.793   0.839   0.480  0.4335  0.0123  0.1348
 5667TIP3    H238417   4.679   0.804   0.574  0.1562 -1.2498 -0.6606
 5668TIP3   OH238418   2.485   0.758   5.447 -0.3555  0.3176 -0.1962
 5668TIP3    H138419   2.498   0.704   5.525 -0.3465  1.1975  0.4320
 5668TIP3    H238420   2.560   0.818   5.447 -0.5612  0.5808 -0.6674
 5669TIP3   OH238421   2.440   1.098  11.187 -0.5356 -0.2706  0.0608
 5669TIP3    H138422   2.447   1.151  11.107 -0.4734 -1.8095 -0.9856
 5669TIP3    H238423   2.346   1.096  11.206 -0.6298 -0.5936 -0.4461
 5670TIP3   OH238424   3.637   6.530  10.785 -0.0452 -0.2430 -0.1573
 5670TIP3    H138425   3.544   6.534  10.761 -0.2808 -3.3514 -0.2396
 5670TIP3    H238426   3.683   6.556  10.706 -0.7558  2.5373  0.2357
 5671TIP3   OH238427   1.324   5.730   6.304 -0.1754 -0.5010 -0.0732
 5671TIP3    H138428   1.322   5.806   6.363  2.9140 -1.1099  0.9701
 5671TIP3    H238429   1.414   5.726   6.273 -0.0625 -4.0922  0.3975
 5672TIP3   OH238430   2.907   5.368   0.620 -0.0610 -0.1782 -0.4562
 5672TIP3    H138431   2.891   5.392   0.529  1.2135  1.1381 -0.3712
 5672TIP3    H238432   2.891   5.449   0.669  2.9263  0.2442  0.0254
 5673TIP3   OH238433   5.024   0.405   5.164  0.0269 -0.7747 -0.0742
 5673TIP3    H138434   4.936   0.440   5.153 -0.3284 -1.3912  0.6732
 5673TIP3    H238435   5.018   0.315   5.132  0.2082 -1.0263  0.5861
 5674TIP3   OH238436   6.417   5.307  14.553  0.0631  0.0890 -0.6572
 5674TIP3    H138437   6.408   5.212  14.547 -0.6520  0.0019  1.0793
 5674TIP3    H238438   6.506   5.325  14.521  0.3788 -1.2197 -0.5708
 5675TIP3   OH238439   4.466   4.294   1.394  0.3131  0.4974  0.6253
 5675TIP3    H138440   4.465   4.199   1.380 -0.5448  0.5584  0.1776
 5675TIP3    H238441   4.432   4.331   1.312  3.6833  1.4199 -0.5073
 5676TIP3   OH238442   3.564   0.138   4.405  0.2108 -0.3243 -0.3976
 5676TIP3    H138443   3.472   0.147   4.429  0.1971 -1.0647 -0.1394
 5676TIP3    H238444   3.592   0.058   4.449  0.5424 -0.9814 -1.7549
 5677TIP3   OH238445   5.222   4.312  16.615 -1.0411  0.1959 -0.3508
 5677TIP3    H138446   5.317   4.315  16.606 -1.1268  0.6705 -1.3315
 5677TIP3    H238447   5.191   4.380  16.554 -2.0564 -0.8407 -1.0304
 5678TIP3   OH238448   5.007   5.134  11.750 -0.3931  0.4680 -0.5275
 5678TIP3    H138449   5.015   5.216  11.798 -1.1967  1.1089 -1.4313
 5678TIP3    H238450   5.086   5.131  11.695 -0.3198  0.6001 -0.4297
 5679TIP3   OH238451   0.270   5.431   1.764 -0.2175 -0.3170 -0.2452
 5679TIP3    H138452   0.248   5.364   1.700  1.5071 -0.5721 -0.6272
 5679TIP3    H238453   0.214   5.412   1.840  0.6402 -2.5730 -0.1154
 5680TIP3   OH238454   0.712   1.556  14.850  0.4101  0.2930  0.2394
 5680TIP3    H138455   0.637   1.500  14.866 -0.2746  0.8186 -1.0169
 5680TIP3    H238456   0.694   1.635  14.902 -1.4163  1.6592 -2.2308
 5681TIP3   OH238457   2.627   0.976  15.263 -0.5786 -0.0132  0.2102
 5681TIP3    H138458   2.557   1.006  15.206 -1.4087 -2.1866 -0.0155
 5681TIP3    H238459   2.583   0.924  15.330  0.1470  3.6736  3.9449
 5682TIP3   OH238460   5.547   2.582  12.697  0.1723  0.1824  0.4109
 5682TIP3    H138461   5.615   2.568  12.762 -1.5840 -0.4040  2.2293
 5682TIP3    H238462   5.476   2.625  12.745 -1.7163 -1.4509 -0.7646
 5683TIP3   OH238463   1.297   3.220  15.658 -0.5723 -0.0143  0.2007
 5683TIP3    H138464   1.321   3.297  15.710  0.0722  1.7325 -2.4606
 5683TIP3    H238465   1.375   3.166  15.656 -0.2837  0.3985  0.2464
 5684TIP3   OH238466   6.055   2.925  15.386 -0.4415  0.2491 -0.7829
 5684TIP3    H138467   6.012   2.854  15.434 -0.9546  1.1298  0.1149
 5684TIP3    H238468   6.129   2.951  15.442  0.1248  0.0096 -1.4071
 5685TIP3   OH238469   5.283   0.400  14.207 -0.1220  0.3072 -0.2751
 5685TIP3    H138470   5.257   0.317  14.246 -1.3711  0.9454  0.3163
 5685TIP3    H238471   5.333   0.375  14.129 -1.1165 -1.0088 -0.5329
 5686TIP3   OH238472   6.305   5.690   1.811 -0.1242 -0.7233  0.2355
 5686TIP3    H138473   6.308   5.665   1.903  0.1369 -0.8190  0.2004
 5686TIP3    H238474   6.395   5.683   1.781  0.1706  1.2634  0.4851
 5687TIP3   OH238475   4.397   5.881   2.803  0.6151  0.3420  0.0327
 5687TIP3    H138476   4.330   5.925   2.751  0.8917 -0.2761 -0.8689
 5687TIP3    H238477   4.430   5.812   2.746  1.6616  0.3096  0.6587
 5688TIP3   OH238478   2.445   1.960   3.966 -0.2208 -0.4153  0.0554
 5688TIP3    H138479   2.508   1.889   3.954  0.0530 -0.6402  2.3464
 5688TIP3    H238480   2.407   1.974   3.879  3.0278 -0.2023 -1.4730
 5689TIP3   OH238481   3.419   0.472  12.687 -0.0846  0.4198  0.1855
 5689TIP3    H138482   3.476   0.502  12.616  1.0360 -0.4385  0.6756
 5689TIP3    H238483   3.389   0.386  12.659  0.1260  0.2040  0.6111
 5690TIP3   OH238484   0.692   4.137  11.126  0.1174  0.2682  0.2639
 5690TIP3    H138485   0.757   4.197  11.165 -1.2008  1.8124  0.1721
 5690TIP3    H238486   0.630   4.194  11.082  0.2050 -1.3131 -2.0990
 5691TIP3   OH238487   3.474   3.933  12.565 -0.6710 -0.4668 -0.2040
 5691TIP3    H138488   3.515   3.897  12.486  0.1547  0.1560 -0.0702
 5691TIP3    H238489   3.380   3.916  12.552 -0.3398 -2.8076 -0.0530
 5692TIP3   OH238490   3.309   1.287   3.973  0.0229  0.1516 -0.2130
 5692TIP3    H138491   3.275   1.201   3.995  0.2193  0.8543  3.5177
 5692TIP3    H238492   3.273   1.306   3.886 -1.4192 -2.9273 -0.4077
 5693TIP3   OH238493   1.722   0.764  16.387 -0.5225 -0.1824 -0.1100
 5693TIP3    H138494   1.723   0.849  16.432  0.5237 -0.1268 -0.2075
 5693TIP3    H238495   1.729   0.699  16.458 -0.0448 -0.1333 -0.1055
 5694TIP3   OH238496   3.060   3.257  11.469  0.2376 -0.1389  0.2492
 5694TIP3    H138497   3.032   3.199  11.540  0.4476 -0.0740  0.3836
 5694TIP3    H238498   3.106   3.328  11.513 -1.4134  0.9913  0.2264
 5695TIP3   OH238499   3.481   5.086   3.526  0.5053  0.1874 -0.3268
 5695TIP3    H138500   3.567   5.071   3.567  0.2045 -0.3404  0.1224
 5695TIP3    H238501   3.502   5.113   3.436  1.2294  3.1437  0.6420
 5696TIP3   OH238502   0.733   6.397  16.199  0.0176  0.0585  0.6528
 5696TIP3    H138503   0.676   6.374  16.272  0.6379 -1.0019  0.8217
 5696TIP3    H238504   0.821   6.372  16.228  0.0167 -2.7206 -1.3391
 5697TIP3   OH238505   1.282   2.462   5.033  0.6925 -0.2777  0.0617
 5697TIP3    H138506   1.314   2.385   4.987  2.2794  0.8086 -0.7535
 5697TIP3    H238507   1.358   2.520   5.040 -0.4801  1.3059  0.4585
 5698TIP3   OH238508   2.828   3.069   4.278  0.5793 -0.3934  0.3883
 5698TIP3    H138509   2.890   3.137   4.303  0.4967 -0.3475  0.4678
 5698TIP3    H238510   2.801   3.030   4.360 -0.7580  0.6906  0.5009
 5699TIP3   OH238511   0.039   2.340   4.396 -0.4089  0.2814  0.3081
 5699TIP3    H138512   0.042   2.429   4.430  1.8107  1.1305 -1.8237
 5699TIP3    H238513   0.114   2.296   4.436 -1.2978 -0.5712  1.0926
 5700TIP3   OH238514   4.573   0.779  14.595  0.2552  0.0177  0.1884
 5700TIP3    H138515   4.540   0.854  14.546  2.3028  0.6265 -0.3515
 5700TIP3    H238516   4.540   0.703  14.548  0.6786  0.6009 -1.0886
 5701TIP3   OH238517   5.346   3.732   6.237  0.2402 -0.2136 -0.3084
 5701TIP3    H138518   5.406   3.658   6.232  1.1075  0.4030  0.6375
 5701TIP3    H238519   5.360   3.768   6.324 -1.3212  0.1168 -0.1734
 5702TIP3   OH238520   2.609   1.165  15.522  0.3093 -0.0057  0.5267
 5702TIP3    H138521   2.565   1.089  15.561  1.4326 -0.2693  1.3335
 5702TIP3    H238522   2.646   1.212  15.596  1.7163 -0.0182 -0.1271
 5703TIP3   OH238523   3.424   1.846  11.232  0.5105  0.5107  0.2132
 5703TIP3    H138524   3.401   1.814  11.144 -0.3966  0.8216  0.3242
 5703TIP3    H238525   3.422   1.941  11.223 -0.3875  0.5515  0.7592
 5704TIP3   OH238526   2.650   4.276  16.948 -0.1120  0.1571  0.0023
 5704TIP3    H138527   2.724   4.216  16.964 -0.0418  0.1021 -0.5233
 5704TIP3    H238528   2.630   4.312  17.035 -0.4858 -1.0070  0.4053
 5705TIP3   OH238529   4.722   5.921  14.964 -0.1712 -0.4123  0.3464
 5705TIP3    H138530   4.639   5.965  14.951 -0.8039 -1.3222  1.1445
 5705TIP3    H238531   4.777   5.950  14.891 -0.4855  1.7878  0.9379
 5706TIP3   OH238532   5.964   4.965  10.471  0.0573 -0.4713 -0.0553
 5706TIP3    H138533   6.034   4.908  10.440 -0.0953 -1.2998  1.0668
 5706TIP3    H238534   6.009   5.047  10.492 -0.0533  0.7240 -3.8081
 5707TIP3   OH238535   1.618   3.886  13.335 -0.0618 -0.0830  0.7841
 5707TIP3    H138536   1.709   3.915  13.341  0.3775 -1.2889  0.3164
 5707TIP3    H238537   1.591   3.911  13.246  0.1177 -0.5122  0.6024
 5708TIP3   OH238538   3.707   3.390  15.365  0.2373  0.3700 -0.0808
 5708TIP3    H138539   3.673   3.384  15.454 -1.3236  0.0868 -0.6582
 5708TIP3    H238540   3.710   3.300  15.334  2.0661  0.3244  0.0978
 5709TIP3   OH238541   0.953   2.388   0.079  0.3527  0.4758  0.3196
 5709TIP3    H138542   0.860   2.365   0.076  0.5257 -0.6292  1.8151
 5709TIP3    H238543   0.986   2.366  -0.008 -1.0266  2.2059 -0.7162
 5710TIP3   OH238544   6.597   1.701   1.641 -0.0332  0.7336  0.2145
 5710TIP3    H138545   6.648   1.712   1.561 -1.2979  0.0445 -0.7143
 5710TIP3    H238546   6.633   1.766   1.701  4.5250 -2.0450  0.9870
 5711TIP3   OH238547   3.566   6.235   4.157 -0.2518  0.0266 -0.1375
 5711TIP3    H138548   3.569   6.193   4.071  1.1138  0.5441 -0.3713
 5711TIP3    H238549   3.600   6.168   4.217  1.1737  0.4889 -0.3936
 5712TIP3   OH238550   4.202   3.446   0.276  0.2011 -0.4150 -0.2242
 5712TIP3    H138551   4.192   3.359   0.314  1.1178 -0.7072 -0.6207
 5712TIP3    H238552   4.157   3.441   0.191  0.5037 -0.5907 -0.3745
 5713TIP3   OH238553   2.082   4.376   0.011 -0.5323 -0.4103 -0.3253
 5713TIP3    H138554   2.115   4.466   0.012 -1.5059 -0.0120  1.5593
 5713TIP3    H238555   2.159   4.321   0.000  0.2149  0.6228 -0.3328
 5714TIP3   OH238556   3.369   6.377   4.750 -1.1638 -0.9165 -0.3186
 5714TIP3    H138557   3.408   6.318   4.685 -2.4283 -1.5805 -0.5055
 5714TIP3    H238558   3.275   6.374   4.731 -1.7645 -2.2474  2.3928
 5715TIP3   OH238559   1.253   3.433   6.410 -0.0454 -0.4552  0.1176
 5715TIP3    H138560   1.311   3.387   6.470  0.7707  1.6470  1.0707
 5715TIP3    H238561   1.250   3.523   6.445 -2.4350 -0.0441 -0.9516
 5716TIP3   OH238562   1.868   5.984   5.859 -0.5911 -0.5639  0.1136
 5716TIP3    H138563   1.806   5.913   5.841 -1.1425 -0.0190 -0.1990
 5716TIP3    H238564   1.953   5.942   5.859 -0.9867 -1.4073  0.9690
 5717TIP3   OH238565   2.962   3.657  13.477  0.0291 -0.5034  0.0896
 5717TIP3    H138566   2.970   3.568  13.512 -0.8490 -0.3315  0.7520
 5717TIP3    H238567   2.918   3.706  13.546  0.7400  0.5214 -0.1591
 5718TIP3   OH238568   0.327   6.068  11.081  0.4422  0.3178 -0.4835
 5718TIP3    H138569   0.295   5.993  11.131  1.1819  0.8726  0.8443
 5718TIP3    H238570   0.422   6.059  11.080  0.6306  1.7930  0.6272
 5719TIP3   OH238571   0.114   0.440  15.154  0.3396 -0.5639 -0.1465
 5719TIP3    H138572   0.119   0.444  15.249 -0.2066 -2.7531  0.0149
 5719TIP3    H238573   0.197   0.477  15.124  0.1647  0.9485  1.1200
 5720TIP3   OH238574   3.241   6.209   5.074 -0.2185  0.3298  0.6244
 5720TIP3    H138575   3.277   6.297   5.062 -0.9541  0.4982 -0.5510
 5720TIP3    H238576   3.156   6.223   5.115 -0.8349  0.2770 -0.5881
 5721TIP3   OH238577   1.710   3.878   3.440  0.0756 -0.0045 -0.3313
 5721TIP3    H138578   1.781   3.902   3.380 -0.3680  1.9985 -0.1377
 5721TIP3    H238579   1.727   3.929   3.519 -0.5193 -0.9893  0.4589
 5722TIP3   OH238580   3.030   2.412   1.377 -0.1475  0.4012 -0.4190
 5722TIP3    H138581   3.021   2.361   1.296 -0.1973 -1.2531  0.5810
 5722TIP3    H238582   3.122   2.437   1.379 -0.1888  0.6403 -1.0835
 5723TIP3   OH238583   0.042   3.164  14.022 -0.4743 -0.8108 -0.5788
 5723TIP3    H138584  -0.018   3.200  14.088 -0.4285 -3.0041  0.7929
 5723TIP3    H238585   0.033   3.069  14.032  1.9833 -1.2167 -1.4847
 5724TIP3   OH238586   4.272   4.455   4.865  0.6376  0.2436 -0.5409
 5724TIP3    H138587   4.198   4.395   4.856  0.8406 -0.3119  1.0699
 5724TIP3    H238588   4.278   4.498   4.780 -1.1095 -0.1762 -0.9352
 5725TIP3   OH238589   2.332   1.843  13.402 -0.3748 -0.1652  0.1471
 5725TIP3    H138590   2.415   1.869  13.361 -1.7696  0.1244 -2.7429
 5725TIP3    H238591   2.352   1.761  13.447  1.9196  0.9470  1.3252
 5726TIP3   OH238592   0.935   4.429  11.876  0.6677  0.3299 -0.0530
 5726TIP3    H138593   0.925   4.517  11.838  0.4121  1.1224  1.7563
 5726TIP3    H238594   0.847   4.405  11.904  0.8453 -0.2365  0.0211
 5727TIP3   OH238595   6.223   3.812   1.021 -0.1012  0.2988  0.3547
 5727TIP3    H138596   6.186   3.730   1.053  0.0180  0.3095  0.5236
 5727TIP3    H238597   6.315   3.809   1.047 -0.0055  0.3173  0.0277
 5728TIP3   OH238598   2.415   0.126  10.860  0.0963  0.3851  0.7510
 5728TIP3    H138599   2.376   0.097  10.778  0.9143 -0.1833  0.5525
 5728TIP3    H238600   2.504   0.153  10.836  0.6209 -0.5400  1.5554
 5729TIP3   OH238601   3.786   4.344  15.191 -0.3119 -0.3360  0.0446
 5729TIP3    H138602   3.691   4.350  15.185 -0.3734 -1.8654 -0.8910
 5729TIP3    H238603   3.815   4.323  15.103  0.8936 -0.0548  0.3535
 5730TIP3   OH238604   0.210   0.021   4.957  0.1655  0.4112  0.6394
 5730TIP3    H138605   0.186   0.082   5.026  0.3789  0.7323  0.4330
 5730TIP3    H238606   0.135  -0.037   4.948 -0.7766  1.7386 -0.3850
 5731TIP3   OH238607   0.408   5.312   5.124  0.4070  0.1546 -0.0935
 5731TIP3    H138608   0.410   5.360   5.042 -1.7328 -1.7008 -1.3518
 5731TIP3    H238609   0.326   5.339   5.166 -0.8228 -2.1813 -0.8060
 5732TIP3   OH238610   4.171   1.415   4.102  0.2034  0.3683  0.2068
 5732TIP3    H138611   4.164   1.376   4.189 -0.7769  1.2106  0.5235
 5732TIP3    H238612   4.081   1.440   4.080  0.4102  0.0024 -1.1276
 5733TIP3   OH238613   3.159   1.020   4.435 -0.6558  0.2124 -0.0609
 5733TIP3    H138614   3.198   1.085   4.493 -0.3037  0.2617 -0.3526
 5733TIP3    H238615   3.206   0.939   4.454 -1.0547  0.0506  0.2599
 5734TIP3   OH238616   4.385   0.072   3.143 -0.5880 -0.6615  0.1340
 5734TIP3    H138617   4.404   0.090   3.235 -0.0128 -0.6171  0.0063
 5734TIP3    H238618   4.468   0.043   3.106 -0.7991 -0.6059 -0.3901
 5735TIP3   OH238619   5.679   5.919  15.672 -0.8080  0.8929  0.3414
 5735TIP3    H138620   5.707   5.902  15.762 -0.8834  1.0067  0.3856
 5735TIP3    H238621   5.593   5.878  15.665  0.2988 -1.4839 -0.4610
 5736TIP3   OH238622   4.459   3.341   2.990  0.0956  0.2526  0.3592
 5736TIP3    H138623   4.421   3.350   3.078  0.6096 -1.2649  0.7656
 5736TIP3    H238624   4.547   3.378   2.998  0.2044 -0.0434  0.5257
 5737TIP3   OH238625   4.195   3.717   0.272  0.2258  0.4259 -0.4572
 5737TIP3    H138626   4.215   3.626   0.292 -0.4812  0.2717 -0.4362
 5737TIP3    H238627   4.223   3.766   0.350 -1.0406  0.0181  0.2667
 5738TIP3   OH238628   4.414   3.921  11.869  0.3785 -0.5409  0.2407
 5738TIP3    H138629   4.419   3.878  11.784 -2.0534 -0.0320 -0.2333
 5738TIP3    H238630   4.362   3.861  11.923 -2.1520  1.1661 -0.1183
 5739TIP3   OH238631   6.063   5.076   2.623 -0.0321 -0.5623 -0.1913
 5739TIP3    H138632   6.085   5.044   2.535 -0.3511  0.5581 -0.6965
 5739TIP3    H238633   6.033   5.166   2.609  0.3176 -0.2220  1.1174
 5740TIP3   OH238634   0.765   1.110  17.023 -0.1876 -0.2954 -0.1484
 5740TIP3    H138635   0.784   1.141  17.112 -0.6536  1.3078 -0.5808
 5740TIP3    H238636   0.790   1.183  16.966 -3.6524  0.3872 -1.0396
 5741TIP3   OH238637   1.818   0.572  12.654  0.0245 -0.0698 -0.3552
 5741TIP3    H138638   1.746   0.602  12.598  0.7248  1.5376 -0.4463
 5741TIP3    H238639   1.888   0.550  12.593  0.9261  2.0566 -0.1682
 5742TIP3   OH238640   2.477   1.137  15.066 -0.2664  0.0883 -0.0225
 5742TIP3    H138641   2.530   1.210  15.098 -1.0756  0.4054  0.6731
 5742TIP3    H238642   2.389   1.156  15.101 -1.1691  0.3276 -2.2745
 5743TIP3   OH238643   6.038   5.519   5.367 -0.0967 -0.6712 -0.0848
 5743TIP3    H138644   6.128   5.496   5.390  0.0980  0.8142  0.7859
 5743TIP3    H238645   5.987   5.442   5.392  0.7090 -0.8570  1.0997
 5744TIP3   OH238646   0.815   5.645  13.547  0.2398 -0.0879  0.7955
 5744TIP3    H138647   0.874   5.570  13.537  0.7109  0.3325  0.3826
 5744TIP3    H238648   0.740   5.610  13.595  0.0426 -1.0478 -0.1681
 5745TIP3   OH238649   4.728   4.732  11.576  0.1022 -0.0322 -0.4791
 5745TIP3    H138650   4.744   4.645  11.611 -1.6673 -0.4653 -0.6351
 5745TIP3    H238651   4.699   4.716  11.486 -0.1027  0.7201 -0.5518
 5746TIP3   OH238652   4.643   1.382   2.020 -0.4385  0.0389 -0.2748
 5746TIP3    H138653   4.582   1.350   1.953  0.3379 -0.7884 -0.5987
 5746TIP3    H238654   4.613   1.341   2.101 -0.0844 -0.6926 -0.5053
 5747TIP3   OH238655   1.057   4.708   4.279 -0.5155  0.1067  0.2485
 5747TIP3    H138656   1.116   4.784   4.286 -1.4306  0.8592  0.0057
 5747TIP3    H238657   1.053   4.690   4.185  2.2823 -2.3760  0.4422
 5748TIP3   OH238658   6.467   4.353  12.049 -0.3857  0.0037  0.4770
 5748TIP3    H138659   6.488   4.442  12.079 -1.3702  0.2241  0.5598
 5748TIP3    H238660   6.548   4.304  12.060  0.1909  0.9065  0.3819
 5749TIP3   OH238661   5.597   5.344   3.698 -0.2392 -0.2609  0.2716
 5749TIP3    H138662   5.608   5.250   3.688 -2.3647 -0.5893  0.5112
 5749TIP3    H238663   5.520   5.354   3.754 -0.7482  1.6068 -0.6576
 5750TIP3   OH238664   5.416   5.679   3.976 -0.2251 -0.5647  0.6252
 5750TIP3    H138665   5.497   5.673   3.926 -1.0513 -0.4123 -0.8051
 5750TIP3    H238666   5.351   5.634   3.922 -0.9105 -1.5261  2.1830
 5751TIP3   OH238667   5.568   0.177  15.112 -0.5162  0.5556 -0.6337
 5751TIP3    H138668   5.498   0.216  15.164  0.7183  0.4905  1.1607
 5751TIP3    H238669   5.549   0.083  15.113 -2.5711  0.7831 -3.5818
 5752TIP3   OH238670   6.522   4.016   1.934  0.2857  0.2935  0.1424
 5752TIP3    H138671   6.436   4.048   1.906  0.7737  0.8143 -0.8473
 5752TIP3    H238672   6.513   4.002   2.028 -0.9970 -0.0538 -0.0088
 5753TIP3   OH238673   3.569   3.675   4.062 -0.0864 -0.3089  0.2788
 5753TIP3    H138674   3.628   3.601   4.046  0.3778 -0.2887  1.7536
 5753TIP3    H238675   3.627   3.745   4.092 -0.5322  0.6530 -1.0620
 5754TIP3   OH238676   3.435   0.340   4.099 -0.0526 -0.9015 -0.5417
 5754TIP3    H138677   3.428   0.402   4.172  0.5165 -2.0938  0.5836
 5754TIP3    H238678   3.365   0.276   4.116  0.2552 -1.3389 -0.8979
 5755TIP3   OH238679   0.312   2.464   0.353  0.7088 -0.6591 -0.2332
 5755TIP3    H138680   0.247   2.430   0.414 -0.1486 -0.6532 -1.1097
 5755TIP3    H238681   0.297   2.559   0.353  0.0738 -0.7462 -1.1246
 5756TIP3   OH238682   2.392   1.188   0.921  0.0061 -0.3817 -0.3931
 5756TIP3    H138683   2.393   1.282   0.905  0.1489 -0.5065 -1.1468
 5756TIP3    H238684   2.461   1.174   0.987 -0.3101  0.0894  0.0441
 5757TIP3   OH238685   3.466   6.082  13.320 -0.0382 -0.5751  0.0493
 5757TIP3    H138686   3.545   6.029  13.309 -0.1183 -1.1242  1.7564
 5757TIP3    H238687   3.406   6.025  13.369 -1.0695  0.2288 -0.2438
 5758TIP3   OH238688   1.024   5.646   2.190 -0.4417  0.4733 -0.0937
 5758TIP3    H138689   1.037   5.720   2.130  0.1614 -0.4327 -1.1142
 5758TIP3    H238690   0.971   5.584   2.140 -0.9444  0.2060  0.7562
 5759TIP3   OH238691   0.276   4.121  16.652  0.2260 -0.5933  0.2158
 5759TIP3    H138692   0.182   4.126  16.635  0.2531 -3.2591 -1.3639
 5759TIP3    H238693   0.312   4.200  16.612 -1.1476 -0.6314 -1.2116
 5760TIP3   OH238694   4.795   5.219   4.659  0.3304 -0.4375 -0.1926
 5760TIP3    H138695   4.835   5.156   4.600  0.4002  0.9547 -1.7248
 5760TIP3    H238696   4.701   5.212   4.641  0.4236  0.7091 -1.3038
 5761TIP3   OH238697   6.345   6.774  14.198 -0.4233  0.2365  0.6639
 5761TIP3    H138698   6.324   6.685  14.171  3.3025 -0.8207  0.7097
 5761TIP3    H238699   6.364   6.768  14.291  0.2429  0.9883  0.5937
 5762TIP3   OH238700   0.053   4.784   6.203  0.4956 -0.3158  0.3511
 5762TIP3    H138701   0.019   4.696   6.188  2.5154 -1.0773  0.0064
 5762TIP3    H238702   0.041   4.829   6.119 -0.8772 -0.0991  0.6345
 5763TIP3   OH238703   2.731   2.745  16.532  0.0332 -1.0529 -0.2500
 5763TIP3    H138704   2.761   2.767  16.443  1.4054  0.6275  0.5641
 5763TIP3    H238705   2.807   2.705  16.574  0.0392 -0.0331  0.7545
 5764TIP3   OH238706   1.912   0.802  17.043 -0.6156 -0.0889  0.5121
 5764TIP3    H138707   1.860   0.724  17.064  1.0884 -1.9352 -1.5983
 5764TIP3    H238708   1.873   0.836  16.962 -0.4009  0.3255  0.5815
 5765TIP3   OH238709   1.194   3.769   0.651 -0.1844  0.2012 -0.1883
 5765TIP3    H138710   1.196   3.735   0.562 -0.0223 -1.4955  0.4225
 5765TIP3    H238711   1.170   3.693   0.705  1.3788  0.7534  1.3786
 5766TIP3   OH238712   1.621   4.356   5.257 -0.0036  0.3569 -0.5854
 5766TIP3    H138713   1.545   4.298   5.263 -0.6240  0.8671 -2.6416
 5766TIP3    H238714   1.657   4.340   5.169  2.1037  0.3685  0.2131
 5767TIP3   OH238715   3.685   4.838   0.024  0.1432 -0.3212 -0.5924
 5767TIP3    H138716   3.768   4.884   0.013  0.4826 -0.8373 -0.2269
 5767TIP3    H238717   3.665   4.848   0.117  0.1281 -0.7585 -0.5494
 5768TIP3   OH238718   0.541   5.903   4.201 -0.2553  0.3569 -0.1445
 5768TIP3    H138719   0.570   5.947   4.121 -0.0392 -1.1487 -0.9375
 5768TIP3    H238720   0.471   5.958   4.235 -1.0552  0.5253 -1.9523
 5769TIP3   OH238721   1.507   6.046   3.346 -0.5889  0.2898  0.2514
 5769TIP3    H138722   1.423   6.064   3.388 -2.1314 -0.2542 -2.3814
 5769TIP3    H238723   1.509   6.105   3.271  0.0353 -1.6222 -1.3229
 5770TIP3   OH238724   5.386   0.952   5.005  0.0770  0.0622  0.0423
 5770TIP3    H138725   5.478   0.980   5.002 -0.3621  1.5879  0.1540
 5770TIP3    H238726   5.381   0.880   4.942  1.0320  0.9912 -1.1544
 5771TIP3   OH238727   2.975   0.242   2.591 -0.3930  0.2467 -0.6455
 5771TIP3    H138728   3.017   0.247   2.677  0.5565  1.8603 -1.1728
 5771TIP3    H238729   2.886   0.274   2.606 -0.7908 -1.0956  0.0412
 5772TIP3   OH238730   5.322   3.587  17.070  0.3406  0.0667 -0.1256
 5772TIP3    H138731   5.406   3.633  17.063  1.2147 -0.8183  3.0444
 5772TIP3    H238732   5.345   3.495  17.058  0.0597 -0.2867  1.8465
 5773TIP3   OH238733   3.737   1.126  12.063  0.0996 -0.4448 -0.5359
 5773TIP3    H138734   3.780   1.049  12.025 -1.6087 -0.7965 -1.9193
 5773TIP3    H238735   3.646   1.098  12.075 -0.6171  1.4171 -1.2887
 5774TIP3   OH238736   1.877   4.024   4.435  0.0221 -0.3739  0.3898
 5774TIP3    H138737   1.949   4.051   4.378  0.2635 -0.2134  0.7680
 5774TIP3    H238738   1.891   4.073   4.516  1.2071 -2.5585  1.5777
 5775TIP3   OH238739   1.332   1.725  13.577 -0.4602  0.6196  0.4005
 5775TIP3    H138740   1.416   1.766  13.595  0.6476 -1.4777  0.3069
 5775TIP3    H238741   1.284   1.731  13.660  0.2989  0.6849  0.8422
 5776TIP3   OH238742   1.417   4.448  11.271 -0.5897 -0.2478  0.6077
 5776TIP3    H138743   1.481   4.507  11.231 -1.1009  0.2516  0.5106
 5776TIP3    H238744   1.465   4.404  11.341  0.6005 -1.8564 -1.1414
 5777TIP3   OH238745   6.684   2.963  11.567 -0.0028  0.2816 -0.1014
 5777TIP3    H138746   6.619   2.893  11.569 -2.0940  2.1203  0.6831
 5777TIP3    H238747   6.663   3.014  11.488 -0.2715  1.5138  0.7302
 5778TIP3   OH238748   2.242   5.364   4.056  0.1619 -0.4632  0.0553
 5778TIP3    H138749   2.161   5.376   4.008  0.8486 -1.8311 -1.5456
 5778TIP3    H238750   2.300   5.434   4.025  0.3809 -0.9462 -0.6546
 5779TIP3   OH238751   1.275   5.166  15.463 -0.3938 -0.2504 -0.3809
 5779TIP3    H138752   1.198   5.114  15.488 -1.7637  1.5399 -0.7210
 5779TIP3    H238753   1.240   5.249  15.433  1.7253  0.8664  0.0175
 5780TIP3   OH238754   5.359   6.433  12.572  0.1514 -0.0772  0.0662
 5780TIP3    H138755   5.324   6.355  12.529 -0.5440 -0.3575  1.0990
 5780TIP3    H238756   5.429   6.463  12.514  1.2151 -2.1203  0.1943
 5781TIP3   OH238757   4.721   1.619  15.167  0.3474  0.0060 -0.4585
 5781TIP3    H138758   4.774   1.574  15.101  1.2268 -1.5745  1.2293
 5781TIP3    H238759   4.762   1.704  15.178  1.6419 -0.6193 -0.2814
 5782TIP3   OH238760   3.216   6.215   0.009 -0.8537 -0.0928 -0.1109
 5782TIP3    H138761   3.126   6.199   0.037 -1.5564  0.0216 -2.1529
 5782TIP3    H238762   3.249   6.281   0.071 -2.6904  1.0382 -0.2632
 5783TIP3   OH238763   2.977   2.553   0.942  0.1201 -0.2150  0.1959
 5783TIP3    H138764   2.982   2.517   0.853  0.6266  0.7059 -0.1689
 5783TIP3    H238765   2.886   2.577   0.953  0.2705  0.7565 -0.5390
 5784TIP3   OH238766   6.210   4.972  17.048  0.3418  0.2426  0.1322
 5784TIP3    H138767   6.241   4.913  16.979  2.6115 -1.4777  2.4501
 5784TIP3    H238768   6.128   4.934  17.078  0.1226  0.1550 -0.5563
 5785TIP3   OH238769   6.338   3.890   2.885 -0.3758  0.5412 -0.4314
 5785TIP3    H138770   6.311   3.976   2.853 -2.6224 -0.8162 -2.6244
 5785TIP3    H238771   6.374   3.847   2.807  1.8673 -0.1229  0.9166
 5786TIP3   OH238772   5.252   5.352  13.761 -0.0944  0.4005  0.5319
 5786TIP3    H138773   5.170   5.330  13.805 -0.4730  0.0156 -0.3511
 5786TIP3    H238774   5.320   5.328  13.825 -0.5388 -2.2413  0.1352
 5787TIP3   OH238775   3.079   4.942  12.957  0.3396 -0.1130 -0.1955
 5787TIP3    H138776   3.084   4.956  13.052  0.6428 -1.0447 -0.0564
 5787TIP3    H238777   3.157   4.890  12.937 -0.0159 -0.3971 -0.8663
 5788TIP3   OH238778   1.188   0.293  13.651 -0.1838 -0.1476 -0.2880
 5788TIP3    H138779   1.120   0.270  13.714  0.4108  1.3841  0.9965
 5788TIP3    H238780   1.246   0.351  13.700  2.1060 -1.4366 -1.2955
 5789TIP3   OH238781   5.813   5.882  13.879  0.7239 -0.5595  0.8294
 5789TIP3    H138782   5.766   5.870  13.962  0.6697 -0.1722  0.8547
 5789TIP3    H238783   5.905   5.873  13.903  0.8348  1.4703  1.2908
 5790TIP3   OH238784   3.769   6.570  12.701  0.1524 -0.4196 -0.2583
 5790TIP3    H138785   3.674   6.586  12.694  0.4630  3.1519  1.6340
 5790TIP3    H238786   3.788   6.574  12.794  2.3347  0.4285 -0.6675
 5791TIP3   OH238787   6.746   2.407  13.280  0.3672  0.3241 -0.5492
 5791TIP3    H138788   6.747   2.317  13.312  0.0164  0.2105 -0.8549
 5791TIP3    H238789   6.832   2.420  13.241  2.1356  1.5115  3.2784
 5792TIP3   OH238790   5.437   5.429  14.430  0.1480  0.1093  0.5954
 5792TIP3    H138791   5.361   5.469  14.470 -0.2548 -1.4414  1.4677
 5792TIP3    H238792   5.512   5.469  14.474 -0.1786  0.8971  0.4491
 5793TIP3   OH238793   3.471   1.564   2.468 -0.2165  0.2661  0.1357
 5793TIP3    H138794   3.397   1.600   2.417 -0.4663  0.1082  0.3865
 5793TIP3    H238795   3.447   1.580   2.559  0.5581  1.1955  0.1929
 5794TIP3   OH238796   6.376   2.523   1.911  0.5590 -0.0396  0.8095
 5794TIP3    H138797   6.406   2.523   1.820  0.3189 -0.1492  0.7288
 5794TIP3    H238798   6.302   2.462   1.912  0.9074 -0.4565  1.1940
 5795TIP3   OH238799   0.611   4.838   2.875 -0.1563  0.5728 -0.0502
 5795TIP3    H138800   0.594   4.776   2.804  0.5189  0.5715 -0.2166
 5795TIP3    H238801   0.704   4.825   2.896 -0.2210  0.9428  0.4782
 5796TIP3   OH238802   0.786   4.767  14.593 -0.0340 -0.1392 -0.0715
 5796TIP3    H138803   0.727   4.842  14.594 -0.3980 -0.4315  0.6707
 5796TIP3    H238804   0.752   4.711  14.523  0.9764  0.9491 -1.4946
 5797TIP3   OH238805   2.814   3.048   6.415  0.7254  0.0097  0.5565
 5797TIP3    H138806   2.906   3.022   6.419  0.2335 -1.9700  0.2580
 5797TIP3    H238807   2.772   2.997   6.485 -0.2318  0.4919  0.3477
 5798TIP3   OH238808   1.797   2.033   3.782  0.3734 -0.4055 -0.5317
 5798TIP3    H138809   1.878   1.988   3.805  0.3922  0.1579  0.5488
 5798TIP3    H238810   1.785   2.098   3.851 -1.3807 -0.9608 -0.2525
 5799TIP3   OH238811   1.062   3.650  10.531  0.0490 -0.5144 -0.3902
 5799TIP3    H138812   1.031   3.741  10.522 -1.2949 -0.8115  0.8471
 5799TIP3    H238813   1.157   3.658  10.533  0.0071  0.7321 -1.6037
 5800TIP3   OH238814   1.190   4.020  14.425  0.8710 -1.0543  0.4918
 5800TIP3    H138815   1.223   3.988  14.341 -0.9443  0.3538 -0.8397
 5800TIP3    H238816   1.250   4.090  14.449  0.0888  0.1731 -0.9224
 5801TIP3   OH238817   0.432   6.595  13.661  0.2162  0.0936  0.1267
 5801TIP3    H138818   0.391   6.645  13.731  1.5407 -0.6731  1.5151
 5801TIP3    H238819   0.458   6.512  13.702  0.4659 -0.6506 -1.4378
 5802TIP3   OH238820   5.850   4.899   4.497  0.0521  0.4806 -0.6934
 5802TIP3    H138821   5.757   4.920   4.506  0.1254  1.4073 -1.8112
 5802TIP3    H238822   5.863   4.822   4.552 -1.5100 -0.0540 -1.0315
 5803TIP3   OH238823   5.449   1.562  10.537  0.4770 -0.5000  0.2614
 5803TIP3    H138824   5.444   1.469  10.558 -1.3771 -0.1507  1.6383
 5803TIP3    H238825   5.492   1.602  10.612  0.6856 -0.1709 -0.0298
 5804TIP3   OH238826   6.677   3.701   5.485 -0.1930  0.2031 -0.0788
 5804TIP3    H138827   6.719   3.673   5.566 -1.4733 -0.6346  0.3273
 5804TIP3    H238828   6.599   3.749   5.514 -1.3451 -1.1749 -0.7874
 5805TIP3   OH238829   3.654   5.294  13.702  0.1112  0.0738 -0.3127
 5805TIP3    H138830   3.647   5.390  13.700  1.9428  0.2496 -0.4919
 5805TIP3    H238831   3.612   5.265  13.621 -1.8617  0.5675  0.4709
 5806TIP3   OH238832   3.124   2.020  11.468  0.1133  0.2802  0.3164
 5806TIP3    H138833   3.147   1.941  11.516  2.1929  0.4371 -0.3427
 5806TIP3    H238834   3.127   1.994  11.375  0.0528  0.9302  0.1251
 5807TIP3   OH238835   6.487   0.156  13.988 -0.2778  0.2852 -0.1530
 5807TIP3    H138836   6.428   0.220  14.027  0.7555  1.4997 -0.4929
 5807TIP3    H238837   6.571   0.170  14.032  0.0694 -0.5833 -0.5026
 5808TIP3   OH238838   4.633   1.088   5.718  0.1403 -0.0766 -0.1218
 5808TIP3    H138839   4.646   1.181   5.732 -0.2564  0.1035 -0.8691
 5808TIP3    H238840   4.541   1.080   5.695  0.1251 -0.6779  0.1352
 5809TIP3   OH238841   0.817   2.479  10.856  0.0259  0.5154  0.1659
 5809TIP3    H138842   0.861   2.489  10.771 -0.2976  0.7302  0.0231
 5809TIP3    H238843   0.726   2.499  10.838 -0.3077 -0.8164  0.2725
 5810TIP3   OH238844   6.434   0.027   1.871  0.8359  0.1788  0.3029
 5810TIP3    H138845   6.357  -0.021   1.840 -0.0517  2.0905 -0.5903
 5810TIP3    H238846   6.500  -0.041   1.885 -0.4323 -1.3265 -0.6668
 5811TIP3   OH238847   2.654   2.022  11.822 -0.4701  0.6303 -0.1463
 5811TIP3    H138848   2.713   1.994  11.751 -0.0945  1.2782 -0.0983
 5811TIP3    H238849   2.566   2.016  11.783 -0.5099 -1.5249  0.1678
 5812TIP3   OH238850   1.066   5.405   1.323  0.0377 -0.0347  0.1661
 5812TIP3    H138851   1.153   5.375   1.296 -0.0684  0.7663 -1.1939
 5812TIP3    H238852   1.064   5.498   1.298 -1.0630  0.0686  0.5596
 5813TIP3   OH238853   2.515   0.078   0.219  0.0991  0.2494  0.1814
 5813TIP3    H138854   2.517   0.157   0.273 -0.0519  0.9384 -0.7740
 5813TIP3    H238855   2.605   0.069   0.186  0.3052 -0.4379  0.9107
 5814TIP3   OH238856   5.708   2.298  10.801 -0.1681 -0.1285  0.4758
 5814TIP3    H138857   5.631   2.308  10.744  0.5446  0.3259 -0.4232
 5814TIP3    H238858   5.748   2.216  10.771 -0.2508 -0.3217  0.8907
 5815TIP3   OH238859   2.476   4.901   3.375  0.5886  0.2060 -0.0195
 5815TIP3    H138860   2.498   4.834   3.310 -2.0211  2.0972 -3.1530
 5815TIP3    H238861   2.424   4.855   3.441 -0.0828 -1.1251 -1.4158
 5816TIP3   OH238862   2.409   6.771  14.952  0.2969 -0.2601  0.9234
 5816TIP3    H138863   2.444   6.856  14.979 -0.9887  0.9004 -0.7768
 5816TIP3    H238864   2.486   6.721  14.924  0.8611  1.7825 -1.6427
 5817TIP3   OH238865   3.909   6.085   4.570 -0.5635 -0.4799  0.4762
 5817TIP3    H138866   3.895   6.003   4.619  0.3696 -0.8829  0.0987
 5817TIP3    H238867   3.930   6.056   4.481 -1.5443  0.2263 -0.0055
 5818TIP3   OH238868   2.936   4.403  11.493 -0.4199 -0.5385  0.4367
 5818TIP3    H138869   2.884   4.406  11.573 -1.4129  1.1516 -0.2097
 5818TIP3    H238870   2.943   4.310  11.472  0.1875 -1.0414  2.6564
 5819TIP3   OH238871   0.475   2.959  14.794  0.0413  0.1580 -0.4215
 5819TIP3    H138872   0.454   2.962  14.701  0.6513 -1.3376 -0.6471
 5819TIP3    H238873   0.403   2.909  14.833 -0.1408  0.6596 -0.1110
 5820TIP3   OH238874   0.263   3.196  14.922  0.1128  0.6659  0.0997
 5820TIP3    H138875   0.172   3.197  14.951  0.2879  1.5530  0.6762
 5820TIP3    H238876   0.297   3.113  14.953 -0.0594  1.0478  1.3736
 5821TIP3   OH238877   6.685   1.386   2.871 -0.1457  0.1924  0.1823
 5821TIP3    H138878   6.632   1.426   2.802 -1.4839 -0.3425  0.8580
 5821TIP3    H238879   6.708   1.300   2.837 -1.4130 -0.3615  0.6360
 5822TIP3   OH238880   4.695   3.611   1.808  0.0421 -0.0336 -0.4115
 5822TIP3    H138881   4.681   3.534   1.753 -1.2783 -2.1222  2.5622
 5822TIP3    H238882   4.607   3.640   1.833  0.5705  0.7825  0.5976
 5823TIP3   OH238883   6.195   5.269  15.723 -0.2849 -0.0986 -0.2689
 5823TIP3    H138884   6.119   5.323  15.702 -1.5841 -2.2039 -1.3197
 5823TIP3    H238885   6.242   5.259  15.640 -0.6137 -1.3280 -0.3310
 5824TIP3   OH238886   5.088   5.816  11.371 -0.0916  0.2669  0.2783
 5824TIP3    H138887   5.047   5.807  11.457  0.0372 -1.0678  0.2093
 5824TIP3    H238888   5.102   5.727  11.341 -0.8102  0.7082 -1.4696
 5825TIP3   OH238889   6.462   1.173  13.546 -0.3474  0.0688  0.0026
 5825TIP3    H138890   6.444   1.205  13.635 -1.4600  1.3835 -0.6543
 5825TIP3    H238891   6.401   1.100  13.535 -0.6355  0.2879  0.1151
 5826TIP3   OH238892   2.208   0.160   2.783 -0.0286  0.6550 -0.3555
 5826TIP3    H138893   2.264   0.231   2.753 -1.0318  0.7815 -2.1048
 5826TIP3    H238894   2.260   0.112   2.847  1.5472  1.5513 -0.9357
 5827TIP3   OH238895   6.073   4.766   5.910 -0.1054 -0.0632  0.0893
 5827TIP3    H138896   6.104   4.786   5.822  0.4330 -2.4690 -0.3434
 5827TIP3    H238897   6.017   4.840   5.933 -1.0462  0.1992 -2.6707
 5828TIP3   OH238898   0.767   1.244  15.712  0.0284 -0.3718 -0.5252
 5828TIP3    H138899   0.787   1.336  15.729  1.1046 -0.5149 -0.9841
 5828TIP3    H238900   0.828   1.195  15.766 -2.3561 -0.8938  1.9309
 5829TIP3   OH238901   5.782   1.321  16.588  0.2997 -0.1304  0.1441
 5829TIP3    H138902   5.748   1.237  16.559 -0.3266  0.5289 -1.1231
 5829TIP3    H238903   5.853   1.341  16.527  0.3469  0.3232  0.3433
 5830TIP3   OH238904   3.378   1.159   4.915  0.2205 -0.0543  0.4089
 5830TIP3    H138905   3.369   1.079   4.864  1.3911 -0.4884  0.8615
 5830TIP3    H238906   3.464   1.152   4.956 -0.3804  0.6288  1.8469
 5831TIP3   OH238907   0.871   4.103   4.958  0.0318  0.4680  0.0792
 5831TIP3    H138908   0.798   4.148   4.915 -1.2315 -1.7577 -0.2454
 5831TIP3    H238909   0.830   4.049   5.025  1.4764 -0.2512  0.4286
 5832TIP3   OH238910   2.646   0.434   2.917 -0.4800 -0.2613 -0.3309
 5832TIP3    H138911   2.591   0.370   2.961 -1.6580 -0.6218 -2.2078
 5832TIP3    H238912   2.700   0.383   2.857  0.9128  0.2398  0.4310
 5833TIP3   OH238913   0.777   1.663  11.573 -0.2081  1.1250 -0.7395
 5833TIP3    H138914   0.871   1.651  11.562  0.0977  0.5668  1.8359
 5833TIP3    H238915   0.767   1.755  11.597 -0.1603  0.8784  0.2470
 5834TIP3   OH238916   5.559   2.444  11.555 -0.0265  0.5261 -0.4471
 5834TIP3    H138917   5.642   2.396  11.550  0.4970  1.3993 -0.3376
 5834TIP3    H238918   5.495   2.379  11.584  0.3594 -0.4706 -1.7364
 5835TIP3   OH238919   2.472   2.622   5.989  0.5388 -0.0733  0.8498
 5835TIP3    H138920   2.407   2.608   6.058  1.4036 -1.5566  1.4029
 5835TIP3    H238921   2.535   2.683   6.028 -0.2701  1.0601  0.4490
 5836TIP3   OH238922   6.057   0.531  11.793 -0.0939  0.0394  0.6427
 5836TIP3    H138923   6.146   0.496  11.799 -0.5938 -1.1248  1.6709
 5836TIP3    H238924   6.049   0.591  11.867  0.3997  1.5724 -0.4943
 5837TIP3   OH238925   2.277   6.246   0.684 -0.3041  0.4861 -0.1052
 5837TIP3    H138926   2.356   6.230   0.632  0.4115  0.8137  0.8625
 5837TIP3    H238927   2.245   6.331   0.651 -1.3354 -0.4978 -1.7912
 5838TIP3   OH238928   3.406   1.332  14.602  0.5337 -0.0658 -0.0488
 5838TIP3    H138929   3.390   1.300  14.513  0.2451  0.7810 -0.3077
 5838TIP3    H238930   3.322   1.369  14.629  1.2153  1.7376 -0.2911
 5839TIP3   OH238931   0.608   4.234   2.339 -0.6991 -0.0782  0.3369
 5839TIP3    H138932   0.631   4.323   2.310 -0.4316 -0.2842 -0.0922
 5839TIP3    H238933   0.624   4.235   2.433  1.6018 -0.3627 -0.0025
 5840TIP3   OH238934   4.251   5.932  14.388 -0.3134  0.3314  0.1560
 5840TIP3    H138935   4.256   6.011  14.442 -0.8625 -0.2435  1.0826
 5840TIP3    H238936   4.258   5.860  14.450 -0.5016 -0.3537 -0.5967
 5841TIP3   OH238937   3.635   4.200   0.484  0.6646  0.3309  0.3970
 5841TIP3    H138938   3.621   4.248   0.566 -1.4270 -0.3589  0.5006
 5841TIP3    H238939   3.609   4.110   0.504 -1.7349  0.5383 -1.4848
 5842TIP3   OH238940   2.583   2.416   4.355 -0.0483  0.2560 -0.3231
 5842TIP3    H138941   2.534   2.334   4.343 -0.3426  0.5955 -1.5925
 5842TIP3    H238942   2.664   2.389   4.398 -0.9678 -0.4346  1.0391
 5843TIP3   OH238943   0.081   1.481  14.025  0.0110  0.5167  0.1379
 5843TIP3    H138944   0.075   1.518  13.936  0.7013  0.7459  0.1738
 5843TIP3    H238945   0.169   1.444  14.028 -0.6470 -1.1039  0.1324
 5844TIP3   OH238946   6.752   6.022  13.306 -0.1971 -0.6244 -0.0961
 5844TIP3    H138947   6.806   6.060  13.375 -1.0849 -2.2243  1.5548
 5844TIP3    H238948   6.765   6.080  13.231  1.0288  1.0092  1.3031
 5845TIP3   OH238949   3.252   0.544   1.866 -0.0662  0.1555 -0.2942
 5845TIP3    H138950   3.210   0.598   1.799  1.8894  1.4192 -0.6054
 5845TIP3    H238951   3.182   0.523   1.928 -1.5460  0.4189 -1.8112
 5846TIP3   OH238952   2.053   2.326   0.897 -0.0976 -0.7246  0.1726
 5846TIP3    H138953   2.029   2.371   0.816 -2.3324  0.1638  1.2450
 5846TIP3    H238954   2.147   2.308   0.887  0.1416  1.1086 -1.7590
 5847TIP3   OH238955   2.053   0.576  13.292  0.0541 -0.7897 -0.2092
 5847TIP3    H138956   2.128   0.582  13.351 -0.8868  0.2583  0.9460
 5847TIP3    H238957   2.060   0.651  13.234  0.3089 -1.1306 -0.6274
 5848TIP3   OH238958   5.176   4.386   0.578 -0.2850 -0.1967  0.4391
 5848TIP3    H138959   5.098   4.334   0.560 -1.7421  1.6772  1.0856
 5848TIP3    H238960   5.237   4.363   0.508  0.1853 -4.6142  2.0048
 5849TIP3   OH238961   1.868   4.539  13.125  0.0259  0.2142 -0.2354
 5849TIP3    H138962   1.874   4.633  13.142  1.1846  0.6526 -2.6584
 5849TIP3    H238963   1.959   4.511  13.111 -0.4920 -0.6102 -2.4017
 5850TIP3   OH238964   0.052   0.419  11.794  0.2094  0.0320 -0.0013
 5850TIP3    H138965   0.094   0.362  11.859  2.1058 -1.5572 -2.4376
 5850TIP3    H238966  -0.034   0.379  11.780  0.1421 -0.1388  0.8672
 5851TIP3   OH238967   1.809   0.270   2.027 -0.1735  0.0957 -0.4544
 5851TIP3    H138968   1.750   0.342   2.003  0.7223  0.9797 -0.1092
 5851TIP3    H238969   1.767   0.229   2.103 -1.4319 -0.7122 -1.5472
 5852TIP3   OH238970   5.333   2.031  15.961 -0.2903  0.3252 -0.4445
 5852TIP3    H138971   5.363   1.992  15.880  1.7548  1.3066 -0.2288
 5852TIP3    H238972   5.413   2.064  16.003 -1.3671  0.4701  1.6247
 5853TIP3   OH238973   5.820   4.817  13.669 -0.1410  0.2459  0.0792
 5853TIP3    H138974   5.886   4.877  13.632  0.9898  0.0030  1.6254
 5853TIP3    H238975   5.753   4.875  13.704  0.0098  0.5523 -0.1272
 5854TIP3   OH238976   5.467   3.902   2.047  1.1368 -0.1518  0.4116
 5854TIP3    H138977   5.435   3.832   1.990 -2.1619  1.2307  0.3244
 5854TIP3    H238978   5.401   3.910   2.116  0.8248  3.3270 -0.0606
 5855TIP3   OH238979   0.757   4.355  16.300 -0.5384 -0.1483 -0.3233
 5855TIP3    H138980   0.798   4.272  16.326  1.2400  0.2672 -1.5978
 5855TIP3    H238981   0.758   4.353  16.204 -2.7624  0.3021 -0.3942
 5856TIP3   OH238982   0.178   2.900  16.193 -0.9829  0.3845  0.0129
 5856TIP3    H138983   0.131   2.817  16.197  0.0396 -0.1805  1.0969
 5856TIP3    H238984   0.199   2.911  16.100 -1.1606 -0.5562 -0.1491
 5857TIP3   OH238985   3.230   4.833   5.286  0.2618  0.2815  0.3975
 5857TIP3    H138986   3.295   4.899   5.309  0.5528  0.0098  0.3573
 5857TIP3    H238987   3.274   4.776   5.223  1.4543 -2.3503  3.3274
 5858TIP3   OH238988   4.446   3.394   1.044  0.4392 -0.0868 -0.5978
 5858TIP3    H138989   4.450   3.387   1.140 -1.1813  1.5578 -0.3595
 5858TIP3    H238990   4.528   3.356   1.014  0.9728 -0.6652  1.4461
 5859TIP3   OH238991   2.523   0.543   1.644  0.3965 -0.4664 -0.3111
 5859TIP3    H138992   2.464   0.535   1.719 -1.8280 -1.1958 -2.0325
 5859TIP3    H238993   2.569   0.459   1.640  0.2958 -0.5404  0.0362
 5860TIP3   OH238994   1.548   1.469  13.536  0.1643  0.2045  0.1742
 5860TIP3    H138995   1.634   1.450  13.572  0.2101  2.3447  1.3947
 5860TIP3    H238996   1.501   1.385  13.538  2.1164 -0.9401 -0.3156
 5861TIP3   OH238997   2.931   4.373   6.071  0.1889 -0.4454 -0.0385
 5861TIP3    H138998   3.014   4.329   6.093  0.2248  0.5688  2.1513
 5861TIP3    H238999   2.900   4.327   5.993  2.0429 -1.8708 -0.0314
 5862TIP3   OH239000   0.993   0.348   5.664  0.1055  0.3560 -0.1599
 5862TIP3    H139001   1.070   0.316   5.711 -0.5682  1.0237  1.4901
 5862TIP3    H239002   1.027   0.382   5.581  1.1396 -2.2237 -0.8744
 5863TIP3   OH239003   2.992   4.160  13.818 -0.0255  0.0543 -0.0617
 5863TIP3    H139004   2.992   4.178  13.912 -1.7445 -1.4655  0.2849
 5863TIP3    H239005   2.968   4.244  13.778  1.5272  0.9326  0.7522
 5864TIP3   OH239006   6.162   4.618  11.561 -0.5106 -0.0417 -0.0487
 5864TIP3    H139007   6.174   4.556  11.489  1.9893  1.2677 -0.8927
 5864TIP3    H239008   6.145   4.563  11.637 -0.0438 -1.6741 -1.0701
 5865TIP3   OH239009   5.998   0.899  16.245  0.1789  0.1930  0.5541
 5865TIP3    H139010   6.053   0.827  16.213 -1.8942 -0.8387 -0.9028
 5865TIP3    H239011   6.057   0.975  16.248  1.6286 -0.7905 -1.1508
 5866TIP3   OH239012   5.818   4.650   0.279  0.0757 -0.4481 -0.6133
 5866TIP3    H139013   5.878   4.579   0.257 -1.4626 -2.1827  0.5521
 5866TIP3    H239014   5.866   4.702   0.344  0.8849 -0.8966 -0.8302
 5867TIP3   OH239015   3.315   2.268  12.877 -0.1791  0.0175  0.3398
 5867TIP3    H139016   3.386   2.287  12.938 -2.1627  1.0797  2.4200
 5867TIP3    H239017   3.300   2.174  12.887  0.5195 -0.1054  0.3145
 5868TIP3   OH239018   0.552   5.288  11.615  0.5419 -0.2094  0.3183
 5868TIP3    H139019   0.555   5.304  11.521 -1.4903  1.2151  0.4356
 5868TIP3    H239020   0.486   5.349  11.648  0.9770 -0.8856  2.6363
 5869TIP3   OH239021   6.253   2.326  12.016  0.2440 -0.1550  0.0149
 5869TIP3    H139022   6.320   2.340  12.083 -0.0956  1.1015  0.1101
 5869TIP3    H239023   6.303   2.314  11.935  0.6534 -1.6046  0.4569
 5870TIP3   OH239024   2.620   6.244  12.901 -0.1941 -0.7134  0.1041
 5870TIP3    H139025   2.531   6.209  12.903 -0.7484  0.3387 -2.0394
 5870TIP3    H239026   2.609   6.335  12.874  1.4455  0.0038  1.6318
 5871TIP3   OH239027   6.454   1.738  12.141 -0.1157  0.0678 -0.0063
 5871TIP3    H139028   6.537   1.705  12.105 -1.1363 -1.9420 -0.6504
 5871TIP3    H239029   6.428   1.808  12.081  0.5529 -0.0318 -0.4222
 5872TIP3   OH239030   5.786   0.935   1.141 -0.0380 -0.5185  0.5534
 5872TIP3    H139031   5.880   0.942   1.123 -0.0890 -0.2425  0.3796
 5872TIP3    H239032   5.764   1.017   1.185 -0.1006 -0.7950  1.0512
 5873TIP3   OH239033   6.072   6.073   0.712  0.0914 -0.0706  0.6002
 5873TIP3    H139034   6.155   6.113   0.739  0.6248 -1.2537  0.7957
 5873TIP3    H239035   6.059   6.002   0.774  0.5085 -1.8441 -1.2327
 5874TIP3   OH239036   2.424   5.652   2.293 -0.5473  0.0313 -0.1478
 5874TIP3    H139037   2.347   5.708   2.287 -0.5475  0.0133 -0.3528
 5874TIP3    H239038   2.433   5.615   2.204 -0.4121 -0.1096 -0.0764
 5875TIP3   OH239039   1.170   2.987   3.270 -0.1130 -0.1992 -0.2723
 5875TIP3    H139040   1.130   2.936   3.340  3.0363 -1.4151  0.7933
 5875TIP3    H239041   1.207   3.064   3.314 -1.1192  0.8725 -1.2171
 5876TIP3   OH239042   6.212   6.478  15.892  0.2587 -0.3495 -0.1086
 5876TIP3    H139043   6.186   6.536  15.964  0.5627 -1.0260  0.5673
 5876TIP3    H239044   6.275   6.530  15.842 -0.0332  0.1687  0.0446
 5877TIP3   OH239045   0.996   2.934   1.507  0.0503  0.2253 -0.6798
 5877TIP3    H139046   1.065   2.999   1.525 -0.2410  0.4257 -0.2539
 5877TIP3    H239047   1.020   2.896   1.423  1.1511 -0.3237 -0.1432
 5878TIP3   OH239048   2.760   2.780   5.609  0.0098  0.1885 -0.2273
 5878TIP3    H139049   2.742   2.844   5.539 -2.0708  0.3836  0.4024
 5878TIP3    H239050   2.688   2.793   5.671  2.6995  1.3161  2.9521
 5879TIP3   OH239051   4.466   1.016   3.339  0.0496  0.4390 -0.1777
 5879TIP3    H139052   4.384   0.970   3.359  0.9291 -1.3323 -0.4471
 5879TIP3    H239053   4.493   0.981   3.254  1.3001  0.6732  0.1033
 5880TIP3   OH239054   2.858   6.273  10.506 -0.2247 -1.1061 -0.2523
 5880TIP3    H139055   2.800   6.219  10.453  0.8384 -1.8416 -0.7150
 5880TIP3    H239056   2.887   6.215  10.577 -0.6788 -0.5037  0.4322
 5881TIP3   OH239057   3.299   3.115   5.820  0.2982 -0.6364  0.6731
 5881TIP3    H139058   3.247   3.095   5.742  0.9117  0.2198  0.0118
 5881TIP3    H239059   3.351   3.036   5.835  1.9209 -0.0375 -1.2465
 5882TIP3   OH239060   0.665   1.470  13.772 -0.6139 -0.2245  0.1883
 5882TIP3    H139061   0.645   1.448  13.681 -0.8087  0.7138 -0.0031
 5882TIP3    H239062   0.683   1.385  13.814 -2.5648 -0.8736 -0.2165
 5883TIP3   OH239063   5.500   6.708  15.113 -0.9396  0.3714 -0.3002
 5883TIP3    H139064   5.407   6.691  15.128 -0.6545 -0.0374  1.1823
 5883TIP3    H239065   5.525   6.648  15.043 -1.5773 -0.2106 -0.0399
 5884TIP3   OH239066   1.447   6.260   3.032 -0.3811  0.1465  0.4015
 5884TIP3    H139067   1.499   6.292   3.106  1.2291 -2.0618  0.3438
 5884TIP3    H239068   1.357   6.258   3.065  0.3143 -1.0090  2.4483
 5885TIP3   OH239069   2.100   3.700   5.748 -0.1315  0.0528 -0.3341
 5885TIP3    H139070   2.060   3.614   5.741 -0.3611  0.3036 -2.9153
 5885TIP3    H239071   2.194   3.683   5.744 -0.0881 -0.1874  1.1632
 5886TIP3   OH239072   2.685   2.689  13.451  0.1857  0.1972 -0.2932
 5886TIP3    H139073   2.648   2.776  13.468  1.4224  0.3409  1.9517
 5886TIP3    H239074   2.655   2.635  13.524 -0.2605 -1.2145 -1.4618
 5887TIP3   OH239075   3.444   4.025   0.204  0.3560 -0.0989 -0.2888
 5887TIP3    H139076   3.459   4.110   0.245 -0.2131 -0.2189  0.1798
 5887TIP3    H239077   3.350   4.021   0.189  0.2489 -0.9810  0.4781
 5888TIP3   OH239078   2.492   4.550   1.943  0.3935 -0.6076  0.0724
 5888TIP3    H139079   2.533   4.536   1.857 -0.8228 -0.9462 -0.4787
 5888TIP3    H239080   2.485   4.463   1.981 -0.9645 -0.7376 -0.4083
 5889TIP3   OH239081   4.071   1.575   2.474  0.4060  0.1995 -0.1472
 5889TIP3    H139082   4.012   1.588   2.400  0.9913 -1.2106 -0.8852
 5889TIP3    H239083   4.060   1.654   2.527 -1.2984  0.4592 -0.8384
 5890TIP3   OH239084   0.109   0.453   1.402 -0.3344 -0.1668  0.2259
 5890TIP3    H139085   0.034   0.483   1.455 -0.0725  0.5728  0.1909
 5890TIP3    H239086   0.184   0.496   1.442 -0.1971  0.9170 -1.1270
 5891TIP3   OH239087   5.094   6.330   1.566 -0.4306  0.3921 -0.3915
 5891TIP3    H139088   5.042   6.407   1.546  0.3527  0.9322 -0.4016
 5891TIP3    H239089   5.032   6.268   1.605 -1.5985  0.0576 -2.6456
 5892TIP3   OH239090   1.481   5.449  10.942 -0.0153  0.6372 -0.2209
 5892TIP3    H139091   1.539   5.502  10.886 -0.9185  0.8905 -0.9422
 5892TIP3    H239092   1.465   5.370  10.891  1.2802 -0.3549  0.8285
 5893TIP3   OH239093   6.689   0.028   4.317 -0.4540 -0.2071  0.5412
 5893TIP3    H139094   6.638   0.091   4.369 -0.8520  1.5998 -1.8616
 5893TIP3    H239095   6.774   0.024   4.360 -0.7541  1.2338  1.3422
 5894TIP3   OH239096   5.868   6.595   3.228  0.4134 -0.4303 -0.2280
 5894TIP3    H139097   5.855   6.654   3.154  1.1840 -0.2193 -0.2111
 5894TIP3    H239098   5.952   6.623   3.266 -0.4417  0.1362  1.3468
 5895TIP3   OH239099   6.133   3.929   2.252 -0.3811  0.0744  0.2569
 5895TIP3    H139100   6.050   3.901   2.291  0.2166 -1.8218  0.2978
 5895TIP3    H239101   6.121   3.915   2.158 -1.1857  2.9143 -0.1604
 5896TIP3   OH239102   0.897   6.580   5.088  0.4780  0.0274 -0.2730
 5896TIP3    H139103   0.844   6.522   5.033  0.2983  1.4013 -1.6209
 5896TIP3    H239104   0.982   6.582   5.044  0.8158 -0.0491  0.3678
 5897TIP3   OH239105   4.484   5.679  11.838 -0.0234 -0.3740 -0.0702
 5897TIP3    H139106   4.520   5.598  11.874  0.9158  0.8365  1.8727
 5897TIP3    H239107   4.524   5.687  11.751  2.3436 -0.4631  0.9475
 5898TIP3   OH239108   0.534   3.449  15.628  0.4502 -0.0079  0.4788
 5898TIP3    H139109   0.577   3.442  15.542  0.4372  0.9712  0.3744
 5898TIP3    H239110   0.591   3.509  15.678 -0.7236  1.2682  0.3570
 5899TIP3   OH239111   6.761   3.848   0.301 -0.0172  0.1855 -0.8692
 5899TIP3    H139112   6.733   3.804   0.221  1.3589 -0.6302 -0.9472
 5899TIP3    H239113   6.723   3.796   0.372  0.0699 -0.0349 -0.9832
 5900TIP3   OH239114   4.366   0.978   4.263  0.1941  0.4870 -0.3032
 5900TIP3    H139115   4.449   1.005   4.225  1.0749 -1.0322  0.4404
 5900TIP3    H239116   4.303   0.987   4.191  1.1637  0.8260 -1.1391
 5901TIP3   OH239117   0.560   0.037  14.857  0.3036  0.2196  0.6071
 5901TIP3    H139118   0.614   0.044  14.778 -1.4792 -0.7211 -0.7643
 5901TIP3    H239119   0.610  -0.021  14.915  1.3173  0.3656 -0.0850
 5902TIP3   OH239120   0.142   3.813   2.317  0.5145  0.1818  0.0331
 5902TIP3    H139121   0.183   3.727   2.311  0.1796 -0.0720  1.2081
 5902TIP3    H239122   0.048   3.796   2.308  0.1146 -0.0269  3.3552
 5903TIP3   OH239123   3.389   0.013  14.029 -0.5029 -0.7287 -0.3783
 5903TIP3    H139124   3.297  -0.002  14.049 -0.5274 -0.1553 -0.0335
 5903TIP3    H239125   3.423  -0.073  14.004 -1.3344 -0.7872 -1.3654
 5904TIP3   OH239126   5.387   3.293  12.665  0.3720  0.1135 -0.5432
 5904TIP3    H139127   5.313   3.331  12.713 -0.0661 -0.5399 -0.6856
 5904TIP3    H239128   5.359   3.296  12.573  0.6799  0.2018 -0.6348
 5905TIP3   OH239129   6.758   0.201   4.672  0.2592 -0.0744  0.0090
 5905TIP3    H139130   6.675   0.214   4.719 -0.4779 -0.2294 -1.2094
 5905TIP3    H239131   6.744   0.241   4.587  2.2165  1.8494  0.4837
 5906TIP3   OH239132   1.793   1.549   5.693  0.1306 -0.4698 -0.5239
 5906TIP3    H139133   1.829   1.541   5.604  0.5414  0.3761 -0.4386
 5906TIP3    H239134   1.761   1.461   5.713 -0.0737 -0.6524 -1.5553
 5907TIP3   OH239135   5.058   3.792  16.437  0.3217  0.1607 -0.1823
 5907TIP3    H139136   5.104   3.835  16.364  0.0288 -0.0491 -0.4882
 5907TIP3    H239137   4.973   3.768  16.402  0.8469 -1.6300 -0.3429
 5908TIP3   OH239138   6.505   4.274   1.321  0.4135  0.4864  0.7775
 5908TIP3    H139139   6.565   4.275   1.246  0.5125 -0.8200  0.8259
 5908TIP3    H239140   6.559   4.301   1.395  1.3851 -2.1525  1.1090
 5909TIP3   OH239141   5.518   5.482  12.019  0.0812  0.0117 -0.3210
 5909TIP3    H139142   5.528   5.397  12.062 -0.8837  0.7926  1.5344
 5909TIP3    H239143   5.426   5.505  12.030  0.2439  1.1541 -1.0988
 5910TIP3   OH239144   0.267   4.087   4.626 -0.0741  0.4093  0.2520
 5910TIP3    H139145   0.183   4.042   4.626 -0.8271  1.7717 -0.2963
 5910TIP3    H239146   0.258   4.154   4.694  0.5701  0.5769  0.1733
 5911TIP3   OH239147   6.032   1.088  15.615  0.0950 -0.5097  0.3449
 5911TIP3    H139148   5.967   1.128  15.557 -0.9929 -2.8139 -0.1624
 5911TIP3    H239149   5.987   1.011  15.651  1.8831 -1.0214  1.5993
 5912TIP3   OH239150   0.454   6.792   4.600 -0.6154 -0.1288 -0.0484
 5912TIP3    H139151   0.446   6.887   4.607 -0.9706 -0.1995  0.6479
 5912TIP3    H239152   0.454   6.774   4.506  1.3741  0.7110 -0.2726
 5913TIP3   OH239153   1.715   1.215   4.410  0.0762 -0.0422  0.3320
 5913TIP3    H139154   1.721   1.248   4.321  0.8123 -1.6821 -0.2503
 5913TIP3    H239155   1.779   1.267   4.459 -0.6544  1.1729  0.0405
 5914TIP3   OH239156   1.091   0.159  13.134 -0.1626  0.0603 -1.2431
 5914TIP3    H139157   1.035   0.202  13.070  0.3645  2.6730 -0.0700
 5914TIP3    H239158   1.067   0.197  13.218  1.0386 -1.2643 -0.2367
 5915TIP3   OH239159   4.275   5.201  12.077 -0.1689 -0.0684 -0.0997
 5915TIP3    H139160   4.211   5.207  12.007  0.2633  1.8520 -0.3885
 5915TIP3    H239161   4.312   5.113  12.069  0.2415  0.2755 -2.6251
 5916TIP3   OH239162   5.044   0.232   5.562  0.1023  0.1471 -0.6525
 5916TIP3    H139163   5.119   0.199   5.513 -0.4517  0.3777 -1.6945
 5916TIP3    H239164   5.075   0.237   5.653  1.1861 -0.2062 -0.9812
 5917TIP3   OH239165   3.930   2.024  16.669  0.4311 -0.0209  0.2368
 5917TIP3    H139166   3.989   2.078  16.722  0.2511 -0.3668  0.8045
 5917TIP3    H239167   3.915   2.075  16.590  1.1154  0.2825  0.2954
 5918TIP3   OH239168   2.319   5.608   1.770 -0.2777 -0.2624  0.3123
 5918TIP3    H139169   2.245   5.623   1.710 -0.2908  1.8424  0.7890
 5918TIP3    H239170   2.339   5.694   1.805  0.5716 -1.2472  2.3853
 5919TIP3   OH239171   6.288   5.101   1.346  0.3214 -0.6290  0.1669
 5919TIP3    H139172   6.254   5.058   1.267 -0.5164 -0.8878  0.6474
 5919TIP3    H239173   6.340   5.034   1.390 -2.2865 -1.8093  1.7510
 5920TIP3   OH239174   6.522   3.313   3.082  0.6506 -0.6299  0.1787
 5920TIP3    H139175   6.576   3.350   3.011  3.4173 -1.1294  1.8690
 5920TIP3    H239176   6.585   3.294   3.152 -2.1183  1.6778  3.6264
 5921TIP3   OH239177   4.259   1.145  16.673 -0.6920 -0.6074 -0.2622
 5921TIP3    H139178   4.224   1.234  16.664 -2.6949 -1.1095  1.5739
 5921TIP3    H239179   4.336   1.156  16.729 -1.3826 -0.0848  0.6142
 5922TIP3   OH239180   6.797   4.703  13.827 -0.3629 -0.4555  0.2563
 5922TIP3    H139181   6.822   4.636  13.764 -0.2318 -0.0312 -0.1506
 5922TIP3    H239182   6.834   4.784  13.792  0.3449 -0.3296  1.2586
 5923TIP3   OH239183   5.894   1.375   2.906 -0.6852  0.2308 -0.3765
 5923TIP3    H139184   5.982   1.410   2.894 -0.3363  0.4685  2.2711
 5923TIP3    H239185   5.903   1.281   2.889 -0.0827  0.3584 -0.7758
 5924TIP3   OH239186   3.085   4.164  12.088  0.1764  0.3129 -0.1482
 5924TIP3    H139187   2.990   4.176  12.093  0.2452  0.4531  1.1031
 5924TIP3    H239188   3.111   4.140  12.177  1.0879 -1.5302 -0.8601
 5925TIP3   OH239189   6.483   2.991  12.548  0.3042 -0.3173  0.2823
 5925TIP3    H139190   6.528   3.009  12.631  0.4173 -0.6033  0.2828
 5925TIP3    H239191   6.391   3.010  12.567  0.3107 -0.5017  0.5149
 5926TIP3   OH239192   1.725   4.804  10.826  0.1891 -0.0324  0.1249
 5926TIP3    H139193   1.802   4.842  10.785 -1.0200 -1.6172 -4.1285
 5926TIP3    H239194   1.662   4.876  10.831  0.4117  0.2349 -0.7855
 5927TIP3   OH239195   2.531   0.177  16.813 -0.3197  0.4413 -0.0827
 5927TIP3    H139196   2.576   0.171  16.897  1.2596  0.8885 -0.8673
 5927TIP3    H239197   2.483   0.094  16.806  0.9894 -0.3987  0.4562
 5928TIP3   OH239198   1.580   3.271  13.385  0.3479 -0.5522 -0.2565
 5928TIP3    H139199   1.663   3.260  13.431  0.4847  0.4275 -0.2518
 5928TIP3    H239200   1.558   3.364  13.397 -0.8921 -0.8616 -0.0097
 5929TIP3   OH239201   2.379   1.609  12.986 -0.2102 -0.4169  0.1088
 5929TIP3    H139202   2.415   1.520  12.981  1.2654  0.1513  0.3596
 5929TIP3    H239203   2.439   1.663  12.936 -1.3262  0.4046 -0.3966
 5930TIP3   OH239204   2.765   6.474  16.313 -0.1505  0.1652 -0.0772
 5930TIP3    H139205   2.678   6.468  16.353 -0.4125 -1.0059 -0.7772
 5930TIP3    H239206   2.755   6.539  16.244 -0.0258  1.2413  0.8786
 5931TIP3   OH239207   5.741   4.884   1.333  0.0764 -0.2246 -0.0346
 5931TIP3    H139208   5.797   4.845   1.266  0.2204 -0.3078  0.1337
 5931TIP3    H239209   5.670   4.925   1.283  0.6109  0.4211 -0.2849
 5932TIP3   OH239210   3.219   5.727   4.222  0.3334 -0.1685  0.3515
 5932TIP3    H139211   3.258   5.673   4.290  0.7941 -0.2721  0.0144
 5932TIP3    H239212   3.259   5.813   4.234  0.5774 -0.2422  0.0824
 5933TIP3   OH239213   2.149   2.077  10.856 -0.4271  0.2617  0.5179
 5933TIP3    H139214   2.113   2.046  10.939 -1.9581 -1.2735 -0.6351
 5933TIP3    H239215   2.138   2.003  10.796  0.6552  1.3100 -1.0483
 5934TIP3   OH239216   1.815   5.302  13.613  0.2324 -0.2870  0.1939
 5934TIP3    H139217   1.769   5.254  13.681 -1.8516  1.9447  0.5277
 5934TIP3    H239218   1.907   5.296  13.636 -0.2946 -0.8984  2.3168
 5935TIP3   OH239219   0.008   0.319   1.185 -0.5215 -0.4734  0.2160
 5935TIP3    H139220  -0.070   0.305   1.237 -0.5807 -0.7628  0.0483
 5935TIP3    H239221   0.072   0.354   1.247 -1.7548  2.9968 -0.2459
 5936TIP3   OH239222   6.485   4.446  13.851  0.5016  0.6235 -0.1559
 5936TIP3    H139223   6.486   4.394  13.931 -0.1011  0.9483  0.0675
 5936TIP3    H239224   6.501   4.536  13.879  1.2989  0.6106 -0.5177
 5937TIP3   OH239225   1.915   1.086  14.945 -0.3585  0.1419 -0.1181
 5937TIP3    H139226   1.905   0.991  14.940 -0.4327  0.0596  1.1999
 5937TIP3    H239227   1.944   1.112  14.858 -0.4668 -1.0730 -0.5313
 5938TIP3   OH239228   5.025   5.790   5.009  0.2156  0.4800 -0.0496
 5938TIP3    H139229   4.978   5.841   4.943 -0.1684  0.5584  0.2849
 5938TIP3    H239230   4.996   5.826   5.093 -0.6859 -0.8367  0.2245
 5939TIP3   OH239231   2.530   1.600  13.241 -0.1689  0.1097  0.0917
 5939TIP3    H139232   2.456   1.615  13.182 -1.1504 -0.7150  1.0691
 5939TIP3    H239233   2.494   1.546  13.312  1.0791  0.6837  1.2139
 5940TIP3   OH239234   3.080   5.607   2.262  0.4066 -0.0643  0.2371
 5940TIP3    H139235   3.147   5.675   2.260 -0.9369  1.3202 -0.3924
 5940TIP3    H239236   3.051   5.603   2.353  1.1322 -0.4627  0.4527
 5941TIP3   OH239237   6.410   1.911   4.400 -0.3094  0.0267 -0.3873
 5941TIP3    H139238   6.421   1.890   4.307 -0.8166  0.9940 -0.6752
 5941TIP3    H239239   6.321   1.883   4.421 -0.6412  0.9733 -0.5225
 5942TIP3   OH239240   3.948   1.268   0.595 -0.2379 -0.3326  0.3581
 5942TIP3    H139241   3.892   1.342   0.570  0.4340  0.2562  0.5499
 5942TIP3    H239242   3.898   1.191   0.569 -0.4372  0.2111 -0.9857
 5943TIP3   OH239243   4.430   1.815  13.827  0.0160 -0.1628 -0.1353
 5943TIP3    H139244   4.344   1.771  13.823 -0.0061 -0.0310 -2.7694
 5943TIP3    H239245   4.410   1.903  13.859 -0.6432 -0.4861  0.3783
 5944TIP3   OH239246   5.251   6.537   1.038 -0.4823  0.0938 -0.5668
 5944TIP3    H139247   5.263   6.532   1.133  0.4370  1.0690 -0.6168
 5944TIP3    H239248   5.169   6.490   1.022 -1.0221  0.5284  0.7820
 5945TIP3   OH239249   2.649   3.419  16.277 -0.0265  0.4158 -0.5296
 5945TIP3    H139250   2.743   3.441  16.279  0.7987 -2.5851 -1.0979
 5945TIP3    H239251   2.644   3.341  16.221 -2.4990 -1.0347  1.4806
 5946TIP3   OH239252   1.055   5.138  12.532  0.3255 -0.1027  0.8306
 5946TIP3    H139253   1.128   5.100  12.484 -1.6118 -0.0774 -2.5141
 5946TIP3    H239254   0.999   5.064  12.555  0.5277  0.0278  1.7830
 5947TIP3   OH239255   0.363   1.251  11.345  0.2717 -0.2647  0.4810
 5947TIP3    H139256   0.357   1.345  11.326  0.8869  0.4371  3.2121
 5947TIP3    H239257   0.305   1.210  11.282  2.3867  1.5438 -2.9593
 5948TIP3   OH239258   4.843   2.247  15.428 -0.7683 -0.2296 -0.1942
 5948TIP3    H139259   4.852   2.342  15.422  0.5726 -0.3841 -0.9316
 5948TIP3    H239260   4.869   2.226  15.518 -0.4599  0.0404 -0.2202
 5949TIP3   OH239261   3.705   1.004   4.224  0.4011  0.0399 -0.0063
 5949TIP3    H139262   3.764   1.076   4.203  0.7124 -0.4114 -0.7510
 5949TIP3    H239263   3.763   0.930   4.241  0.0750 -0.1456  0.3197
 5950TIP3   OH239264   5.092   2.416  12.626  0.6612 -0.0557 -0.1745
 5950TIP3    H139265   5.058   2.505  12.631 -0.1266 -0.3439 -0.2585
 5950TIP3    H239266   5.037   2.373  12.561  0.7045 -0.7490  0.2406
 5951TIP3   OH239267   0.088   2.364   0.164 -0.1613  0.6205 -0.3309
 5951TIP3    H139268   0.160   2.425   0.147 -0.1693  1.0657  1.0722
 5951TIP3    H239269   0.041   2.404   0.238 -0.1336 -1.1145  0.6643
 5952TIP3   OH239270   0.970   5.210   4.989  0.2758 -0.7713  0.1423
 5952TIP3    H139271   1.027   5.283   4.964  1.2006 -0.7367  2.1284
 5952TIP3    H239272   0.894   5.252   5.029  0.9234 -0.8519  1.5164
 5953TIP3   OH239273   3.137   1.507   4.084  0.1529  0.6094 -0.1679
 5953TIP3    H139274   3.206   1.451   4.050 -1.0948 -1.2855  0.2832
 5953TIP3    H239275   3.076   1.447   4.127 -0.3646  2.5024  1.8958
 5954TIP3   OH239276   2.414   4.028  11.463  0.0135 -0.5259 -0.2708
 5954TIP3    H139277   2.394   3.987  11.379 -1.8129 -0.9500  0.3097
 5954TIP3    H239278   2.356   4.104  11.467  1.1930  0.3845 -0.0304
 5955TIP3   OH239279   5.919   3.965  11.176 -0.1068  0.2311 -0.0127
 5955TIP3    H139280   6.000   3.976  11.227 -0.1045  0.7828 -0.1366
 5955TIP3    H239281   5.946   3.975  11.085 -0.6396  2.5879  0.0176
 5956TIP3   OH239282   0.161   3.236   2.002  0.2650 -0.1518 -0.1153
 5956TIP3    H139283   0.091   3.249   1.939 -0.3233  0.7988  0.6994
 5956TIP3    H239284   0.232   3.293   1.971  0.3053 -0.3545 -0.3955
 5957TIP3   OH239285   3.194   3.843   3.602 -0.0759  0.1216 -0.4168
 5957TIP3    H139286   3.245   3.887   3.670 -1.3404 -1.2316  1.4706
 5957TIP3    H239287   3.255   3.836   3.528  1.2477  1.8683  0.4369
 5958TIP3   OH239288   6.343   4.801  16.511  0.3879 -0.0737 -0.2108
 5958TIP3    H139289   6.339   4.873  16.449 -0.7363  0.0716  0.0032
 5958TIP3    H239290   6.265   4.812  16.566 -0.3089 -1.9566 -0.7376
 5959TIP3   OH239291   5.009   4.758   5.160 -0.4510 -0.5426 -0.1895
 5959TIP3    H139292   4.981   4.667   5.153  0.4830 -0.9956  1.3095
 5959TIP3    H239293   5.099   4.753   5.194 -0.3883  0.9294 -0.0486
 5960TIP3   OH239294   0.697   4.319  11.466  0.2086 -0.3092  0.0042
 5960TIP3    H139295   0.729   4.409  11.472  1.5420 -0.7240 -0.4389
 5960TIP3    H239296   0.777   4.266  11.460 -0.5411 -1.5434  0.5501
 5961TIP3   OH239297   3.903   1.426   1.389  0.0360 -0.4371  0.8521
 5961TIP3    H139298   3.953   1.359   1.342  0.6775  0.7193 -0.1754
 5961TIP3    H239299   3.954   1.506   1.378 -0.1914  0.0528  2.9033
 5962TIP3   OH239300   0.337   4.178  12.494  0.3347 -0.5816  0.3867
 5962TIP3    H139301   0.382   4.262  12.491  0.5817 -0.7031  0.7308
 5962TIP3    H239302   0.351   4.146  12.583 -0.9842 -0.3151  0.7176
 5963TIP3   OH239303   1.410   1.907   0.606  0.3192  0.4738  0.0188
 5963TIP3    H139304   1.436   1.907   0.514  0.1171 -2.1985 -0.1068
 5963TIP3    H239305   1.315   1.915   0.603  0.2640 -0.1465 -0.0547
 5964TIP3   OH239306   3.718   4.087  13.425 -0.1159 -0.0104 -0.1795
 5964TIP3    H139307   3.711   3.997  13.393 -0.1745  0.4788 -1.5915
 5964TIP3    H239308   3.766   4.078  13.508 -1.9475 -1.5351  0.8089
 5965TIP3   OH239309   0.710   5.393  12.143  0.2489 -0.0012 -0.2355
 5965TIP3    H139310   0.637   5.342  12.106 -0.3972 -0.7545  1.9408
 5965TIP3    H239311   0.766   5.327  12.185 -0.3611  0.9569  2.2509
 5966TIP3   OH239312   1.673   6.534   3.700 -1.1869  0.2689 -0.4823
 5966TIP3    H139313   1.691   6.474   3.772 -0.9245  1.2763  0.3109
 5966TIP3    H239314   1.577   6.541   3.699 -1.1311  2.4755  1.6992
 5967TIP3   OH239315   1.085   1.385   0.267 -0.4091  0.1061 -0.4629
 5967TIP3    H139316   1.024   1.392   0.195 -1.2387  1.0137  0.3001
 5967TIP3    H239317   1.036   1.341   0.336  0.2961 -0.5443 -0.3637
 5968TIP3   OH239318   3.182   4.213   2.934  0.0781  0.3225  0.2412
 5968TIP3    H139319   3.174   4.217   3.030  1.7385  2.4524  0.3845
 5968TIP3    H239320   3.154   4.300   2.905  0.2368 -0.0823 -1.1477
 5969TIP3   OH239321   0.554   3.414   1.034 -1.0640 -0.4333  0.3270
 5969TIP3    H139322   0.518   3.451   0.953  1.2014 -0.0501 -0.5654
 5969TIP3    H239323   0.548   3.485   1.098  1.4688  0.9664 -0.8489
 5970TIP3   OH239324   3.916   4.169  12.893 -0.0087 -0.3350  0.3400
 5970TIP3    H139325   3.902   4.139  12.983 -1.9773  0.6467  0.4064
 5970TIP3    H239326   4.003   4.210  12.894 -0.7973  1.4306  2.3107
 5971TIP3   OH239327   5.187   5.613  10.473  0.1520 -0.1712  0.3141
 5971TIP3    H139328   5.109   5.607  10.417 -0.6548  1.8163  1.1180
 5971TIP3    H239329   5.156   5.589  10.560 -0.1442  2.4831  1.0377
 5972TIP3   OH239330   0.444   4.346   4.706 -0.1323 -0.5592 -0.1473
 5972TIP3    H139331   0.445   4.350   4.610  0.1328 -0.3695 -0.1369
 5972TIP3    H239332   0.429   4.437   4.733 -1.1302 -0.7483 -0.0220
 5973TIP3   OH239333   3.803   2.228   6.228  0.0496  0.0630 -0.1466
 5973TIP3    H139334   3.740   2.297   6.209  0.6459  0.1969 -1.8224
 5973TIP3    H239335   3.781   2.199   6.316 -2.5511 -0.1284 -0.7783
 5974TIP3   OH239336   6.667   4.298  15.798  0.0318  0.3899  0.2857
 5974TIP3    H139337   6.610   4.371  15.773 -0.1310  0.2358  0.2113
 5974TIP3    H239338   6.755   4.327  15.774 -0.1935 -0.0402 -1.1286
 5975TIP3   OH239339   5.840   4.755   4.239  0.2221 -0.6458 -0.7081
 5975TIP3    H139340   5.872   4.807   4.312 -0.6569 -1.1824  0.0760
 5975TIP3    H239341   5.917   4.707   4.208  0.5493 -0.6064  0.0317
 5976TIP3   OH239342   6.750   6.719   3.270 -0.4038 -0.2488  0.3329
 5976TIP3    H139343   6.734   6.754   3.182  0.9181 -0.3497  0.0293
 5976TIP3    H239344   6.670   6.739   3.319 -1.0783 -0.0038 -0.8291
 5977TIP3   OH239345   4.705   4.880  14.813 -0.2944 -0.0410 -0.3313
 5977TIP3    H139346   4.742   4.802  14.855  0.9884 -0.4384 -2.0683
 5977TIP3    H239347   4.772   4.907  14.750 -1.8145  0.9166 -1.6247
 5978TIP3   OH239348   3.169   3.904  15.665  0.0107 -0.8144 -0.1817
 5978TIP3    H139349   3.253   3.938  15.634 -0.4377 -0.5991 -1.1850
 5978TIP3    H239350   3.135   3.853  15.592 -2.2217  1.7116 -1.0742
 5979TIP3   OH239351   6.088   3.708   5.099 -0.3063  0.1048  0.2535
 5979TIP3    H139352   6.076   3.613   5.091  0.0715  0.0715  0.0469
 5979TIP3    H239353   6.116   3.721   5.190  2.6382 -0.3265 -0.5096
 5980TIP3   OH239354   3.016   3.904  16.980 -0.2025  0.4801  0.5663
 5980TIP3    H139355   2.953   3.832  16.971 -0.6479  0.8868  0.3659
 5980TIP3    H239356   3.102   3.861  16.980 -0.4634 -0.0544  0.5150
 5981TIP3   OH239357   4.537   5.444   2.391 -0.8532 -0.1874  0.1626
 5981TIP3    H139358   4.575   5.480   2.311  0.3843 -0.3085  0.6657
 5981TIP3    H239359   4.605   5.456   2.457 -1.3779 -1.2023  0.9183
 5982TIP3   OH239360   1.983   5.067   3.355 -0.0958 -0.6337  0.1924
 5982TIP3    H139361   1.945   5.085   3.441 -0.5687 -1.3281  0.1297
 5982TIP3    H239362   2.076   5.088   3.365 -0.6240  2.1594  0.0481
 5983TIP3   OH239363   6.244   5.094  11.905  0.0497  0.1090  0.2062
 5983TIP3    H139364   6.213   5.045  11.981 -0.5520  0.1491 -0.0128
 5983TIP3    H239365   6.185   5.169  11.898 -0.5021 -0.4065 -0.8719
 5984TIP3   OH239366   3.709   3.784  12.603 -0.5160  0.3081  0.1105
 5984TIP3    H139367   3.650   3.728  12.553 -0.2843  0.6128 -0.5121
 5984TIP3    H239368   3.729   3.734  12.682 -1.0521 -0.0876 -0.0024
 5985TIP3   OH239369   6.601   2.291   2.718  0.0986  0.2867 -0.3542
 5985TIP3    H139370   6.558   2.319   2.637  1.1414 -1.4939 -1.5777
 5985TIP3    H239371   6.562   2.206   2.739  1.0647 -0.0819  0.0374
 5986TIP3   OH239372   1.491   4.483  16.167 -0.2678 -0.1524  0.0862
 5986TIP3    H139373   1.455   4.420  16.230 -0.5197  1.0828  1.2243
 5986TIP3    H239374   1.585   4.488  16.189  0.3010 -1.9904 -1.6741
 5987TIP3   OH239375   5.387   1.068   0.039 -0.1006 -0.0681 -0.3485
 5987TIP3    H139376   5.317   1.098   0.097  0.3594  0.7691 -0.2090
 5987TIP3    H239377   5.370   1.112  -0.044 -0.1173 -0.3924 -0.5194
 5988TIP3   OH239378   5.706   1.697   1.316  0.0608  0.2701  0.2251
 5988TIP3    H139379   5.730   1.657   1.400  1.5585 -0.1268 -0.3677
 5988TIP3    H239380   5.680   1.786   1.339  0.2200  0.0911  1.1497
 5989TIP3   OH239381   6.034   4.167   5.275 -0.6039  0.2271 -0.3503
 5989TIP3    H139382   5.948   4.191   5.310 -1.3629 -1.0839 -1.1908
 5989TIP3    H239383   6.013   4.113   5.198  0.9703  2.1058 -2.1992
 5990TIP3   OH239384   4.196   4.650   3.261 -0.0803  0.5151 -0.2171
 5990TIP3    H139385   4.177   4.684   3.348  0.2902  0.4111 -0.0926
 5990TIP3    H239386   4.127   4.587   3.244  1.4039 -1.6191  1.1966
 5991TIP3   OH239387   1.554   1.556  16.602 -0.0946  0.6378 -0.3024
 5991TIP3    H139388   1.510   1.515  16.528 -1.3165  0.4879  0.4690
 5991TIP3    H239389   1.563   1.648  16.576 -3.1862  1.2715  0.4327
 5992TIP3   OH239390   3.944   2.676  12.717  0.3385  0.1229 -0.0957
 5992TIP3    H139391   3.894   2.714  12.790  0.1434 -1.6020  0.7065
 5992TIP3    H239392   3.896   2.704  12.639  0.2030  1.4910  0.4356
 5993TIP3   OH239393   5.778   2.809  15.348  0.4630 -0.7009 -0.9344
 5993TIP3    H139394   5.845   2.790  15.413 -0.3605 -2.9709 -0.6588
 5993TIP3    H239395   5.724   2.877  15.389  1.9490  0.4355 -0.7607
 5994TIP3   OH239396   2.185   6.042  17.002 -0.0058  0.0137  0.1437
 5994TIP3    H139397   2.251   6.093  17.049  1.1714 -1.8081  0.5927
 5994TIP3    H239398   2.208   6.052  16.910  0.7609 -0.3991  0.2827
 5995TIP3   OH239399   2.972   3.879  15.097 -0.0679  0.3576  0.5000
 5995TIP3    H139400   2.920   3.905  15.173 -2.8906  1.2518 -1.5585
 5995TIP3    H239401   2.952   3.945  15.030  1.9985 -0.5775 -1.1727
 5996TIP3   OH239402   3.621   4.292  15.642  0.0693  0.1341  0.9182
 5996TIP3    H139403   3.689   4.243  15.595  0.1538  1.1792 -0.0871
 5996TIP3    H239404   3.632   4.267  15.734 -0.3101 -2.2340  0.3872
 5997TIP3   OH239405   1.920   1.198  16.248 -0.0172 -0.5903 -0.3372
 5997TIP3    H139406   1.940   1.190  16.342  1.5005  0.6374 -0.5278
 5997TIP3    H239407   1.987   1.257  16.214 -1.4241  0.1608 -1.9332
 5998TIP3   OH239408   6.234   1.291  12.368  0.3901  0.2301 -0.2471
 5998TIP3    H139409   6.142   1.296  12.395  0.0382 -1.9822 -0.8896
 5998TIP3    H239410   6.234   1.317  12.276  0.4746  0.5370 -0.1629
 5999TIP3   OH239411   6.084   2.881  12.652  0.3621 -0.3155 -0.4637
 5999TIP3    H139412   6.076   2.958  12.595  0.1751 -0.9739 -1.3438
 5999TIP3    H239413   6.131   2.817  12.599  2.2764 -0.1607  0.9409
 6000TIP3   OH239414   4.687   2.738   6.211  0.0171  0.2346  0.2724
 6000TIP3    H139415   4.705   2.705   6.299  0.9475 -1.3224 -0.4537
 6000TIP3    H239416   4.593   2.721   6.198  0.2381 -1.1349  0.3414
 6001TIP3   OH239417   6.464   3.144  15.832 -0.1795  0.1072  0.2015
 6001TIP3    H139418   6.452   3.238  15.847  3.1205  0.5265  0.8367
 6001TIP3    H239419   6.547   3.137  15.786 -0.7120 -2.5022 -0.5219
 6002TIP3   OH239420   2.808   6.088   5.542 -0.0243  0.6647 -0.2552
 6002TIP3    H139421   2.718   6.084   5.573  0.1402 -1.1674  0.1038
 6002TIP3    H239422   2.859   6.040   5.607  0.9673  0.3231 -1.2440
 6003TIP3   OH239423   1.214   0.912   1.503 -0.2161 -0.0629 -0.2763
 6003TIP3    H139424   1.197   0.831   1.456 -1.3528 -0.3178  0.5295
 6003TIP3    H239425   1.205   0.889   1.595 -1.2458  1.1161 -0.0538
 6004TIP3   OH239426   6.477   6.687  13.056 -0.2166  0.0551  0.2571
 6004TIP3    H139427   6.385   6.669  13.036 -0.2319 -1.0441  1.2306
 6004TIP3    H239428   6.510   6.606  13.093  0.8440  0.8044  1.0074
 6005TIP3   OH239429   3.379   1.937  10.379  0.0228 -0.3669 -0.6276
 6005TIP3    H139430   3.472   1.917  10.366 -0.0560 -0.0129 -1.8427
 6005TIP3    H239431   3.333   1.858  10.350 -0.0584 -0.6562  0.2527
 6006TIP3   OH239432   5.720   0.693  13.654  0.1025 -0.6452  0.2185
 6006TIP3    H139433   5.688   0.735  13.733  0.0807 -0.6734  0.2251
 6006TIP3    H239434   5.749   0.765  13.598 -0.1171 -0.6109  0.1485
 6007TIP3   OH239435   4.735   3.084  14.114  0.6369  0.0433 -0.3774
 6007TIP3    H139436   4.798   3.143  14.155  1.0078  1.0322 -2.2807
 6007TIP3    H239437   4.789   3.021  14.066  0.1957 -0.0182 -0.8025
 6008TIP3   OH239438   1.002   4.948   3.158 -0.3840  0.1624 -0.3141
 6008TIP3    H139439   1.018   4.982   3.246  0.5503  0.9393 -0.7645
 6008TIP3    H239440   0.971   5.024   3.108  0.5384  0.0878 -1.0239
 6009TIP3   OH239441   3.908   2.828  14.624  0.1770 -0.3215 -0.4388
 6009TIP3    H139442   3.903   2.771  14.700  1.1702 -0.6249 -0.5853
 6009TIP3    H239443   4.002   2.837  14.606 -0.0132  0.2669 -1.2355
 6010TIP3   OH239444   3.910   5.722   2.910  0.5263  0.2512  0.2635
 6010TIP3    H139445   3.850   5.715   2.836 -0.3684 -0.5241  1.0373
 6010TIP3    H239446   3.992   5.684   2.878  0.0820 -0.2813 -0.2576
 6011TIP3   OH239447   0.756   0.908  12.828  0.3284 -0.2514 -0.0161
 6011TIP3    H139448   0.676   0.882  12.781 -0.0362  0.4055  0.2158
 6011TIP3    H239449   0.775   0.996  12.794  0.1066  0.2018  0.9924
 6012TIP3   OH239450   2.702   1.240  13.557  0.4515  0.3883  0.0362
 6012TIP3    H139451   2.633   1.232  13.623  1.5901  0.6060  1.2721
 6012TIP3    H239452   2.656   1.227  13.474 -1.6674  3.4024  0.5675
 6013TIP3   OH239453   1.322   3.981  16.174  0.2818 -0.4314  0.2107
 6013TIP3    H139454   1.331   3.898  16.220 -0.7353  0.3109  1.8141
 6013TIP3    H239455   1.230   3.985  16.148  0.1002  0.5548  0.9250
 6014TIP3   OH239456   5.624   5.595  16.237 -0.6324 -0.0516 -0.0677
 6014TIP3    H139457   5.623   5.521  16.298  0.1266 -0.6059 -0.7161
 6014TIP3    H239458   5.672   5.664  16.284 -0.2339 -0.4018  0.0390
 6015TIP3   OH239459   6.696   0.789   0.252 -0.8164 -0.4785 -0.4052
 6015TIP3    H139460   6.692   0.807   0.346  0.8993 -0.2270 -0.3383
 6015TIP3    H239461   6.786   0.758   0.238 -0.7735  0.3048 -2.0867
 6016TIP3   OH239462   3.302   6.467   4.007  0.3040 -0.2500 -0.1259
 6016TIP3    H139463   3.319   6.384   4.053 -0.1639  0.3320  1.1583
 6016TIP3    H239464   3.210   6.484   4.024  0.4515  0.6350 -0.2074
 6017TIP3   OH239465   3.284   5.972  16.964  0.2718  0.1270 -0.0420
 6017TIP3    H139466   3.373   5.939  16.949  0.0370  0.5306 -2.8350
 6017TIP3    H239467   3.296   6.046  17.024  1.4596 -1.3648  1.6792
 6018TIP3   OH239468   0.942   6.794   0.211  0.7324 -0.1900  0.3289
 6018TIP3    H139469   0.862   6.819   0.166  1.1259 -0.7845 -0.7332
 6018TIP3    H239470   0.989   6.738   0.149  1.7562 -0.2326  1.1012
 6019TIP3   OH239471   0.076   1.830  16.144 -0.1850 -0.0728 -0.3518
 6019TIP3    H139472   0.036   1.889  16.080 -1.5112 -2.0096 -1.4104
 6019TIP3    H239473   0.157   1.800  16.102  1.1674  1.8270  0.7076
 6020TIP3   OH239474   0.451   1.795   1.910  0.3172  0.3854  0.1765
 6020TIP3    H139475   0.367   1.766   1.875  0.2165 -0.5553  1.1531
 6020TIP3    H239476   0.487   1.719   1.954  0.4082  1.5233  2.1879
 6021TIP3   OH239477   2.593   6.126  14.395 -0.0052  0.2349 -0.8659
 6021TIP3    H139478   2.564   6.038  14.419 -0.4562  0.2695 -1.2846
 6021TIP3    H239479   2.638   6.158  14.474 -0.0064 -0.2922 -0.6454
 6022TIP3   OH239480   3.740   5.718  10.916  0.3921 -0.1676  0.0318
 6022TIP3    H139481   3.744   5.641  10.858 -1.1159  0.2445 -0.6836
 6022TIP3    H239482   3.804   5.779  10.879  0.4025 -0.4374 -0.4067
 6023TIP3   OH239483   3.533   4.749  15.326 -0.5928  0.1175  0.1260
 6023TIP3    H139484   3.582   4.832  15.329  1.7073 -1.1522  0.1031
 6023TIP3    H239485   3.596   4.683  15.355 -1.2676 -2.1214 -3.0296
 6024TIP3   OH239486   1.867   4.310   0.602 -0.1496 -0.1994  0.0590
 6024TIP3    H139487   1.829   4.355   0.527  0.5098  0.7372  0.2679
 6024TIP3    H239488   1.959   4.296   0.578 -0.0109 -0.1737  0.5657
 6025TIP3   OH239489   6.399   5.458  13.090 -0.4435 -0.1900  0.1370
 6025TIP3    H139490   6.404   5.542  13.044 -0.8441  0.8311  1.8425
 6025TIP3    H239491   6.483   5.416  13.074  0.4260  1.3015  0.5916
 6026TIP3   OH239492   2.405   3.672   2.070  0.2318  0.1168  0.4818
 6026TIP3    H139493   2.489   3.643   2.105  0.6816 -0.1384 -0.7592
 6026TIP3    H239494   2.418   3.674   1.975 -1.2142 -0.0949  0.2577
 6027TIP3   OH239495   2.689   2.974   1.038  0.2569  0.6006 -0.0798
 6027TIP3    H139496   2.670   2.914   1.110  1.6056 -0.2819 -0.4310
 6027TIP3    H239497   2.607   2.979   0.989  0.1688 -1.1500 -0.1696
 6028TIP3   OH239498   4.656   5.193   2.593  0.1483  0.3569 -0.0396
 6028TIP3    H139499   4.588   5.259   2.605 -0.4548 -0.2276 -0.1944
 6028TIP3    H239500   4.724   5.236   2.542 -0.2840  0.8228 -0.2178
 6029TIP3   OH239501   0.859   2.382  11.799  0.0978 -0.0226 -0.2051
 6029TIP3    H139502   0.849   2.360  11.892  2.7064 -1.6016 -0.2042
 6029TIP3    H239503   0.941   2.432  11.795 -0.4186  0.7706 -1.5990
 6030TIP3   OH239504   1.210   0.683   3.940 -0.2869  0.0278  0.5630
 6030TIP3    H139505   1.118   0.686   3.915 -0.0777 -0.2049 -0.2525
 6030TIP3    H239506   1.209   0.649   4.029 -0.9178 -1.2336  0.0992
 6031TIP3   OH239507   2.793   5.667   1.159 -0.4617  0.3249  0.6982
 6031TIP3    H139508   2.876   5.677   1.112  0.1544 -0.6056  1.5519
 6031TIP3    H239509   2.815   5.676   1.251 -1.3182  0.1355  0.9344
 6032TIP3   OH239510   0.004   2.504   0.814  0.1950 -0.1708  0.1791
 6032TIP3    H139511  -0.059   2.511   0.742  1.4895 -0.9818 -1.0773
 6032TIP3    H239512   0.036   2.593   0.827  0.4615 -0.1288 -0.7248
 6033TIP3   OH239513   6.109   2.796  15.713  0.1811 -0.1732 -0.1400
 6033TIP3    H139514   6.149   2.710  15.723  0.7208  0.1230  0.3265
 6033TIP3    H239515   6.152   2.850  15.780  0.4091  0.6563 -0.9421
 6034TIP3   OH239516   5.116   5.580  10.741  0.4772  0.0323  0.1078
 6034TIP3    H139517   5.152   5.627  10.817  2.2192 -0.4730 -0.3723
 6034TIP3    H239518   5.108   5.489  10.771  1.3653 -0.2091 -0.3543
 6035TIP3   OH239519   1.997   3.833  14.419  0.4534 -0.0144 -0.3960
 6035TIP3    H139520   2.027   3.753  14.462 -1.0499  0.3862  1.5734
 6035TIP3    H239521   1.981   3.894  14.491 -0.1205  1.4613 -1.7148
 6036TIP3   OH239522   3.366   0.536   5.654 -0.3687  0.7576 -0.2884
 6036TIP3    H139523   3.394   0.453   5.618  2.1565  1.9877 -1.3670
 6036TIP3    H239524   3.274   0.545   5.627 -0.7359 -1.6659 -0.0200
 6037TIP3   OH239525   4.641   2.052  12.043 -0.0566 -0.9603 -0.0214
 6037TIP3    H139526   4.670   1.973  11.997 -0.5735 -0.9499 -0.3717
 6037TIP3    H239527   4.676   2.043  12.132  2.1016 -0.3405 -0.7566
 6038TIP3   OH239528   0.404   5.468  16.801  0.4535 -0.0748 -0.8987
 6038TIP3    H139529   0.394   5.541  16.739  0.8084 -2.2955 -3.7786
 6038TIP3    H239530   0.494   5.476  16.832 -0.8023  3.3846  2.7663
 6039TIP3   OH239531   0.203   0.593  10.796  0.0825 -0.4216 -0.0323
 6039TIP3    H139532   0.129   0.572  10.853  0.8127 -0.1738  1.0364
 6039TIP3    H239533   0.174   0.669  10.746 -1.9888 -2.7681 -2.7849
 6040TIP3   OH239534   4.972   5.913   0.750  0.1558 -0.0715  0.5855
 6040TIP3    H139535   4.940   5.827   0.777 -0.0433  0.0195  0.6425
 6040TIP3    H239536   4.893   5.966   0.739  0.2627  0.0322  0.3046
 6041TIP3   OH239537   1.978   3.914  11.980  0.8819 -0.0548 -0.0003
 6041TIP3    H139538   1.889   3.936  12.008  0.3854  0.6029 -1.9413
 6041TIP3    H239539   1.967   3.861  11.901  2.2175 -0.5482  0.1061
 6042TIP3   OH239540   1.685   1.433  13.827  0.2497  0.1748 -0.1341
 6042TIP3    H139541   1.591   1.415  13.829  0.4854 -1.1674  1.2011
 6042TIP3    H239542   1.701   1.491  13.902  0.7340 -1.2574  0.9228
 6043TIP3   OH239543   0.223   1.192  10.902 -0.2401 -0.5994 -0.0034
 6043TIP3    H139544   0.233   1.140  10.822  2.0315 -0.9295  0.4363
 6043TIP3    H239545   0.129   1.187  10.922 -0.2770 -3.7113 -0.5028
 6044TIP3   OH239546   3.281   2.544  11.463  0.5223 -0.6956 -0.5843
 6044TIP3    H139547   3.194   2.503  11.470  0.7073 -1.2181 -1.2675
 6044TIP3    H239548   3.296   2.583  11.549 -0.5929 -0.1982 -0.5982
 6045TIP3   OH239549   1.572   3.591   4.257  0.1518 -0.2875 -0.1297
 6045TIP3    H139550   1.581   3.503   4.295  0.2482  0.0699  0.6870
 6045TIP3    H239551   1.526   3.641   4.323  1.3883  0.6773  0.0412
 6046TIP3   OH239552   6.576   4.266  12.318  0.1721  0.1427 -0.3003
 6046TIP3    H139553   6.636   4.210  12.268  1.7520  0.8311  0.7636
 6046TIP3    H239554   6.620   4.351  12.322 -0.5363  0.4655  1.1325
 6047TIP3   OH239555   5.868   1.296  11.683 -0.2966 -0.0588  0.2802
 6047TIP3    H139556   5.827   1.335  11.605 -0.5828 -1.1683 -0.1403
 6047TIP3    H239557   5.837   1.205  11.683  2.0088 -0.9116  0.0586
 6048TIP3   OH239558   5.001   5.991   3.024  0.5311 -0.2859 -0.4769
 6048TIP3    H139559   4.986   6.073   3.071 -0.0385 -1.3189  1.1992
 6048TIP3    H239560   4.917   5.945   3.027  1.1404 -1.4237 -0.4153
 6049TIP3   OH239561   2.183   3.702   3.185  0.0232 -0.0349  0.2557
 6049TIP3    H139562   2.197   3.689   3.091 -0.8767  0.9229 -0.0369
 6049TIP3    H239563   2.203   3.617   3.224  2.7419  0.1697 -0.4891
 6050TIP3   OH239564   5.153   5.613   0.746  0.5212  0.5217  0.4056
 6050TIP3    H139565   5.228   5.620   0.806  1.2129  0.3626 -0.4165
 6050TIP3    H239566   5.097   5.687   0.769  0.6912  0.3667  1.3568
 6051TIP3   OH239567   5.450   5.279  13.938  0.2552  0.2189 -0.0879
 6051TIP3    H139568   5.514   5.213  13.967 -1.1537 -1.1529  0.0147
 6051TIP3    H239569   5.395   5.293  14.015 -0.1774  0.6509 -0.4747
 6052TIP3   OH239570   6.176   5.060  16.096 -0.1444  0.2665 -0.3077
 6052TIP3    H139571   6.091   5.056  16.141 -0.0541 -0.5802 -0.2028
 6052TIP3    H239572   6.239   5.077  16.165 -0.1544  0.2582 -0.2973
 6053TIP3   OH239573   4.952   1.792  12.836 -0.3297  0.7950  0.2271
 6053TIP3    H139574   5.003   1.869  12.861 -1.2458  1.5804 -0.2430
 6053TIP3    H239575   4.863   1.812  12.864 -0.9957  0.8307 -1.7614
 6054TIP3   OH239576   2.732   4.468   5.539  0.3308 -0.4075 -0.4962
 6054TIP3    H139577   2.788   4.546   5.529  0.4988 -0.3722  0.5766
 6054TIP3    H239578   2.716   4.462   5.633 -1.5195 -0.4003 -0.7725
 6055TIP3   OH239579   0.849   3.549  13.592  0.3818  0.4757 -0.1935
 6055TIP3    H139580   0.783   3.554  13.522  0.8986  1.2173 -0.6445
 6055TIP3    H239581   0.814   3.604  13.661  0.5304  0.8889 -0.4423
 6056TIP3   OH239582   1.440   2.850   1.293 -1.0116 -0.2669 -0.5257
 6056TIP3    H139583   1.529   2.816   1.288 -1.4336 -1.2371 -3.6493
 6056TIP3    H239584   1.392   2.786   1.344 -0.3564 -0.8832 -0.6710
 6057TIP3   OH239585   3.612   5.530   1.596 -0.0622 -0.3295  0.0225
 6057TIP3    H139586   3.572   5.515   1.681 -2.5611 -0.8428 -1.1390
 6057TIP3    H239587   3.690   5.474   1.596 -1.1062 -1.8680  1.2480
 6058TIP3   OH239588   5.871   5.597   1.410 -0.3967  0.1510  0.3552
 6058TIP3    H139589   5.792   5.543   1.407 -0.0885 -0.2719 -0.6728
 6058TIP3    H239590   5.942   5.536   1.387 -0.0599  1.0076 -0.9813
 6059TIP3   OH239591   0.696   2.513   0.612 -0.3619 -0.3817 -0.3333
 6059TIP3    H139592   0.671   2.599   0.578  0.1166  0.9097  2.2893
 6059TIP3    H239593   0.780   2.494   0.570 -0.2865  0.6369 -0.6760
 6060TIP3   OH239594   4.262   4.934   5.816 -0.6099  0.1570 -0.9353
 6060TIP3    H139595   4.237   4.842   5.822  0.0567  0.0536  0.7701
 6060TIP3    H239596   4.319   4.949   5.891  0.3694  1.6471 -1.8990
 6061TIP3   OH239597   6.149   1.800  12.248  0.2455  0.2751  0.3614
 6061TIP3    H139598   6.231   1.821  12.204 -0.4419  2.2803 -0.1019
 6061TIP3    H239599   6.175   1.761  12.331  1.6249 -0.6205 -0.4610
 6062TIP3   OH239600   5.848   3.689  11.699 -0.4675  0.3633 -0.0034
 6062TIP3    H139601   5.855   3.602  11.737 -0.5660  0.8733  1.2437
 6062TIP3    H239602   5.895   3.746  11.760  1.7787  0.8602 -2.0722
 6063TIP3   OH239603   4.850   4.667   4.055 -0.5822  0.1941 -0.1630
 6063TIP3    H139604   4.890   4.672   4.142  0.0418  0.5393 -0.4646
 6063TIP3    H239605   4.764   4.706   4.066 -0.8628 -0.5806  0.5061
 6064TIP3   OH239606   5.356   3.202  11.026  0.7888 -0.1674 -1.2047
 6064TIP3    H139607   5.275   3.173  10.983  0.3031  0.0201 -0.4438
 6064TIP3    H239608   5.387   3.124  11.072  1.7053 -0.5750 -2.4408
 6065TIP3   OH239609   5.908   2.583   4.075 -0.5191 -0.0218 -0.0679
 6065TIP3    H139610   5.886   2.538   4.157 -1.9378  0.7842  0.0289
 6065TIP3    H239611   5.890   2.518   4.007  0.8801 -0.7703  0.2491
 6066TIP3   OH239612   4.113   2.466  12.625  0.1773  0.2225  0.2061
 6066TIP3    H139613   4.059   2.539  12.655  1.0977  2.1045 -2.3541
 6066TIP3    H239614   4.202   2.489  12.652  0.9176  1.6191 -3.0462
 6067TIP3   OH239615   4.094   4.867  11.282 -0.4911  0.6818  0.1620
 6067TIP3    H139616   4.130   4.809  11.215  3.5988  2.5001  0.4609
 6067TIP3    H239617   4.050   4.936  11.232  0.5843  0.8493 -0.6064
 6068TIP3   OH239618   1.622   1.953  16.797  0.5943  0.1889  0.5413
 6068TIP3    H139619   1.555   1.918  16.739  0.5089 -0.2671  0.9055
 6068TIP3    H239620   1.645   2.038  16.760 -1.1858  0.9940  1.1927
 6069TIP3   OH239621   1.170   6.673   2.316  0.8368 -0.2896 -0.1597
 6069TIP3    H139622   1.105   6.650   2.249  0.0003  0.1298  0.4881
 6069TIP3    H239623   1.152   6.613   2.389  0.8254  0.1776  0.2276
 6070TIP3   OH239624   4.900   3.090   2.566  0.0811  0.4318 -0.3628
 6070TIP3    H139625   4.859   3.028   2.626  1.0989  0.0177 -0.0773
 6070TIP3    H239626   4.867   3.065   2.480  0.9197 -0.9050 -0.3299
 6071TIP3   OH239627   2.642   2.869   3.630  0.0777  0.0416 -0.0789
 6071TIP3    H139628   2.606   2.788   3.666  0.0042  0.4767  0.8585
 6071TIP3    H239629   2.736   2.854   3.626  0.0540 -0.1275 -0.0031
 6072TIP3   OH239630   5.556   2.266  16.695 -0.0970 -0.8688  0.3152
 6072TIP3    H139631   5.473   2.218  16.686  0.1306 -1.2649  0.3072
 6072TIP3    H239632   5.550   2.307  16.781 -0.1397 -1.2077  0.4738
 6073TIP3   OH239633   4.125   3.916  13.639  0.2831  0.1212  0.2333
 6073TIP3    H139634   4.214   3.927  13.671  0.3258  2.0536 -0.4290
 6073TIP3    H239635   4.114   3.821  13.631  2.5961 -0.1404 -0.5551
 6074TIP3   OH239636   2.059   1.359  10.624 -0.3258 -0.0741  0.6727
 6074TIP3    H139637   2.025   1.428  10.567  1.4197 -0.1524 -0.5201
 6074TIP3    H239638   2.144   1.391  10.653  0.6572 -1.8219 -0.1483
 6075TIP3   OH239639   2.979   3.628   2.115 -0.0294  0.3065 -0.0290
 6075TIP3    H139640   3.037   3.700   2.138 -0.8096  0.6202  1.0323
 6075TIP3    H239641   3.015   3.552   2.162  0.4022  0.1454 -0.6086
 6076TIP3   OH239642   4.711   6.564  12.773 -0.1300 -0.4792 -0.0689
 6076TIP3    H139643   4.649   6.605  12.713 -0.2863 -0.6169 -0.0013
 6076TIP3    H239644   4.780   6.629  12.783 -0.4743 -0.1472  0.1919
 6077TIP3   OH239645   1.548   4.806  15.821  0.4512  0.2670  0.1405
 6077TIP3    H139646   1.490   4.795  15.746  0.4858  0.3234  0.1053
 6077TIP3    H239647   1.490   4.797  15.897  0.2086  1.3099  0.0972
 6078TIP3   OH239648   6.127   4.439   4.719  0.2368 -1.1280 -0.7512
 6078TIP3    H139649   6.043   4.397   4.737  0.0242  0.2516  2.0081
 6078TIP3    H239650   6.184   4.410   4.790  0.1775  2.6847  1.1261
 6079TIP3   OH239651   2.564   4.775   2.692 -0.8416 -0.2676 -0.1865
 6079TIP3    H139652   2.619   4.715   2.743 -0.7415  1.3246  1.6832
 6079TIP3    H239653   2.537   4.723   2.616  3.9746 -0.8819 -1.8160
 6080TIP3   OH239654   0.853   1.082   5.157 -0.0860  0.1471 -0.3107
 6080TIP3    H139655   0.835   1.002   5.207 -0.0919  0.5832  0.3914
 6080TIP3    H239656   0.779   1.140   5.177 -0.1586  0.2731 -0.9403
 6081TIP3   OH239657   2.168   0.826  13.677  0.2830  0.0522 -0.2189
 6081TIP3    H139658   2.247   0.878  13.690  1.5415 -0.8900 -3.1350
 6081TIP3    H239659   2.125   0.866  13.602 -0.2197 -1.3635 -0.7273
 6082TIP3   OH239660   5.494   1.234  15.013 -0.2297  0.1190  0.0317
 6082TIP3    H139661   5.526   1.190  15.092  1.5127 -1.3835 -1.3999
 6082TIP3    H239662   5.454   1.315  15.045  1.3710  0.1033  2.3731
 6083TIP3   OH239663   6.060   0.998   4.480  0.6682  0.0730  0.1898
 6083TIP3    H139664   6.064   0.932   4.411  1.6634 -1.3555  1.5420
 6083TIP3    H239665   6.115   1.069   4.449  2.8585 -1.4572  0.3522
 6084TIP3   OH239666   3.443   1.062   6.132 -0.2613  0.3516  0.4953
 6084TIP3    H139667   3.534   1.037   6.150 -0.5562 -0.4534  0.9205
 6084TIP3    H239668   3.447   1.156   6.116  0.7536  0.2152 -0.1943
 6085TIP3   OH239669   2.862   0.513   1.191 -0.1121 -0.0129  0.8166
 6085TIP3    H139670   2.772   0.529   1.218 -0.6508 -0.0585 -0.8524
 6085TIP3    H239671   2.910   0.502   1.273 -1.3579  1.3734  1.7730
 6086TIP3   OH239672   2.162   4.346   0.297 -0.1506  0.2527  0.2588
 6086TIP3    H139673   2.095   4.348   0.230  0.8417  0.5499 -0.7655
 6086TIP3    H239674   2.152   4.261   0.340 -1.9909  0.8179  1.0183
 6087TIP3   OH239675   0.015   5.319  15.177  0.0412 -0.8450 -0.6485
 6087TIP3    H139676  -0.063   5.342  15.127 -1.9465  1.8694  3.1768
 6087TIP3    H239677  -0.013   5.245  15.232  0.6480 -0.7914 -0.2584
 6088TIP3   OH239678   2.315   4.412  16.030 -0.1403  0.1092 -0.3558
 6088TIP3    H139679   2.399   4.387  16.069 -0.2320 -0.5553 -0.5765
 6088TIP3    H239680   2.323   4.506  16.016  0.2548  0.1943  0.3787
 6089TIP3   OH239681   5.989   6.494   5.286 -0.0968 -0.7930 -0.2061
 6089TIP3    H139682   6.072   6.516   5.328  0.1802  1.5784 -1.7822
 6089TIP3    H239683   5.924   6.500   5.356  1.0784 -3.4493  1.2191
 6090TIP3   OH239684   0.910   5.665   2.440 -0.2772 -0.2144  0.0750
 6090TIP3    H139685   0.936   5.747   2.482 -1.7533 -0.0016  0.6025
 6090TIP3    H239686   0.960   5.665   2.358  3.5798 -1.1926  2.1669
 6091TIP3   OH239687   0.092   0.817  16.931  0.5641 -0.2285 -0.7190
 6091TIP3    H139688   0.023   0.762  16.969  1.1971 -1.2409 -0.9965
 6091TIP3    H239689   0.134   0.858  17.007  0.7631 -0.9558 -0.4261
 6092TIP3   OH239690   3.008   1.103  16.438 -0.0599 -0.2825 -0.0555
 6092TIP3    H139691   2.943   1.165  16.404 -0.9811 -0.6313  1.0045
 6092TIP3    H239692   3.085   1.156  16.456 -0.6460  0.4653  0.3067
 6093TIP3   OH239693   1.787   1.290   2.608  0.2794 -0.7829 -0.3577
 6093TIP3    H139694   1.836   1.241   2.542 -0.7006 -1.1921 -0.7942
 6093TIP3    H239695   1.702   1.307   2.568  0.2431  0.4223  0.1719
 6094TIP3   OH239696   2.743   2.621  12.578 -0.1871 -0.1484 -0.4045
 6094TIP3    H139697   2.759   2.527  12.587  1.6536  0.0703 -0.8573
 6094TIP3    H239698   2.768   2.640  12.487  1.5575  1.1036  0.2785
 6095TIP3   OH239699   1.209   0.833  12.104 -0.0996  0.5871 -0.0009
 6095TIP3    H139700   1.143   0.901  12.097 -0.6575 -0.0872 -1.5758
 6095TIP3    H239701   1.184   0.784  12.182  0.0774  1.8930  0.9176
 6096TIP3   OH239702   3.528   2.297  13.087  0.7238  0.5337 -0.0141
 6096TIP3    H139703   3.551   2.376  13.038  0.9350  1.0667  0.9197
 6096TIP3    H239704   3.545   2.320  13.179  0.1175 -0.3613  0.3347
 6097TIP3   OH239705   5.260   0.392  11.069  0.1894  0.1733 -0.1280
 6097TIP3    H139706   5.181   0.343  11.092  1.8128 -1.9438  1.3493
 6097TIP3    H239707   5.288   0.433  11.150  0.3054  1.4344 -0.7785
 6098TIP3   OH239708   1.387   4.675   1.662  0.8817  0.2727 -0.5747
 6098TIP3    H139709   1.331   4.607   1.700 -0.0857  1.6519  0.5663
 6098TIP3    H239710   1.326   4.743   1.633  1.9425  2.0293  1.0893
 6099TIP3   OH239711   2.811   6.604   1.200 -0.4639  0.1295  0.4555
 6099TIP3    H139712   2.895   6.560   1.191 -1.0980 -1.6888  2.5781
 6099TIP3    H239713   2.832   6.689   1.240  0.4685  0.4245 -0.6088
 6100TIP3   OH239714   5.479   2.974  16.715 -0.3051  0.0251 -0.1339
 6100TIP3    H139715   5.394   2.934  16.735  0.1444 -0.8901 -0.0024
 6100TIP3    H239716   5.500   3.024  16.794  0.0302 -1.0829  0.5052
 6101TIP3   OH239717   5.015   1.333  15.747  0.0883  0.2183 -0.3505
 6101TIP3    H139718   4.934   1.300  15.707 -0.5905 -0.3007  1.3640
 6101TIP3    H239719   5.053   1.258  15.791  0.9881  0.6985 -0.2803
 6102TIP3   OH239720   4.701   5.631  14.315  0.1963  0.7226 -0.1542
 6102TIP3    H139721   4.628   5.689  14.336 -0.1495 -0.1529  1.1470
 6102TIP3    H239722   4.675   5.588  14.233 -0.0333  1.5758 -0.5368
 6103TIP3   OH239723   1.839   3.480   3.042  0.2851  0.3483  1.0831
 6103TIP3    H139724   1.765   3.456   3.097 -0.5415 -0.4987 -0.3369
 6103TIP3    H239725   1.885   3.398   3.025 -1.5911 -0.2043 -2.4115
 6104TIP3   OH239726   0.956   3.082  10.112 -0.0118  0.4043 -0.3480
 6104TIP3    H139727   0.875   3.133  10.119 -0.7390 -0.7873  0.2854
 6104TIP3    H239728   0.972   3.051  10.201  1.8149  1.5772 -0.2253
 6105TIP3   OH239729   1.674   1.829   4.946 -1.1333 -0.0815 -0.3457
 6105TIP3    H139730   1.654   1.777   5.024 -0.5114  0.0862 -0.0707
 6105TIP3    H239731   1.590   1.834   4.899 -2.1473  1.8764  1.5039
 6106TIP3   OH239732   0.082   4.356  13.007 -0.2304  0.4328  0.2900
 6106TIP3    H139733   0.113   4.411  13.078 -1.8573 -0.9362  2.1487
 6106TIP3    H239734  -0.007   4.333  13.030 -0.6273 -0.5667 -1.9119
 6107TIP3   OH239735   4.624   0.156   3.628  0.6828  0.3664  0.2336
 6107TIP3    H139736   4.619   0.093   3.700 -0.5109  0.9920  0.7374
 6107TIP3    H239737   4.654   0.237   3.669 -0.4031  0.8404  0.1336
 6108TIP3   OH239738   3.235   2.124   2.086  0.0998  0.7217  0.5731
 6108TIP3    H139739   3.294   2.192   2.055 -2.5933  2.6523 -0.7579
 6108TIP3    H239740   3.151   2.145   2.046 -0.6407 -4.3463 -1.2657
 6109TIP3   OH239741   6.287   4.763  16.898  0.4136 -0.1841 -0.3329
 6109TIP3    H139742   6.293   4.693  16.964 -0.9250  0.1151  0.1402
 6109TIP3    H239743   6.372   4.761  16.854  0.6106 -1.7424  0.0307
 6110TIP3   OH239744   1.452   0.324   2.257 -0.2986  0.3146  0.2880
 6110TIP3    H139745   1.436   0.260   2.188 -1.1586  0.5918  0.2195
 6110TIP3    H239746   1.399   0.293   2.331 -0.9554  1.1046  0.1538
 6111TIP3   OH239747   6.490   5.815  11.579  0.4709  0.0755  0.5944
 6111TIP3    H139748   6.556   5.879  11.550 -0.7667  0.2033 -2.2888
 6111TIP3    H239749   6.415   5.869  11.606  0.2396 -0.1092  0.3266
 6112TIP3   OH239750   2.667   3.553   0.029 -0.1150  0.7333 -0.5484
 6112TIP3    H139751   2.684   3.618   0.097  1.8822 -0.5344  0.2454
 6112TIP3    H239752   2.628   3.479   0.075 -1.7944  1.0848 -1.3446
 6113TIP3   OH239753   2.426   1.643   2.702  0.0177 -0.0138  0.8162
 6113TIP3    H139754   2.454   1.601   2.621  0.4515 -1.9143  1.8781
 6113TIP3    H239755   2.344   1.686   2.680  0.3363 -0.1331 -0.7264
 6114TIP3   OH239756   1.752   3.626  13.956  0.3544 -0.2765  0.5245
 6114TIP3    H139757   1.828   3.612  13.899  0.8532 -0.3408  1.1975
 6114TIP3    H239758   1.790   3.656  14.039 -0.4962  2.9311 -0.1147
 6115TIP3   OH239759   5.242   4.398  10.685 -0.4312 -0.1587  0.0107
 6115TIP3    H139760   5.240   4.303  10.681 -2.3401 -0.2100  0.8913
 6115TIP3    H239761   5.279   4.418  10.771 -0.0541 -0.1010 -0.1641
 6116TIP3   OH239762   5.217   2.829   2.121 -0.1783 -0.1273 -0.4222
 6116TIP3    H139763   5.220   2.899   2.056 -0.1406 -0.8757 -1.2403
 6116TIP3    H239764   5.305   2.826   2.158 -0.2340  0.3849 -0.2486
 6117TIP3   OH239765   6.456   6.619  14.777 -0.7970 -0.2024 -0.5376
 6117TIP3    H139766   6.484   6.649  14.863 -1.7036 -1.4463  0.2146
 6117TIP3    H239767   6.526   6.559  14.748 -0.9703 -0.5635 -0.2158
 6118TIP3   OH239768   6.522   2.509   1.567 -0.1615 -0.1148 -0.5017
 6118TIP3    H139769   6.456   2.506   1.497  0.6108  2.1584 -1.4210
 6118TIP3    H239770   6.511   2.596   1.606 -0.2802 -1.1772  1.9717
 6119TIP3   OH239771   3.431   4.476   1.603  0.4086 -0.1102 -0.5937
 6119TIP3    H139772   3.443   4.413   1.674  2.4463 -1.3075 -1.8665
 6119TIP3    H239773   3.341   4.506   1.612 -0.3031 -2.3748  0.7675
 6120TIP3   OH239774   4.426   6.267  16.782  0.4666  0.7606 -0.2156
 6120TIP3    H139775   4.437   6.275  16.877 -1.3455  2.8888 -0.0903
 6120TIP3    H239776   4.352   6.206  16.772  0.3541  0.8960 -0.2213
 6121TIP3   OH239777   0.270   5.853  13.771 -0.0013  0.6212 -0.2777
 6121TIP3    H139778   0.290   5.944  13.789 -0.8932  0.4916  1.6076
 6121TIP3    H239779   0.174   5.848  13.771  0.0131 -0.5575  1.2945
 6122TIP3   OH239780   5.732   4.366  11.389 -0.3241  0.6775  0.1597
 6122TIP3    H139781   5.641   4.362  11.419 -0.8202  1.5749 -1.1394
 6122TIP3    H239782   5.741   4.289  11.332 -0.7270  1.3680 -0.8607
 6123TIP3   OH239783   0.745   0.580   5.319 -0.6971 -0.2961  0.5582
 6123TIP3    H139784   0.724   0.515   5.386 -1.0722 -0.3758  0.3659
 6123TIP3    H239785   0.778   0.529   5.245  3.0148 -0.0355  1.8332
 6124TIP3   OH239786   2.800   4.494  12.273 -0.1575 -0.2274 -0.2256
 6124TIP3    H139787   2.775   4.402  12.283 -1.3635  0.0807 -0.2619
 6124TIP3    H239788   2.892   4.491  12.248  0.2321 -1.3856  1.1748
 6125TIP3   OH239789   5.629   1.801   6.008  0.1635 -0.2921  0.3159
 6125TIP3    H139790   5.628   1.832   6.098 -0.1405 -0.9296  0.5387
 6125TIP3    H239791   5.618   1.706   6.015  1.5181 -0.5168 -0.3264
 6126TIP3   OH239792   2.698   2.790   0.471 -0.1559  0.5113 -0.1717
 6126TIP3    H139793   2.771   2.820   0.416  0.1163  1.6635  0.7788
 6126TIP3    H239794   2.737   2.723   0.527  0.3041  1.4041  0.6084
 6127TIP3   OH239795   5.832   3.683  15.530  0.2148 -0.3477 -0.4297
 6127TIP3    H139796   5.745   3.712  15.502  0.8658  0.0834 -2.1212
 6127TIP3    H239797   5.883   3.680  15.449  1.7339 -0.7613  0.5119
 6128TIP3   OH239798   2.870   0.914  15.769  0.1803 -0.7779 -0.2183
 6128TIP3    H139799   2.817   0.980  15.814 -0.9402 -1.2877 -0.7411
 6128TIP3    H239800   2.951   0.959  15.747 -0.9662  0.7621 -1.4834
 6129TIP3   OH239801   3.500   2.479   5.329  0.1951  0.1743  1.0995
 6129TIP3    H139802   3.456   2.395   5.314 -1.7547  1.4571 -0.9986
 6129TIP3    H239803   3.561   2.487   5.256  0.7298  0.4066  1.5624
 6130TIP3   OH239804   6.622   6.153  15.486  0.4285 -0.3813  0.4559
 6130TIP3    H139805   6.615   6.155  15.581  1.1324 -2.2336  0.5722
 6130TIP3    H239806   6.543   6.109  15.456 -0.3065  1.1305  0.0793
 6131TIP3   OH239807   3.955   4.589   5.391 -0.3993  0.0324 -0.0203
 6131TIP3    H139808   3.868   4.565   5.423 -1.4855  3.1694 -0.3062
 6131TIP3    H239809   3.995   4.635   5.465  0.0795  0.6427 -0.6465
 6132TIP3   OH239810   0.638   2.379  14.527 -0.3812 -0.5117  0.3799
 6132TIP3    H139811   0.597   2.294  14.540 -1.9205 -0.0641 -1.2329
 6132TIP3    H239812   0.731   2.363  14.543 -0.6530 -2.4544  0.2523
 6133TIP3   OH239813   5.604   2.752   0.944 -0.0477 -0.1049  0.1662
 6133TIP3    H139814   5.568   2.814   0.881 -1.5664  0.3109  1.3800
 6133TIP3    H239815   5.666   2.805   0.995 -0.6359  0.1912  0.5859
 6134TIP3   OH239816   1.258   3.691   1.143  0.0788 -0.3760  0.5243
 6134TIP3    H139817   1.183   3.639   1.173 -0.8725  0.7553  0.1612
 6134TIP3    H239818   1.310   3.705   1.221 -0.0376 -1.2492  0.7682
 6135TIP3   OH239819   6.729   5.239  12.287  0.6351 -0.0642 -0.3101
 6135TIP3    H139820   6.687   5.270  12.207 -1.8252  0.0553  0.9614
 6135TIP3    H239821   6.792   5.307  12.310  0.5275  0.4469 -1.4841
 6136TIP3   OH239822   4.136   3.582   1.200 -0.1975 -0.2656  0.5677
 6136TIP3    H139823   4.051   3.612   1.166 -0.2906  0.2785  1.2537
 6136TIP3    H239824   4.147   3.631   1.282  0.3713 -0.9912  0.9291
 6137TIP3   OH239825   3.032   3.082  14.063 -0.3080  0.8270 -0.2638
 6137TIP3    H139826   2.944   3.119  14.070 -0.0725  1.1189  2.4265
 6137TIP3    H239827   3.030   3.005  14.121  1.5619  1.6665  0.9883
 6138TIP3   OH239828   3.899   5.748   2.450  0.2125  0.0436 -0.3681
 6138TIP3    H139829   3.875   5.831   2.491  2.3399  0.7853 -0.5045
 6138TIP3    H239830   3.816   5.711   2.419 -0.7303  2.3803 -0.7935
 6139TIP3   OH239831   1.750   6.479  14.166  0.6732  0.1993  0.8093
 6139TIP3    H139832   1.793   6.426  14.099 -2.1761 -2.3624  0.8384
 6139TIP3    H239833   1.697   6.542  14.116 -0.3566 -0.7897  0.6175
 6140TIP3   OH239834   1.646   6.365   5.563 -0.8726  0.6196 -0.1783
 6140TIP3    H139835   1.634   6.278   5.525 -0.0243  0.4676 -0.1110
 6140TIP3    H239836   1.603   6.360   5.648  1.1003 -0.4866  0.8423
 6141TIP3   OH239837   1.597   3.914   4.620  0.0130 -0.3138 -0.2205
 6141TIP3    H139838   1.674   3.888   4.570 -1.2068  0.8049 -2.9193
 6141TIP3    H239839   1.549   3.972   4.561 -2.0293  0.4316  2.0027
 6142TIP3   OH239840   2.364   5.633  15.346  0.4845 -0.4149 -0.0973
 6142TIP3    H139841   2.442   5.689  15.343 -0.2558  0.6719  0.1530
 6142TIP3    H239842   2.297   5.683  15.298  0.1538 -1.6889 -1.0136
 6143TIP3   OH239843   4.962   1.641  12.005 -0.2356  0.4970 -0.2199
 6143TIP3    H139844   4.918   1.563  12.039  0.6342 -0.7337 -1.8261
 6143TIP3    H239845   4.992   1.687  12.084 -0.8604 -0.7239  0.7716
 6144TIP3   OH239846   1.275   5.578   1.395 -0.1322  0.0080 -0.1653
 6144TIP3    H139847   1.333   5.516   1.439  0.5294 -1.4250 -2.7953
 6144TIP3    H239848   1.300   5.663   1.429  0.3566 -0.9642  2.0673
 6145TIP3   OH239849   3.127   3.781  11.011 -1.0488 -0.3605  0.0415
 6145TIP3    H139850   3.032   3.772  11.021 -1.0799 -1.9946 -1.2384
 6145TIP3    H239851   3.151   3.711  10.950  0.9237  0.3046 -0.0094
 6146TIP3   OH239852   2.925   0.357   5.344  0.2366  0.2086  0.4937
 6146TIP3    H139853   2.888   0.387   5.427  2.0257  2.7732  0.4729
 6146TIP3    H239854   2.962   0.436   5.305  2.3202 -1.5176 -1.2241
 6147TIP3   OH239855   4.917   1.335   5.998  0.4385  0.4015 -0.7300
 6147TIP3    H139856   5.005   1.349   6.034  0.2541 -0.1974 -0.0343
 6147TIP3    H239857   4.866   1.303   6.071 -0.4707  1.1136 -1.0358
 6148TIP3   OH239858   5.731   1.453   2.504 -0.2581  0.5580  0.1107
 6148TIP3    H139859   5.726   1.461   2.409 -2.0504  0.9513  0.2062
 6148TIP3    H239860   5.647   1.488   2.536 -0.0798 -0.4201  1.7812
 6149TIP3   OH239861   5.399   6.344   6.009 -0.6432  0.6813 -0.0612
 6149TIP3    H139862   5.425   6.396   6.086  0.5482  1.1364 -0.7434
 6149TIP3    H239863   5.314   6.380   5.984 -2.0210 -0.7616  2.1600
 6150TIP3   OH239864   1.231   1.810   5.315  0.0726  0.3409 -0.1141
 6150TIP3    H139865   1.304   1.870   5.323 -0.5263  1.1610 -0.6099
 6150TIP3    H239866   1.266   1.735   5.267  0.0097  1.7936 -2.5760
 6151TIP3   OH239867   2.795   6.404  13.150 -0.1727  0.2309 -0.0446
 6151TIP3    H139868   2.823   6.358  13.229 -1.5607  0.4088  0.5868
 6151TIP3    H239869   2.760   6.336  13.093 -2.3050  0.4214  0.9240
 6152TIP3   OH239870   3.657   0.514  12.089  0.9888  0.1631 -0.3369
 6152TIP3    H139871   3.682   0.605  12.078 -1.4564  1.0794  1.0323
 6152TIP3    H239872   3.683   0.492  12.179 -1.9292  0.8415  0.7719
 6153TIP3   OH239873   1.292   3.508  12.462 -0.4144  0.5642  0.0581
 6153TIP3    H139874   1.312   3.577  12.399  1.2353 -0.5444 -0.6963
 6153TIP3    H239875   1.377   3.487  12.502 -0.8345 -1.1815  0.0889
 6154TIP3   OH239876   3.821   6.748   1.554 -0.1139 -0.1781  0.5579
 6154TIP3    H139877   3.863   6.664   1.575 -1.3516 -0.6934  1.0997
 6154TIP3    H239878   3.853   6.770   1.467  1.8443 -0.1529  1.2323
 6155TIP3   OH239879   0.959   5.408  13.511  0.3007  0.1458  0.1845
 6155TIP3    H139880   0.885   5.383  13.457 -0.9932  1.5127  1.2434
 6155TIP3    H239881   1.029   5.427  13.448 -0.7013  0.2768 -0.9332
 6156TIP3   OH239882   1.986   0.860  15.844  0.2071 -0.1084 -0.0810
 6156TIP3    H139883   2.057   0.924  15.836  0.3321  0.0819  1.9539
 6156TIP3    H239884   2.030   0.778  15.864 -0.1029  0.0960  1.6217
 6157TIP3   OH239885   3.644   3.074  12.683  0.3607  0.0676 -0.1311
 6157TIP3    H139886   3.636   3.159  12.725  1.2092 -0.7505  1.8221
 6157TIP3    H239887   3.734   3.072  12.649  0.7824 -0.4788  0.9506
 6158TIP3   OH239888   4.539   2.556   4.837 -0.0258 -0.3416 -0.3465
 6158TIP3    H139889   4.498   2.473   4.812  0.2566 -0.4795 -0.3555
 6158TIP3    H239890   4.472   2.622   4.820 -0.0957 -0.5189 -0.7728
 6159TIP3   OH239891   4.475   2.172  10.595 -0.2565  0.6454 -0.7867
 6159TIP3    H139892   4.512   2.246  10.643  1.7452 -0.3032 -0.7688
 6159TIP3    H239893   4.548   2.139  10.543 -1.5224 -0.3806 -1.9937
 6160TIP3   OH239894   0.534   3.882   5.794  0.4408 -0.5225 -0.1832
 6160TIP3    H139895   0.519   3.823   5.720 -2.2665 -0.0260 -0.1377
 6160TIP3    H239896   0.571   3.827   5.862 -3.9220 -2.8943  0.6323
 6161TIP3   OH239897   2.006   2.192   3.609  0.2787  0.3173  0.1115
 6161TIP3    H139898   1.973   2.251   3.542  0.8130  1.7803  1.0721
 6161TIP3    H239899   1.975   2.106   3.583  0.7063  0.7800 -2.1493
 6162TIP3   OH239900   5.292   4.897   0.720 -0.4644  0.5023 -0.4684
 6162TIP3    H139901   5.354   4.894   0.648 -0.2426 -1.7975 -0.2340
 6162TIP3    H239902   5.206   4.901   0.678 -0.3877 -1.7083 -0.9505
 6163TIP3   OH239903   2.539   2.189  12.025 -0.3363  0.3144  0.0211
 6163TIP3    H139904   2.460   2.135  12.023  0.8275 -1.5054  0.5093
 6163TIP3    H239905   2.596   2.152  11.958  0.3868  1.1600  0.1425
 6164TIP3   OH239906   5.336   1.025   6.728 -0.3771 -0.2853  0.5034
 6164TIP3    H139907   5.382   1.066   6.654 -2.6726 -0.5371 -1.1706
 6164TIP3    H239908   5.359   0.932   6.723 -2.0930 -0.6752 -1.2417
 6165TIP3   OH239909   3.231   0.971  16.250  0.0612  0.6270 -0.2810
 6165TIP3    H139910   3.174   1.031  16.298  0.4262  1.6192 -1.0367
 6165TIP3    H239911   3.199   0.976  16.159 -0.2020 -0.7069 -0.2909
 6166TIP3   OH239912   0.665   1.541  16.533 -0.7523  0.0447  0.1003
 6166TIP3    H139913   0.628   1.462  16.493 -1.1141 -1.0290  2.3655
 6166TIP3    H239914   0.591   1.601  16.539 -0.7700  0.0895 -0.5108
 6167TIP3   OH239915   0.733   4.755   1.069  0.5434  0.4850  0.7496
 6167TIP3    H139916   0.695   4.751   1.156 -3.4320  0.2549 -0.7709
 6167TIP3    H239917   0.761   4.846   1.059 -0.9884  1.0789  1.5686
 6168TIP3   OH239918   3.048   5.140  16.217 -0.5500 -0.8772 -0.4051
 6168TIP3    H139919   3.136   5.103  16.224  0.8575  2.1588 -0.6976
 6168TIP3    H239920   3.017   5.111  16.131  0.7818 -0.7895 -0.9415
 6169TIP3   OH239921   6.599   0.622  13.130 -0.7286  0.0346  0.2327
 6169TIP3    H139922   6.519   0.593  13.175 -1.5188  2.5322  0.5823
 6169TIP3    H239923   6.608   0.714  13.154  0.4175  0.7173 -2.4367
 6170TIP3   OH239924   0.080   5.356  12.548  0.3903  0.0969  0.0503
 6170TIP3    H139925   0.148   5.395  12.603 -1.2005  1.8638  0.8969
 6170TIP3    H239926   0.097   5.391  12.460  0.8076  0.1810  0.1621
 6171TIP3   OH239927   6.210   3.211  13.558 -0.4495  0.5460  0.0093
 6171TIP3    H139928   6.246   3.130  13.521 -0.0945 -0.2821  2.0214
 6171TIP3    H239929   6.120   3.213  13.527 -0.0422  0.1824 -1.2762
 6172TIP3   OH239930   6.347   2.159   5.891 -0.1517  0.1168  0.1183
 6172TIP3    H139931   6.355   2.232   5.952 -0.6677 -0.1310  0.4870
 6172TIP3    H239932   6.356   2.081   5.945 -1.7289 -0.1209  0.0597
 6173TIP3   OH239933   0.545   3.762  11.023 -0.4646  0.0457  0.3642
 6173TIP3    H139934   0.610   3.802  11.081  0.4703 -1.5233  0.4449
 6173TIP3    H239935   0.511   3.836  10.972 -2.5656  1.8384  3.9318
 6174TIP3   OH239936   1.179   3.022  15.207 -0.4880 -0.2702  0.0047
 6174TIP3    H139937   1.157   3.066  15.289  0.0118 -0.5787  0.3081
 6174TIP3    H239938   1.270   2.995  15.218 -1.2035 -2.7338  0.4302
 6175TIP3   OH239939   0.752   1.110   1.400  0.1715  0.4983  0.1090
 6175TIP3    H139940   0.785   1.163   1.327  0.8175  1.7333  1.2412
 6175TIP3    H239941   0.816   1.124   1.469  0.3339 -1.7860  0.4799
 6176TIP3   OH239942   1.263   6.780  10.544  0.6340  0.0025  0.0858
 6176TIP3    H139943   1.293   6.866  10.574 -0.3423 -0.4009  2.4062
 6176TIP3    H239944   1.298   6.718  10.608 -2.8247 -0.7527  1.5033
 6177TIP3   OH239945   3.447   3.294  13.808 -0.3587 -0.4212 -0.0017
 6177TIP3    H139946   3.512   3.357  13.840  0.2439 -0.5421 -0.9535
 6177TIP3    H239947   3.364   3.342  13.812 -0.5642 -0.8151  2.8832
 6178TIP3   OH239948   5.080   1.218  12.388  0.0936  0.0437 -0.6879
 6178TIP3    H139949   5.108   1.224  12.297 -2.4129  0.3869 -1.5139
 6178TIP3    H239950   5.091   1.306  12.423  0.1339  0.1516 -0.9693
 6179TIP3   OH239951   1.582   6.095  14.881 -0.1193 -0.3126  0.2422
 6179TIP3    H139952   1.594   6.084  14.976 -0.0830 -0.1826  0.2532
 6179TIP3    H239953   1.511   6.036  14.859 -0.3884 -0.0581  0.4186
 6180TIP3   OH239954   4.979   4.431  15.657  0.2211 -0.7277 -0.3835
 6180TIP3    H139955   5.016   4.519  15.647 -0.7183 -0.2011  0.6308
 6180TIP3    H239956   4.912   4.426  15.588 -1.1465  0.1541  0.8102
 6181TIP3   OH239957   0.143   2.056   5.470 -0.1485  0.7513 -0.0689
 6181TIP3    H139958   0.216   2.101   5.512  0.5168 -1.3157  1.1448
 6181TIP3    H239959   0.161   1.963   5.484 -2.8511  0.1635 -0.0031
 6182TIP3   OH239960   0.611   5.761   6.386 -0.2196  0.2636 -0.3057
 6182TIP3    H139961   0.554   5.708   6.330 -0.9301  1.2003 -0.4935
 6182TIP3    H239962   0.695   5.715   6.385 -0.6836 -0.6047 -0.8338
 6183TIP3   OH239963   2.100   3.968   3.707  0.6271 -0.2387  0.0487
 6183TIP3    H139964   2.190   3.962   3.677  1.7854  2.7985  2.4683
 6183TIP3    H239965   2.104   3.956   3.801 -1.1132  2.2162  0.5390
 6184TIP3   OH239966   6.154   0.987   6.297  0.3298  0.4359  0.1397
 6184TIP3    H139967   6.124   1.017   6.383  0.8762 -0.0045  0.4871
 6184TIP3    H239968   6.223   1.049   6.273  0.3648  0.3959  0.1383
 6185TIP3   OH239969   3.653   5.290  12.911  0.1105 -0.1687  0.0782
 6185TIP3    H139970   3.577   5.348  12.895  0.5127  0.1680 -0.6941
 6185TIP3    H239971   3.669   5.249  12.826 -0.4509 -1.7911  0.7300
 6186TIP3   OH239972   0.388   4.818  11.002  0.6206  0.0550 -0.7368
 6186TIP3    H139973   0.327   4.745  10.995  0.3814  0.2690 -0.8957
 6186TIP3    H239974   0.468   4.786  10.960  0.2065  0.2168 -1.6866
 6187TIP3   OH239975   6.044   3.855  15.549  0.0190 -0.3868 -0.3664
 6187TIP3    H139976   5.953   3.825  15.550 -0.0063 -0.4597 -2.2811
 6187TIP3    H239977   6.091   3.786  15.503  0.9582 -0.0800  0.1119
 6188TIP3   OH239978   4.517   6.695  15.848  0.0037 -0.3549 -0.3052
 6188TIP3    H139979   4.503   6.747  15.769 -0.7400 -0.7571 -0.4417
 6188TIP3    H239980   4.430   6.681  15.884  0.1384 -1.8526 -0.5070
 6189TIP3   OH239981   4.112   2.787  10.979  0.0860  0.2048  0.7996
 6189TIP3    H139982   4.099   2.749  10.892  2.5082 -0.4244  0.6518
 6189TIP3    H239983   4.122   2.881  10.963 -0.4216  0.2189  0.5311
 6190TIP3   OH239984   0.117   4.670  16.972 -0.1025  0.0684 -0.3028
 6190TIP3    H139985   0.159   4.748  17.010 -1.3799  0.1597  1.0058
 6190TIP3    H239986   0.117   4.687  16.878 -2.1685  2.6591  0.0481
 6191TIP3   OH239987   0.713   2.078  12.487 -0.0822 -0.1130  0.0606
 6191TIP3    H139988   0.683   2.099  12.576  2.1906 -0.0004  0.8580
 6191TIP3    H239989   0.708   2.161  12.440  0.0743  0.1514  0.5059
 6192TIP3   OH239990   5.473   4.885  12.562  0.0841 -0.4462 -0.1856
 6192TIP3    H139991   5.480   4.980  12.570 -0.3882 -0.4633  0.4646
 6192TIP3    H239992   5.480   4.852  12.652 -1.2858 -0.9220 -0.2265
 6193TIP3   OH239993   2.659   2.300  10.650  0.1888  0.0737  1.0360
 6193TIP3    H139994   2.750   2.305  10.679  0.2023 -0.0446  1.0140
 6193TIP3    H239995   2.643   2.207  10.636  0.4176  0.1903 -0.0707
 6194TIP3   OH239996   5.723   2.275   5.131 -0.1113  1.0110  0.4742
 6194TIP3    H139997   5.663   2.283   5.057 -0.2125  1.6227  0.6200
 6194TIP3    H239998   5.666   2.257   5.206 -0.0545  0.9395  0.5006
 6195TIP3   OH239999   5.785   6.304  11.806  0.1090  0.2078  0.1622
 6195TIP3    H140000   5.830   6.234  11.759  0.0999  1.7769 -2.4124
 6195TIP3    H240001   5.856   6.358  11.841  0.1460  0.0837  0.2799
 6196TIP3   OH240002   0.479   3.120   5.512  0.6618 -0.4618 -0.6370
 6196TIP3    H140003   0.404   3.169   5.546  0.8194  0.3371 -1.3867
 6196TIP3    H240004   0.459   3.029   5.529  0.9341 -0.1001  1.9988
 6197TIP3   OH240005   6.712   3.444   0.124  0.2039 -0.6054 -0.5578
 6197TIP3    H140006   6.650   3.447   0.051 -0.5205 -2.3094 -0.0705
 6197TIP3    H240007   6.681   3.510   0.186  1.1118  1.2082 -1.9496
 6198TIP3   OH240008   0.350   6.531   5.037 -0.6382 -0.2573  1.0989
 6198TIP3    H140009   0.323   6.561   4.950  0.8553  1.3600  1.1492
 6198TIP3    H240010   0.419   6.466   5.020  1.7642  2.1546  1.0055
 6199TIP3   OH240011   5.586   6.176  16.072 -0.0273 -0.2671  0.1881
 6199TIP3    H140012   5.593   6.167  16.167 -1.1680 -0.8445  0.2266
 6199TIP3    H240013   5.623   6.094  16.037  1.0245  0.2275  0.0896
 6200TIP3   OH240014   6.563   6.399   5.136  0.5169  0.4038  0.3157
 6200TIP3    H140015   6.579   6.492   5.121  0.3166  0.4333  0.2742
 6200TIP3    H240016   6.570   6.388   5.231 -0.6535  0.7013  0.4587
 6201TIP3   OH240017   3.476   4.672   0.467  0.4830 -0.6502  0.0463
 6201TIP3    H140018   3.393   4.705   0.501  0.1644 -0.2750 -1.0672
 6201TIP3    H240019   3.452   4.611   0.398  1.1219  0.5963 -1.3352
 6202TIP3   OH240020   4.119   5.864   2.678 -0.3961 -0.3783 -0.3440
 6202TIP3    H140021   4.107   5.782   2.725 -2.5627 -0.0284 -0.1421
 6202TIP3    H240022   4.104   5.841   2.586  0.6780 -0.5007 -0.4917
 6203TIP3   OH240023   2.356   4.200   4.418 -0.1856  0.1532  0.1672
 6203TIP3    H140024   2.377   4.180   4.510  0.5428 -0.3275 -0.0941
 6203TIP3    H240025   2.375   4.119   4.371  0.9436  0.8511 -0.6325
 6204TIP3   OH240026   2.292   1.359  14.723 -0.1795 -0.3258 -0.3983
 6204TIP3    H140027   2.327   1.441  14.688 -3.0928  0.7808 -0.9629
 6204TIP3    H240028   2.270   1.307  14.646 -1.9253  0.0163 -0.1679
 6205TIP3   OH240029   0.644   5.811   1.060  0.1433  0.0872 -0.2901
 6205TIP3    H140030   0.557   5.817   1.020  0.2166  0.1342 -0.4465
 6205TIP3    H240031   0.635   5.853   1.145 -0.2256 -0.7954  0.1061
 6206TIP3   OH240032   0.738   3.121  10.366  0.2157 -0.1494  0.1003
 6206TIP3    H140033   0.825   3.093  10.394  0.5696  1.1776  0.4045
 6206TIP3    H240034   0.689   3.132  10.447 -0.5460 -1.7502 -0.1025
 6207TIP3   OH240035   3.003   4.900  16.376  0.1373  0.2516  0.0708
 6207TIP3    H140036   2.994   4.976  16.318  0.6157  0.5606  0.3969
 6207TIP3    H240037   3.066   4.843  16.331  0.1162  0.2487  0.0451
 6208TIP3   OH240038   4.015   1.106  15.315 -0.0634  0.3317 -0.9899
 6208TIP3    H140039   4.066   1.171  15.267 -0.3614  2.0327  0.8292
 6208TIP3    H240040   4.004   1.145  15.402 -0.3016 -2.1691  0.1776
 6209TIP3   OH240041   2.961   4.324   5.756 -0.0887  0.4453 -0.3496
 6209TIP3    H140042   2.929   4.275   5.680 -0.6384 -2.4078  1.5498
 6209TIP3    H240043   2.894   4.391   5.771 -1.5197 -0.8189 -0.7344
 6210TIP3   OH240044   1.203   4.939   3.935 -0.0105  0.0847 -0.1080
 6210TIP3    H140045   1.251   4.916   3.855  2.8770 -0.6476  1.6800
 6210TIP3    H240046   1.238   5.025   3.960 -1.6094  0.7704 -0.0840
 6211TIP3   OH240047   3.108   2.189   0.382  0.0380  0.2208  0.1186
 6211TIP3    H140048   3.167   2.118   0.357  1.0239  0.3808  1.8293
 6211TIP3    H240049   3.143   2.266   0.337 -1.1552 -0.3527 -1.9058
 6212TIP3   OH240050   4.308   1.256   0.530  0.3049  0.5261 -0.4254
 6212TIP3    H140051   4.239   1.214   0.581 -0.3832  3.0113  0.8421
 6212TIP3    H240052   4.381   1.266   0.591  1.2858 -0.7579 -1.3431
 6213TIP3   OH240053   2.688   6.711   2.968 -0.1776  0.3058 -0.2285
 6213TIP3    H140054   2.714   6.769   2.896 -0.2352 -1.1290 -1.4797
 6213TIP3    H240055   2.767   6.659   2.985 -0.7871 -0.8779 -0.8294
 6214TIP3   OH240056   5.717   2.896  12.207 -0.3139 -0.3060  0.2538
 6214TIP3    H140057   5.752   2.914  12.119  0.7477  0.1434  0.7578
 6214TIP3    H240058   5.792   2.907  12.265 -1.4968  1.6832  1.4859
 6215TIP3   OH240059   2.252   4.393   3.759 -0.2120 -0.3559  0.1459
 6215TIP3    H140060   2.302   4.473   3.779  0.7241 -0.9905  0.4101
 6215TIP3    H240061   2.162   4.414   3.786 -0.0725  0.7492 -0.1785
 6216TIP3   OH240062   1.450   1.025   1.637 -0.2270 -0.0053  0.0238
 6216TIP3    H140063   1.519   0.959   1.639 -0.9531 -0.7684  1.2698
 6216TIP3    H240064   1.390   0.995   1.569  0.6979  0.7078 -1.1242
 6217TIP3   OH240065   6.229   1.090   0.874  0.3564 -0.1417 -0.4666
 6217TIP3    H140066   6.286   1.025   0.834 -0.5260 -1.3274  0.0917
 6217TIP3    H240067   6.281   1.169   0.880  1.0811 -0.4496 -2.2698
 6218TIP3   OH240068   1.157   0.961  10.490 -0.5502 -0.4633  0.1027
 6218TIP3    H140069   1.210   0.965  10.411  0.8384 -2.4759  0.8437
 6218TIP3    H240070   1.197   1.025  10.549  2.3282 -3.0090  1.2440
 6219TIP3   OH240071   3.164   1.912  15.829  0.1264  0.0186 -0.0636
 6219TIP3    H140072   3.153   1.834  15.774  1.7230  0.8312 -1.6227
 6219TIP3    H240073   3.082   1.960  15.818  0.3752  0.1198 -1.6951
 6220TIP3   OH240074   3.707   0.224  12.090 -0.2932  0.3046 -0.3078
 6220TIP3    H140075   3.691   0.316  12.108 -2.0896  0.4166 -2.0845
 6220TIP3    H240076   3.802   0.215  12.091  0.0543  2.6998 -2.2994
 6221TIP3   OH240077   5.805   3.651   5.313 -0.7383  0.5750 -0.4130
 6221TIP3    H140078   5.813   3.692   5.227  0.9606 -1.1934 -1.1785
 6221TIP3    H240079   5.775   3.562   5.295  2.1104 -0.6925  0.4705
 6222TIP3   OH240080   2.961   1.203   3.550 -0.0898  0.0807 -0.4961
 6222TIP3    H140081   2.992   1.122   3.589 -1.1456  1.1943  3.0862
 6222TIP3    H240082   2.866   1.196   3.553 -0.1967  0.8090 -1.6701
 6223TIP3   OH240083   0.015   4.937  15.462  0.2083  0.0192 -0.0430
 6223TIP3    H140084   0.051   4.853  15.491  1.2301  0.3437 -0.3557
 6223TIP3    H240085   0.057   5.002  15.518  0.3233  0.4258 -0.5947
 6224TIP3   OH240086   4.114   5.189  12.328 -0.2255  0.4142 -0.6204
 6224TIP3    H140087   4.185   5.216  12.270 -0.5920 -1.0616 -1.8081
 6224TIP3    H240088   4.072   5.271  12.354  1.0676  1.2171 -0.9763
 6225TIP3   OH240089   4.107   5.873  16.868 -0.0472 -0.1280  0.3469
 6225TIP3    H140090   4.054   5.821  16.809  2.3047 -3.2974  0.7871
 6225TIP3    H240091   4.058   5.874  16.950 -0.9451 -0.0982 -0.1795
 6226TIP3   OH240092   4.440   0.716   3.501  0.0667  0.3294 -0.3990
 6226TIP3    H140093   4.436   0.685   3.411  2.2750 -1.5823  0.0695
 6226TIP3    H240094   4.408   0.642   3.553  1.7201  0.2304  0.5250
 6227TIP3   OH240095   1.726   2.867   2.143 -0.3477 -0.3800  0.3894
 6227TIP3    H140096   1.735   2.907   2.230  0.3886 -1.5094  0.8382
 6227TIP3    H240097   1.701   2.941   2.086 -2.6717  0.0870  1.8588
 6228TIP3   OH240098   1.213   2.258   2.479  0.1817 -0.1768 -0.2050
 6228TIP3    H140099   1.137   2.200   2.466  1.3334 -1.2864 -2.8434
 6228TIP3    H240100   1.186   2.318   2.548 -1.5892 -3.0339  1.8149
 6229TIP3   OH240101   3.221   1.687  13.283  0.2977  0.0066 -0.5324
 6229TIP3    H140102   3.296   1.704  13.340  1.7187 -1.4057 -1.8616
 6229TIP3    H240103   3.156   1.752  13.309  1.2630  0.0906  1.9275
 6230TIP3   OH240104   5.384   2.231  13.626 -0.2543 -0.1182 -0.3354
 6230TIP3    H140105   5.361   2.162  13.563 -0.7786 -0.1693 -0.0941
 6230TIP3    H240106   5.300   2.262  13.659 -0.0303  0.8057 -0.6122
 6231TIP3   OH240107   6.692   5.114   2.402  0.0438  0.3828  0.3581
 6231TIP3    H140108   6.710   5.033   2.449 -1.4331  0.7814  1.7120
 6231TIP3    H240109   6.752   5.178   2.441  4.3111 -0.7539 -3.5376
 6232TIP3   OH240110   3.939   4.183   5.108 -0.1391 -0.2358  0.2307
 6232TIP3    H140111   3.921   4.277   5.105 -2.0231 -0.5434  0.4453
 6232TIP3    H240112   4.000   4.167   5.036 -2.5140  0.6427 -2.1438
 6233TIP3   OH240113   0.662   2.061   6.409  0.0385 -0.1108 -0.6264
 6233TIP3    H140114   0.593   2.127   6.406  1.1338  1.0681 -0.7061
 6233TIP3    H240115   0.639   1.999   6.341 -1.3030 -0.1262 -0.1987
 6234TIP3   OH240116   2.702   5.497   1.998 -0.3373 -0.2025 -0.1191
 6234TIP3    H140117   2.765   5.491   2.070 -2.6686  1.5881  2.2989
 6234TIP3    H240118   2.745   5.552   1.933  1.2225 -0.4384  0.6671
 6235TIP3   OH240119   4.567   1.086   6.569  0.8888 -0.4166 -0.1753
 6235TIP3    H140120   4.645   1.111   6.519  1.6880  1.1041  1.7147
 6235TIP3    H240121   4.505   1.157   6.555  0.1659 -1.1704 -0.9176
 6236TIP3   OH240122   2.807   1.065  12.809 -0.1007 -0.0655  0.1352
 6236TIP3    H140123   2.790   1.103  12.895 -0.7053  0.1960 -0.0998
 6236TIP3    H240124   2.737   1.001  12.796  0.1445 -0.3003 -0.0538
 6237TIP3   OH240125   4.413   6.095  11.904  0.3122  0.7048  0.6871
 6237TIP3    H140126   4.433   6.093  11.997 -1.3973 -0.7935  1.0710
 6237TIP3    H240127   4.374   6.010  11.885  2.1723  0.2691 -1.7992
 6238TIP3   OH240128   1.660   1.924   5.566  0.1266 -0.2451 -0.0138
 6238TIP3    H140129   1.647   2.008   5.608  1.1448 -0.6799  1.2127
 6238TIP3    H240130   1.630   1.860   5.630  0.0052 -0.8602 -0.6659
 6239TIP3   OH240131   0.885   4.723   1.913  0.0415 -0.6910  0.3199
 6239TIP3    H140132   0.900   4.790   1.846 -2.4581  0.2997  0.6182
 6239TIP3    H240133   0.957   4.734   1.975  1.1121 -0.0636 -0.9734
 6240TIP3   OH240134   3.565   2.754   2.069 -0.1503 -0.3996  0.1943
 6240TIP3    H140135   3.613   2.685   2.023  2.4335  0.5241  1.3025
 6240TIP3    H240136   3.479   2.717   2.086  0.8507 -3.0084 -0.0126
 6241TIP3   OH240137   0.299   0.028   0.143 -0.4458  0.3417 -0.0568
 6241TIP3    H140138   0.284   0.112   0.099  0.0121  0.5184  0.1178
 6241TIP3    H240139   0.315  -0.034   0.071 -1.8762  0.1554 -0.2503
 6242TIP3   OH240140   4.177   4.684   0.330 -0.3169  0.1243 -0.4216
 6242TIP3    H140141   4.216   4.660   0.246 -0.9628  0.8214 -0.9282
 6242TIP3    H240142   4.086   4.654   0.325 -0.1069 -0.7455  0.4376
 6243TIP3   OH240143   4.388   4.431  15.423 -0.2383  0.0977  0.1174
 6243TIP3    H140144   4.398   4.384  15.505  2.3437  0.1449 -0.0713
 6243TIP3    H240145   4.455   4.394  15.365 -2.6053 -0.6426 -2.3793
 6244TIP3   OH240146   6.738   3.160   0.858  0.2698 -0.1252 -0.0824
 6244TIP3    H140147   6.821   3.201   0.834 -0.4949  1.1899 -0.5488
 6244TIP3    H240148   6.692   3.227   0.909 -1.4701  0.0406 -1.7805
 6245TIP3   OH240149   5.736   4.873  11.921 -0.2308  0.3872  0.3396
 6245TIP3    H140150   5.715   4.780  11.909 -0.5961  0.5370 -0.2206
 6245TIP3    H240151   5.713   4.891  12.012 -2.2599  0.4574 -0.1440
 6246TIP3   OH240152   1.097   1.718  11.742 -0.2223  0.0994 -0.0514
 6246TIP3    H140153   1.108   1.704  11.648 -1.4655 -0.3180 -0.1617
 6246TIP3    H240154   1.161   1.786  11.764  3.4016 -2.9667 -0.2559
 6247TIP3   OH240155   6.801   2.001   0.718 -0.8257 -0.5262  0.3127
 6247TIP3    H140156   6.781   2.082   0.765  1.2346  0.6506 -0.6942
 6247TIP3    H240157   6.855   1.950   0.779 -0.1276 -0.0495  0.1059
 6248TIP3   OH240158   3.351   2.520   4.032 -0.1260 -0.5303 -0.0852
 6248TIP3    H140159   3.367   2.442   4.085 -1.1633 -1.3623 -0.9434
 6248TIP3    H240160   3.391   2.591   4.081 -0.2828 -1.4077  1.3745
 6249TIP3   OH240161   1.339   4.038  13.392 -0.2490  0.2453 -0.1706
 6249TIP3    H140162   1.321   3.944  13.394 -0.0368  0.1611 -1.4120
 6249TIP3    H240163   1.400   4.049  13.320  0.9095  1.1596  0.9054
 6250TIP3   OH240164   6.733   5.525  13.381  0.1573 -0.3188 -0.3004
 6250TIP3    H140165   6.641   5.501  13.392  0.3268 -1.7475 -1.6175
 6250TIP3    H240166   6.740   5.551  13.289  1.1548 -0.6801 -0.3390
 6251TIP3   OH240167   3.744   2.685  14.098 -0.1293  0.0617 -0.2705
 6251TIP3    H140168   3.810   2.684  14.168  0.0005 -1.6354 -0.3716
 6251TIP3    H240169   3.795   2.672  14.018 -0.5023 -0.2625 -0.4533
 6252TIP3   OH240170   3.541   3.698  14.168 -0.5565 -0.7420 -0.2811
 6252TIP3    H140171   3.606   3.701  14.238 -0.1900 -2.4784 -0.4994
 6252TIP3    H240172   3.459   3.674  14.211 -0.7944  0.1892 -0.1875
 6253TIP3   OH240173   6.731   0.714   5.885  0.5051 -0.1953 -0.3923
 6253TIP3    H140174   6.680   0.634   5.872  1.1823 -0.7478  0.2856
 6253TIP3    H240175   6.794   0.692   5.954 -1.2431  1.8126  2.0140
 6254TIP3   OH240176   4.920   6.565  13.915 -0.5087 -0.3548 -0.6096
 6254TIP3    H140177   4.976   6.553  13.838  1.5666 -1.5692  0.9760
 6254TIP3    H240178   4.895   6.657  13.912  0.9456  0.0443 -1.8363
 6255TIP3   OH240179   4.936   3.883  14.904 -0.6099 -0.3384 -0.3474
 6255TIP3    H140180   4.860   3.841  14.863 -0.8791 -0.2252  0.0307
 6255TIP3    H240181   4.949   3.835  14.986 -1.4401  0.8186  0.5111
 6256TIP3   OH240182   4.819   0.606   0.135  0.5134  0.1556 -0.0132
 6256TIP3    H140183   4.779   0.693   0.145  0.5780  0.3480 -1.2886
 6256TIP3    H240184   4.913   0.623   0.135  0.5237  0.1306 -0.5017
 6257TIP3   OH240185   2.693   0.068  13.853  0.2456  0.0859  0.1123
 6257TIP3    H140186   2.627   0.135  13.835  0.8605  0.1606 -2.0343
 6257TIP3    H240187   2.776   0.111  13.836  0.7246 -0.8162  0.1182
 6258TIP3   OH240188   1.510   3.584   6.311  0.4001  0.3761 -0.2447
 6258TIP3    H140189   1.513   3.489   6.299  1.9576  0.6139 -2.3479
 6258TIP3    H240190   1.450   3.597   6.384  0.7562 -2.2552  0.6312
 6259TIP3   OH240191   0.920   2.840  11.534  0.1939  0.2875  0.7273
 6259TIP3    H140192   0.955   2.751  11.521  0.7807  0.7027 -0.7219
 6259TIP3    H240193   0.923   2.852  11.629 -1.5034 -1.8651  1.1395
 6260TIP3   OH240194   3.805   2.700  11.357  0.2123  0.2147 -0.0795
 6260TIP3    H140195   3.832   2.789  11.380 -0.2252  0.5724 -0.9290
 6260TIP3    H240196   3.711   2.697  11.375 -0.0547  0.3654 -1.3378
 6261TIP3   OH240197   4.865   1.794   0.137 -0.2232  0.5766 -0.1454
 6261TIP3    H140198   4.778   1.797   0.177 -0.6061 -0.2248 -0.8738
 6261TIP3    H240199   4.925   1.796   0.211 -0.9169 -1.6141  0.5856
 6262TIP3   OH240200   5.281   1.091  11.960 -0.4138 -0.2443  0.5935
 6262TIP3    H140201   5.273   1.155  12.031 -1.0491  0.4704 -0.1061
 6262TIP3    H240202   5.332   1.019  11.998 -1.2020 -0.1234  1.9429
 6263TIP3   OH240203   4.613   3.314  13.032  0.8525  0.0421 -0.5236
 6263TIP3    H140204   4.586   3.336  12.943 -0.3174  0.4403 -0.0831
 6263TIP3    H240205   4.571   3.230  13.050  0.9056  0.0675 -0.2710
 6264TIP3   OH240206   5.648   2.722  10.817 -0.0506 -0.1611  0.0671
 6264TIP3    H140207   5.664   2.816  10.822 -0.3118 -0.0734 -0.6835
 6264TIP3    H240208   5.730   2.685  10.784  0.1363 -0.2324  0.5946
 6265TIP3   OH240209   6.337   6.030  14.354  0.1054  0.0231 -0.0618
 6265TIP3    H140210   6.350   6.107  14.410  2.4119 -0.7098  0.5382
 6265TIP3    H240211   6.410   5.972  14.377 -1.0386 -1.9449 -1.1721
 6266TIP3   OH240212   5.308   2.193  14.196 -0.2013 -0.4875 -0.0241
 6266TIP3    H140213   5.402   2.204  14.206  0.0544 -2.0881 -0.4511
 6266TIP3    H240214   5.285   2.123  14.258 -1.1695  0.1048  0.3108
 6267TIP3   OH240215   5.041   6.537  13.332 -0.0960 -0.3893 -0.1414
 6267TIP3    H140216   5.106   6.547  13.263 -1.5722 -0.3748 -1.5981
 6267TIP3    H240217   5.025   6.626  13.363 -1.2116 -0.0794 -1.5364
 6268TIP3   OH240218   1.881   5.550   4.739  1.0864  0.0256 -0.4813
 6268TIP3    H140219   1.963   5.518   4.701  2.2054 -0.7713  2.3048
 6268TIP3    H240220   1.902   5.563   4.832 -2.0695 -0.6859  0.4408
 6269TIP3   OH240221   5.953   3.561   1.382  0.1905 -0.1543  0.4918
 6269TIP3    H140222   5.954   3.490   1.446  0.6951 -0.1696  0.4756
 6269TIP3    H240223   5.992   3.635   1.428 -0.7200  0.2455  0.6465
 6270TIP3   OH240224   3.774   0.630  16.627 -0.3321  0.0563 -0.1642
 6270TIP3    H140225   3.680   0.625  16.641 -0.1242 -1.6570  0.9112
 6270TIP3    H240226   3.788   0.717  16.588 -2.1446  1.0413  1.2100
 6271TIP3   OH240227   3.568   2.266  16.320 -0.1066  0.8502  0.2707
 6271TIP3    H140228   3.494   2.245  16.263  0.6760  0.3373 -0.5827
 6271TIP3    H240229   3.556   2.358  16.342 -0.5087  1.0204 -0.6026
 6272TIP3   OH240230   1.582   4.007   4.149 -0.3299 -0.3184 -0.6076
 6272TIP3    H140231   1.619   3.936   4.201 -0.0154 -0.2416 -0.7212
 6272TIP3    H240232   1.587   3.975   4.059 -0.8410 -0.4385 -0.5963
 6273TIP3   OH240233   4.195   2.280   2.722 -0.2666 -0.2418 -0.0239
 6273TIP3    H140234   4.267   2.222   2.746  0.4460  0.7229  0.2201
 6273TIP3    H240235   4.136   2.225   2.671  0.0982 -1.3265  0.6956
 6274TIP3   OH240236   3.088   2.241  15.914  0.0363  0.3382  0.7071
 6274TIP3    H140237   3.027   2.189  15.861 -0.5043  1.7853 -0.1269
 6274TIP3    H240238   3.172   2.230  15.871  0.1551 -0.7026  1.1708
 6275TIP3   OH240239   3.234   3.961  10.795  0.1212  0.2918  0.3304
 6275TIP3    H140240   3.203   3.873  10.772 -0.9173  0.9241 -0.7374
 6275TIP3    H240241   3.325   3.947  10.822 -0.1090 -1.1519  0.4692
 6276TIP3   OH240242   5.728   0.712   1.311  0.2475 -0.3311  0.5161
 6276TIP3    H140243   5.638   0.700   1.340  0.0200 -3.0627 -0.9956
 6276TIP3    H240244   5.726   0.792   1.258 -1.8977 -1.5637 -1.4504
 6277TIP3   OH240245   3.498   6.430   2.601  0.0478  0.1450 -0.3073
 6277TIP3    H140246   3.461   6.443   2.688 -1.1469 -2.5278 -0.2863
 6277TIP3    H240247   3.422   6.406   2.547  0.6800  2.2247 -2.2642
 6278TIP3   OH240248   3.823   6.575  11.169 -0.5293 -0.1950  0.5121
 6278TIP3    H140249   3.753   6.518  11.138 -1.3991  0.5292  1.0804
 6278TIP3    H240250   3.809   6.657  11.121  0.9063 -0.5378 -0.5507
 6279TIP3   OH240251   4.071   0.451   3.644  0.0673  0.0942  0.3029
 6279TIP3    H140252   4.059   0.416   3.733 -0.3129  0.5319  0.4277
 6279TIP3    H240253   4.115   0.535   3.657 -0.5805  0.4624  0.1193
 6280TIP3   OH240254   1.392   4.694  12.950 -0.0664  0.1637  0.3050
 6280TIP3    H140255   1.377   4.788  12.940  1.0590  0.4215  0.7921
 6280TIP3    H240256   1.487   4.686  12.963 -0.0835 -1.0842 -0.1620
 6281TIP3   OH240257   4.904   2.377   2.031 -0.2392 -0.2919  0.3993
 6281TIP3    H140258   4.912   2.367   1.937  1.0809 -1.3296  0.5979
 6281TIP3    H240259   4.980   2.332   2.067 -0.1979  0.9099  1.9259
 6282TIP3   OH240260   4.306   2.091  13.088  0.1523  0.2748  0.1624
 6282TIP3    H140261   4.373   2.035  13.128 -0.8710 -0.8597  0.3485
 6282TIP3    H240262   4.329   2.180  13.117  1.7434 -0.0324 -0.0458
 6283TIP3   OH240263   0.704   3.737  12.101 -0.5706  0.2377 -0.2093
 6283TIP3    H140264   0.674   3.657  12.144 -0.3105 -0.3763 -1.1311
 6283TIP3    H240265   0.760   3.780  12.166  0.5287 -1.1078 -0.2191
 6284TIP3   OH240266   6.066   1.970   3.898  0.0891 -0.1501  0.3597
 6284TIP3    H140267   6.083   1.993   3.806  1.0717  1.1302  0.8341
 6284TIP3    H240268   5.985   1.918   3.895 -0.9851  1.5021 -1.0251
 6285TIP3   OH240269   3.065   0.613  12.983 -0.2209 -0.3470 -0.0007
 6285TIP3    H140270   2.973   0.608  12.955 -0.7013 -2.7437  1.6426
 6285TIP3    H240271   3.115   0.613  12.901 -1.6419  1.0987 -0.9318
 6286TIP3   OH240272   5.253   1.421  13.008 -0.5989  0.1153 -0.5491
 6286TIP3    H140273   5.299   1.472  12.941 -2.6157  2.1313 -0.5204
 6286TIP3    H240274   5.301   1.441  13.089  1.1287 -1.4007 -1.1236
 6287TIP3   OH240275   3.724   3.642   4.937  0.1778 -0.1911 -0.0883
 6287TIP3    H140276   3.712   3.735   4.957  2.3727 -0.0794  0.9542
 6287TIP3    H240277   3.655   3.598   4.986  1.0910  0.6669  2.0841
 6288TIP3   OH240278   3.154   3.293   4.474 -0.1531 -0.8220 -0.8828
 6288TIP3    H140279   3.082   3.314   4.414  0.0525  1.1292 -0.5166
 6288TIP3    H240280   3.188   3.209   4.442 -2.2888 -1.5994 -1.3213
 6289TIP3   OH240281   3.906   3.223   5.132 -0.0685 -0.5968  0.2615
 6289TIP3    H140282   3.940   3.164   5.200 -1.5713 -0.3311  1.2779
 6289TIP3    H240283   3.936   3.310   5.160 -0.8606 -0.4629  0.7136
 6290TIP3   OH240284   0.425   5.545   3.339 -0.7463  0.2748  0.0847
 6290TIP3    H140285   0.501   5.513   3.290 -0.6908 -1.8739  1.4489
 6290TIP3    H240286   0.462   5.581   3.419 -1.0687  0.5533  0.1079
 6291TIP3   OH240287   5.979   1.589  13.163  0.5924  0.6919  0.4361
 6291TIP3    H140288   6.061   1.563  13.204  0.6026  1.0420  0.6390
 6291TIP3    H240289   6.000   1.670  13.115  0.4739  0.5385  0.1202
 6292TIP3   OH240290   5.113   5.958  15.167 -0.0438  0.4711 -0.0277
 6292TIP3    H140291   5.082   6.021  15.101 -1.4332 -0.3103 -0.1620
 6292TIP3    H240292   5.171   6.010  15.224 -0.5230  1.6821 -0.5990
 6293TIP3   OH240293   0.872   4.629  16.312  0.4653 -0.5647  0.4761
 6293TIP3    H140294   0.849   4.536  16.305  0.5493 -0.6758  1.5068
 6293TIP3    H240295   0.837   4.669  16.233 -0.7207 -1.2488  0.6415
 6294TIP3   OH240296   3.241   6.757   5.362 -0.8488 -0.0040  0.0367
 6294TIP3    H140297   3.195   6.789   5.285  0.6518  1.3023 -0.3676
 6294TIP3    H240298   3.254   6.834   5.416  2.0158 -0.0133 -0.5023
 6295TIP3   OH240299   0.646   5.685   1.663  0.2900 -0.7003 -0.4533
 6295TIP3    H140300   0.573   5.709   1.719  0.6857 -1.1230  0.2550
 6295TIP3    H240301   0.655   5.758   1.602 -0.8229 -0.7233 -0.6546
 6296TIP3   OH240302   6.308   1.845  13.739  0.2812  0.2452  0.1831
 6296TIP3    H140303   6.325   1.933  13.704 -0.9547  0.3750 -0.1156
 6296TIP3    H240304   6.213   1.836  13.738  0.3152 -0.5419  1.6012
 6297TIP3   OH240305   6.594   3.111  15.020  0.2872  0.2470 -0.2050
 6297TIP3    H140306   6.550   3.132  15.102  0.0503  2.5968 -0.8694
 6297TIP3    H240307   6.542   3.153  14.953  1.4002 -0.2131 -1.4041
 6298TIP3   OH240308   3.352   2.845   2.508 -0.3245 -0.1628  0.2482
 6298TIP3    H140309   3.395   2.761   2.494  0.4846  0.4228 -0.8529
 6298TIP3    H240310   3.290   2.853   2.436  0.3961  0.6857 -0.2843
 6299TIP3   OH240311   3.264   2.179  11.999 -0.0340  0.1946  0.2333
 6299TIP3    H140312   3.344   2.183  11.948  0.4711 -0.4022  0.9479
 6299TIP3    H240313   3.288   2.130  12.078 -1.1879 -0.3539  0.2780
 6300TIP3   OH240314   0.783   3.755  15.370 -0.5237 -0.0887  0.1730
 6300TIP3    H140315   0.843   3.821  15.334 -1.9261  0.5648 -1.0679
 6300TIP3    H240316   0.810   3.673  15.329 -0.4339  0.1964 -0.3579
 6301TIP3   OH240317   0.599   4.481  16.497 -0.1376  0.0435 -0.0548
 6301TIP3    H140318   0.571   4.546  16.433  0.3836 -0.9193 -1.2876
 6301TIP3    H240319   0.674   4.438  16.457 -0.8484 -1.7502  0.4439
 6302TIP3   OH240320   2.194   2.030   0.968 -1.2270  0.0325  0.0547
 6302TIP3    H140321   2.100   2.045   0.955 -1.2674  0.1158  0.4227
 6302TIP3    H240322   2.232   2.033   0.880 -1.7426 -1.2498 -0.2423
 6303TIP3   OH240323   0.573   4.192   1.469 -0.1263 -0.0932 -0.0546
 6303TIP3    H140324   0.645   4.222   1.525 -0.1713  0.9462 -0.5392
 6303TIP3    H240325   0.500   4.250   1.490 -0.5844 -0.6226 -0.1559
 6304TIP3   OH240326   1.847   2.524   4.177 -0.6086 -0.1124  0.4340
 6304TIP3    H140327   1.868   2.465   4.104 -1.8372  0.0420 -0.0701
 6304TIP3    H240328   1.875   2.610   4.146 -0.4972 -0.1527  0.4229
 6305TIP3   OH240329   1.178   1.508  16.935 -0.6295 -0.5462 -0.1319
 6305TIP3    H140330   1.129   1.426  16.934 -2.1145  0.3074 -1.4360
 6305TIP3    H240331   1.258   1.490  16.886  0.4549 -1.9502  1.9894
 6306TIP3   OH240332   4.573   3.934   4.863 -0.2271  0.0453 -0.4655
 6306TIP3    H140333   4.650   3.929   4.920 -0.6277 -1.7580 -0.0062
 6306TIP3    H240334   4.596   3.879   4.788 -0.4723  0.7969 -1.1080
 6307TIP3   OH240335   5.664   0.812   0.110 -0.5024  0.1549 -0.3472
 6307TIP3    H140336   5.735   0.852   0.060 -0.6155  0.6678 -0.1043
 6307TIP3    H240337   5.660   0.862   0.191 -1.9704  0.9752 -0.8787
 6308TIP3   OH240338   4.150   2.913  11.897 -0.3791 -0.5723  0.4724
 6308TIP3    H140339   4.151   2.818  11.889  0.6797 -0.5905  0.6621
 6308TIP3    H240340   4.197   2.931  11.979 -0.9754  0.0993  0.6832
 6309TIP3   OH240341   2.252   4.934   5.537  0.2887 -0.0897 -0.4198
 6309TIP3    H140342   2.305   4.881   5.478  0.2165 -0.9281  0.2621
 6309TIP3    H240343   2.291   5.022   5.531  2.3626 -0.8622  0.7537
 6310TIP3   OH240344   3.455   3.922  16.972 -0.0688 -0.3092 -0.2931
 6310TIP3    H140345   3.391   3.882  17.031  0.5862 -2.9753 -1.2066
 6310TIP3    H240346   3.403   3.976  16.912 -1.3847 -1.6722 -0.4297
 6311TIP3   OH240347   4.034   6.503  15.046  0.3928 -0.2864 -0.1900
 6311TIP3    H140348   3.994   6.589  15.061  1.8962  0.6983 -1.5028
 6311TIP3    H240349   3.978   6.442  15.094 -0.4625  1.4657  1.1550
 6312TIP3   OH240350   4.304   6.470   2.297  0.6427  0.3899  0.6398
 6312TIP3    H140351   4.274   6.523   2.371 -0.8517 -1.4410  1.4374
 6312TIP3    H240352   4.244   6.494   2.226 -0.3716 -0.5540  1.1496
 6313TIP3   OH240353   5.499   0.958   2.744 -0.2769  0.0127  0.1423
 6313TIP3    H140354   5.458   0.891   2.689 -1.1999  0.4377  0.2826
 6313TIP3    H240355   5.445   0.960   2.824  1.5983 -1.2655  1.5144
 6314TIP3   OH240356   6.507   5.527  11.055  0.5343 -0.4568 -0.2850
 6314TIP3    H140357   6.476   5.580  10.982  1.6849 -0.3663 -0.7252
 6314TIP3    H240358   6.431   5.519  11.113 -0.0207  0.5720 -0.8453
 6315TIP3   OH240359   5.943   3.222   2.462 -0.3593  0.4078  0.1981
 6315TIP3    H140360   6.035   3.198   2.455 -0.0060  1.9989 -1.1994
 6315TIP3    H240361   5.941   3.290   2.529 -0.9502 -1.3552  2.0901
 6316TIP3   OH240362   0.049   4.739   2.192  0.0553  0.3749  0.1241
 6316TIP3    H140363  -0.044   4.731   2.216 -0.1427 -0.8445 -0.9758
 6316TIP3    H240364   0.050   4.736   2.097  1.2947 -0.3529  0.1462
 6317TIP3   OH240365   4.712   3.242  16.945 -0.5053  0.1534  0.2347
 6317TIP3    H140366   4.686   3.199  17.027 -0.1630  0.8693  0.7374
 6317TIP3    H240367   4.634   3.293  16.919  0.2728  2.2740  1.7258
 6318TIP3   OH240368   5.094   0.030  16.264 -0.3179 -0.4102 -0.4369
 6318TIP3    H140369   5.077  -0.055  16.223 -1.4418  0.6072 -2.2022
 6318TIP3    H240370   5.022   0.085  16.234 -0.3070  0.8609  1.6788
 6319TIP3   OH240371   4.575   1.989   0.035  0.4138  0.0608  0.0903
 6319TIP3    H140372   4.590   2.084   0.034 -2.1041  0.5844  1.6941
 6319TIP3    H240373   4.502   1.977  -0.026 -0.1654 -0.6149  0.8987
 6320TIP3   OH240374   3.093   5.507  16.438 -0.0058  0.0603  0.2631
 6320TIP3    H140375   3.099   5.522  16.532  1.2797  0.3172  0.1586
 6320TIP3    H240376   3.118   5.416  16.427 -2.5591 -0.7166  0.3789
 6321TIP3   OH240377   0.433   6.604   5.793 -0.0369 -0.5235  0.4692
 6321TIP3    H140378   0.487   6.604   5.872  2.8449 -3.1181 -1.3045
 6321TIP3    H240379   0.388   6.520   5.795  1.0398 -1.1658 -1.2162
 6322TIP3   OH240380   2.048   2.185  11.281 -0.5200  0.6318  0.2485
 6322TIP3    H140381   1.956   2.162  11.271 -0.3599 -0.1152  0.4174
 6322TIP3    H240382   2.047   2.265  11.333 -1.0914  0.9729 -0.2802
 6323TIP3   OH240383   1.435   5.050   1.563  0.6672  0.4502 -0.8199
 6323TIP3    H140384   1.435   5.143   1.584 -2.3166  0.2121  0.8152
 6323TIP3    H240385   1.349   5.019   1.593  1.5884 -2.8442 -1.2220
 6324TIP3   OH240386   5.489   2.504   3.153 -0.3891 -0.1627 -0.6037
 6324TIP3    H140387   5.539   2.522   3.074 -1.3042 -0.0009 -1.1575
 6324TIP3    H240388   5.427   2.436   3.128  0.6088 -1.5600  0.5134
 6325TIP3   OH240389   2.822   3.992  12.443  0.0161  0.8747  0.1131
 6325TIP3    H140390   2.792   4.063  12.387 -0.6945 -0.9268 -1.9439
 6325TIP3    H240391   2.913   3.977  12.416 -0.4948 -0.3608 -1.0664
 6326TIP3   OH240392   3.994   5.746   6.000  1.1573  0.0364  0.2497
 6326TIP3    H140393   4.088   5.753   6.014  1.0027  1.3957  0.7196
 6326TIP3    H240394   3.957   5.824   6.041 -0.2378 -0.7413  0.5459
 6327TIP3   OH240395   4.973   3.561  14.011 -0.5005  0.4038  0.0953
 6327TIP3    H140396   4.994   3.647  13.975  0.8898  0.4759  0.9801
 6327TIP3    H240397   4.904   3.578  14.075 -0.7288  0.7470 -0.2385
 6328TIP3   OH240398   2.428   4.522   6.565  0.1582 -0.6360 -0.2807
 6328TIP3    H140399   2.521   4.543   6.554  0.2108 -0.5116  0.3717
 6328TIP3    H240400   2.399   4.495   6.478  1.0772 -1.7645 -0.2458
 6329TIP3   OH240401   3.675   2.630   2.310 -0.3605 -0.0093 -0.1456
 6329TIP3    H140402   3.650   2.704   2.254 -1.1666 -0.8069 -0.8777
 6329TIP3    H240403   3.764   2.650   2.339 -0.0128  0.5494 -1.5324
 6330TIP3   OH240404   5.289   3.581  13.301 -0.5637 -0.2771  0.3407
 6330TIP3    H140405   5.243   3.632  13.234  1.4428  0.4593 -0.5639
 6330TIP3    H240406   5.299   3.494  13.262  0.7078  0.1834 -0.4151
 6331TIP3   OH240407   1.575   4.288  15.608 -0.1025 -0.4747 -0.0443
 6331TIP3    H140408   1.525   4.225  15.658 -2.2124  0.3852 -0.9453
 6331TIP3    H240409   1.553   4.373  15.647 -1.2022  0.1343 -1.8463
 6332TIP3   OH240410   3.619   0.797   4.033 -0.0100 -0.1696 -0.1768
 6332TIP3    H140411   3.692   0.746   4.069  0.0912 -0.0372 -0.1948
 6332TIP3    H240412   3.641   0.888   4.054  0.7631  0.0575 -1.8245
 6333TIP3   OH240413   3.280   0.755  13.347 -0.1242 -0.2623  0.1613
 6333TIP3    H140414   3.297   0.714  13.433  0.8097 -0.8190 -0.2652
 6333TIP3    H240415   3.362   0.743  13.299 -0.7722 -0.3071 -0.9552
 6334TIP3   OH240416   0.283   4.131   1.424  0.4332  0.0210 -0.0285
 6334TIP3    H140417   0.281   4.037   1.438  1.4736 -0.1888 -1.0393
 6334TIP3    H240418   0.315   4.141   1.334 -0.2126  1.3292 -0.1473
 6335TIP3   OH240419   5.059   1.732  12.408  0.1250 -0.5841 -0.1363
 6335TIP3    H140420   5.091   1.701  12.493 -0.1039  1.2631  0.6746
 6335TIP3    H240421   4.998   1.802  12.430 -0.0787 -0.1882 -1.8429
 6336TIP3   OH240422   4.382   6.490   4.825 -0.8630 -0.2869 -0.1757
 6336TIP3    H140423   4.331   6.563   4.859  0.2732  1.2241 -1.5972
 6336TIP3    H240424   4.390   6.430   4.900  0.2049  2.1462  1.7986
 6337TIP3   OH240425   1.744   3.055  14.469  0.0935  0.6154  0.8638
 6337TIP3    H140426   1.679   3.077  14.535 -0.4419  0.7244  0.3116
 6337TIP3    H240427   1.696   3.006  14.403 -0.0679  2.9326 -0.8679
 6338TIP3   OH240428   1.020   2.719   5.750 -0.1170 -0.1815  0.0292
 6338TIP3    H140429   1.087   2.652   5.759  0.4529  0.0464 -2.0628
 6338TIP3    H240430   1.054   2.794   5.800  0.9869 -0.2109 -0.6610
 6339TIP3   OH240431   5.115   1.149   1.656  0.9421  0.0831 -0.0039
 6339TIP3    H140432   5.203   1.118   1.634  0.7280 -0.2845 -0.3504
 6339TIP3    H240433   5.071   1.072   1.691 -0.4990 -0.8159 -3.4139
 6340TIP3   OH240434   2.101   4.412   5.692 -0.3038  0.2996 -0.3683
 6340TIP3    H140435   2.186   4.379   5.722  0.8379  1.2648 -2.3663
 6340TIP3    H240436   2.118   4.504   5.669 -1.5040  0.1099 -2.1921
 6341TIP3   OH240437   0.069   2.822  12.216  0.7110 -0.2239 -0.4232
 6341TIP3    H140438  -0.001   2.758  12.230 -0.0855  0.5423 -0.8669
 6341TIP3    H240439   0.150   2.770  12.222  0.0689 -1.3602 -1.2654
 6342TIP3   OH240440   0.676   3.317  13.322  0.3213 -0.3652 -0.1945
 6342TIP3    H140441   0.603   3.359  13.276  1.3182  1.2704 -0.3386
 6342TIP3    H240442   0.651   3.319  13.414  0.0409 -0.0870 -0.2758
 6343TIP3   OH240443   4.785   1.347   0.998 -0.1026  0.0893 -1.0448
 6343TIP3    H140444   4.842   1.408   1.046 -0.6490  0.2140 -0.5389
 6343TIP3    H240445   4.701   1.393   0.991 -0.3458 -0.3674 -1.1791
 6344TIP3   OH240446   1.703   6.254  10.286  0.1492  0.1288 -0.6774
 6344TIP3    H140447   1.748   6.316  10.229  0.2799 -0.7232 -1.5202
 6344TIP3    H240448   1.693   6.301  10.369  0.7790  1.0520 -1.1078
 6345TIP3   OH240449   3.551   2.729   1.582 -0.0413  0.7685  0.3856
 6345TIP3    H140450   3.538   2.764   1.494 -1.8204  0.8450  0.6472
 6345TIP3    H240451   3.469   2.684   1.602  0.8544 -0.4609  1.4715
 6346TIP3   OH240452   1.443   1.491   0.527 -0.1951 -0.0830  0.7548
 6346TIP3    H140453   1.349   1.503   0.543 -0.1975 -0.7124  1.2473
 6346TIP3    H240454   1.447   1.420   0.464 -0.0832  0.7403 -0.1959
 6347TIP3   OH240455   0.781   0.523   4.399  0.4451 -0.3924  0.4733
 6347TIP3    H140456   0.856   0.488   4.351  1.9859  1.0929  1.6565
 6347TIP3    H240457   0.726   0.563   4.332  0.9363 -1.0902 -0.3733
 6348TIP3   OH240458   0.568   3.271  12.705  0.4669 -0.3937  0.4208
 6348TIP3    H140459   0.652   3.313  12.722  0.3739 -0.3444  0.7622
 6348TIP3    H240460   0.503   3.332  12.739  0.3468 -0.9807  1.2606
 6349TIP3   OH240461   6.342   4.204   0.980 -0.4695 -0.4388  0.2811
 6349TIP3    H140462   6.433   4.194   0.954 -0.4098 -1.2059  0.7564
 6349TIP3    H240463   6.294   4.141   0.926 -0.8894  0.7659 -0.7977
 6350TIP3   OH240464   6.332   2.079  15.445  0.4031 -0.3401  0.6530
 6350TIP3    H140465   6.252   2.113  15.404 -0.6839 -2.4235  0.8854
 6350TIP3    H240466   6.324   2.104  15.537 -0.2143 -0.8636  0.7556
 6351TIP3   OH240467   4.449   2.188  15.971  0.2937  0.1623  0.1749
 6351TIP3    H140468   4.413   2.241  16.042 -0.2361  0.0256  0.0092
 6351TIP3    H240469   4.406   2.222  15.892 -0.4452 -0.8584  0.1244
 6352TIP3   OH240470   4.782   0.624  12.123 -0.5095  0.0476 -0.4490
 6352TIP3    H140471   4.775   0.569  12.200 -1.2767 -0.7181 -1.0456
 6352TIP3    H240472   4.705   0.681  12.126  1.5208  3.0203  1.5463
 6353TIP3   OH240473   0.812   0.776  13.297  0.6222  0.1606  0.5140
 6353TIP3    H140474   0.721   0.775  13.328  0.7940 -0.1160  1.0234
 6353TIP3    H240475   0.850   0.854  13.338  0.3516  0.8529 -0.5027
 6354TIP3   OH240476   3.866   4.047  13.658  0.4679 -0.6284  0.1848
 6354TIP3    H140477   3.813   4.014  13.731 -1.9580 -1.3531 -1.7707
 6354TIP3    H240478   3.946   3.994  13.661 -1.1318 -3.2234  0.2278
 6355TIP3   OH240479   6.053   4.240  11.254  0.3245  0.0104 -0.1291
 6355TIP3    H140480   6.097   4.156  11.237  1.1958  0.6346 -1.0989
 6355TIP3    H240481   6.042   4.242  11.349  2.2115 -0.2916  0.1393
 6356TIP3   OH240482   6.360   6.228  12.905 -0.4729 -0.1627  0.2441
 6356TIP3    H140483   6.416   6.231  12.982 -0.3170  0.2191  0.1209
 6356TIP3    H240484   6.292   6.165  12.926  0.7373 -1.6315 -0.0956
 6357TIP3   OH240485   6.193   4.835   0.281  0.5721 -0.5139 -0.0991
 6357TIP3    H140486   6.199   4.926   0.307 -0.2598 -0.2130 -0.8997
 6357TIP3    H240487   6.105   4.808   0.306  0.3950 -0.7388 -0.9165
 6358TIP3   OH240488   4.212   4.327   0.083 -0.2092 -0.8503  0.2881
 6358TIP3    H140489   4.230   4.410   0.127  1.1511 -0.3185 -1.2153
 6358TIP3    H240490   4.121   4.307   0.108 -0.9069  1.5561 -0.0619
 6359TIP3   OH240491   1.967   2.073  13.074 -0.2903 -0.5125  0.5535
 6359TIP3    H140492   2.018   2.006  13.118 -0.2027 -0.3220  0.7417
 6359TIP3    H240493   1.883   2.031  13.055  0.0611 -0.9450 -0.0837
 6360TIP3   OH240494   3.030   2.324  13.105  0.3375 -0.0589 -0.0515
 6360TIP3    H140495   2.957   2.382  13.085 -0.6650 -0.6743  1.5882
 6360TIP3    H240496   3.098   2.382  13.139 -0.9312  0.1666  2.2977
 6361TIP3   OH240497   6.567   4.000  14.609  0.7706  0.5224  0.4438
 6361TIP3    H140498   6.581   3.907  14.591  3.0398  0.7748  0.6489
 6361TIP3    H240499   6.477   4.017  14.579  0.5113 -1.5823 -0.1299
 6362TIP3   OH240500   4.308   2.247  15.738  0.4061 -0.3638  0.4391
 6362TIP3    H140501   4.228   2.194  15.747 -0.3962  0.3241 -1.8686
 6362TIP3    H240502   4.363   2.196  15.678  0.7774  0.1672  0.3320
 6363TIP3   OH240503   1.900   4.166   5.902  0.0998 -0.1903  0.5470
 6363TIP3    H140504   1.966   4.217   5.949  0.6306  0.0567 -0.4440
 6363TIP3    H240505   1.941   4.080   5.888  0.2816  0.0138 -0.2084
 6364TIP3   OH240506   3.738   6.185   6.100 -0.2751 -0.6272 -0.0536
 6364TIP3    H140507   3.644   6.187   6.082 -0.0622 -0.1213 -1.1769
 6364TIP3    H240508   3.751   6.252   6.168 -0.8136 -1.1861  0.6171
 6365TIP3   OH240509   1.635   1.241   4.759 -0.7376  0.3249  0.2260
 6365TIP3    H140510   1.565   1.212   4.702 -1.7600  1.2647  0.9571
 6365TIP3    H240511   1.697   1.285   4.701  0.5370 -2.5940 -0.8075
 6366TIP3   OH240512   5.251   5.544   2.368 -0.3298 -0.0173 -0.6962
 6366TIP3    H140513   5.161   5.556   2.400 -1.2115 -2.3909 -2.0340
 6366TIP3    H240514   5.280   5.631   2.344 -1.7771  0.9967  0.9706
 6367TIP3   OH240515   1.809   1.575  15.359  0.5304 -0.8625  0.3522
 6367TIP3    H140516   1.860   1.522  15.298  0.1656 -0.4623 -0.3073
 6367TIP3    H240517   1.875   1.618  15.413  0.8534 -1.3118  0.3241
 6368TIP3   OH240518   0.898   3.997  14.750 -0.2072 -0.5207 -0.2053
 6368TIP3    H140519   0.892   3.935  14.823 -0.3879  0.2101  0.4288
 6368TIP3    H240520   0.807   4.017  14.729 -0.1662 -1.2577 -1.1128
 6369TIP3   OH240521   6.050   1.638  14.708 -0.4990 -0.5059  0.1830
 6369TIP3    H140522   6.057   1.543  14.715  0.6171 -0.3432  2.1932
 6369TIP3    H240523   6.116   1.671  14.769 -1.5358  1.5625  0.2636
 6370TIP3   OH240524   3.092   0.176   1.000  0.2592  0.1577  0.1782
 6370TIP3    H140525   3.093   0.251   0.940 -0.8478 -1.1890 -1.6577
 6370TIP3    H240526   3.070   0.213   1.085 -0.7315  1.8722 -0.7753
 6371TIP3   OH240527   5.864   2.035   4.372 -0.1254  0.1447  0.2367
 6371TIP3    H140528   5.861   1.957   4.428 -0.7126  1.1292  1.6101
 6371TIP3    H240529   5.793   2.021   4.308  0.7479 -1.1269 -0.5065
 6372TIP3   OH240530   6.353   0.815  15.003  0.0219 -0.6650 -0.2287
 6372TIP3    H140531   6.285   0.809  14.936  0.8325 -0.7459 -1.0714
 6372TIP3    H240532   6.404   0.892  14.978  0.7575 -1.1041 -0.1214
 6373TIP3   OH240533   0.449   1.263   3.798 -0.2144  0.3818 -0.2285
 6373TIP3    H140534   0.532   1.255   3.751  0.5196  2.2887  0.6233
 6373TIP3    H240535   0.452   1.195   3.865 -0.5548 -1.2940 -1.8454
 6374TIP3   OH240536   3.837   1.578  16.413 -0.0992  0.0223  0.0490
 6374TIP3    H140537   3.880   1.625  16.485  2.4360  0.7885 -1.8022
 6374TIP3    H240538   3.896   1.506  16.392  0.5267  1.2123 -2.7397
 6375TIP3   OH240539   3.264   1.138  11.275  0.6331 -0.1131 -0.2913
 6375TIP3    H140540   3.222   1.224  11.285  0.8262  0.1384 -1.5082
 6375TIP3    H240541   3.354   1.158  11.250 -0.0122 -0.5894 -3.4724
 6376TIP3   OH240542   2.314   1.065   5.578 -0.1698 -0.4154  0.2209
 6376TIP3    H140543   2.393   1.086   5.527  0.4108  0.9374  1.5816
 6376TIP3    H240544   2.245   1.118   5.538 -0.4293 -1.6862 -1.0440
 6377TIP3   OH240545   3.540   2.662   0.563 -0.4024  0.6900  0.0748
 6377TIP3    H140546   3.501   2.748   0.577 -0.3011  0.5630  1.1651
 6377TIP3    H240547   3.473   2.614   0.514  0.0810  1.8020 -1.7955
 6378TIP3   OH240548   2.917   6.254   0.803  0.1413 -0.3140  0.8588
 6378TIP3    H140549   2.914   6.165   0.767  0.8545 -0.2363  0.5834
 6378TIP3    H240550   2.827   6.273   0.828 -0.0614 -1.0261  0.7016
 6379TIP3   OH240551   4.716   4.464   6.158 -0.0110 -0.6159  0.1396
 6379TIP3    H140552   4.763   4.444   6.239 -0.9359 -1.8838  0.4080
 6379TIP3    H240553   4.715   4.559   6.153  1.6011 -0.5539  0.6821
 6380TIP3   OH240554   3.152   4.447  16.785  0.2556  0.1193 -0.6679
 6380TIP3    H140555   3.067   4.408  16.768  0.8550 -0.4306 -2.7653
 6380TIP3    H240556   3.133   4.528  16.832 -1.5158  0.4477 -1.8553
 6381TIP3   OH240557   3.795   2.969   4.945  0.4462  0.1140 -0.6059
 6381TIP3    H140558   3.844   2.901   4.897 -0.3851 -1.4485  0.6558
 6381TIP3    H240559   3.713   2.977   4.897  0.5998  0.3244 -0.8342
 6382TIP3   OH240560   1.225   4.402   2.225  0.2642  0.1039  0.3031
 6382TIP3    H140561   1.153   4.394   2.287 -1.3449 -0.8981 -1.5584
 6382TIP3    H240562   1.297   4.437   2.276 -0.8702 -0.9179  2.7669
 6383TIP3   OH240563   1.625   4.903   5.566 -0.0846 -0.5527  0.3541
 6383TIP3    H140564   1.637   4.966   5.494 -0.4425 -2.3449 -1.3608
 6383TIP3    H240565   1.714   4.879   5.592  0.0629  0.8117  1.2141
 6384TIP3   OH240566   6.107   4.256  16.322  0.0359 -0.2970  0.1580
 6384TIP3    H140567   6.193   4.232  16.357  0.4606 -1.1063 -1.3819
 6384TIP3    H240568   6.045   4.206  16.375  0.4098  0.8087  1.7405
 6385TIP3   OH240569   3.868   1.903   4.422 -0.5253 -0.1650 -0.1239
 6385TIP3    H140570   3.795   1.960   4.399 -2.2049 -2.5118 -1.0316
 6385TIP3    H240571   3.867   1.835   4.354  1.6965 -1.0021  0.5963
 6386TIP3   OH240572   0.092   4.239   4.763 -0.2584  0.2429 -0.1782
 6386TIP3    H140573   0.067   4.325   4.728 -0.6306 -0.1761 -0.9671
 6386TIP3    H240574   0.012   4.187   4.756  0.0910 -0.2980 -0.1222
 6387TIP3   OH240575   1.571   5.915   2.667  0.0651  0.3525 -0.0693
 6387TIP3    H140576   1.489   5.908   2.715 -0.8701 -0.0237 -1.6564
 6387TIP3    H240577   1.557   5.864   2.587  2.8709 -2.2366  0.9347
 6388TIP3   OH240578   0.970   3.375  15.983  0.5394  0.9420 -0.0666
 6388TIP3    H140579   0.896   3.369  16.043  1.3271  2.6089  1.1477
 6388TIP3    H240580   0.961   3.298  15.926 -0.9364 -0.0157  1.3659
 6389TIP3   OH240581   0.307   0.016  14.759  0.5526 -0.0168  0.0631
 6389TIP3    H140582   0.372   0.001  14.828  1.3285 -1.3785 -0.9063
 6389TIP3    H240583   0.277   0.105  14.773  1.6659  0.1892  1.3464
 6390TIP3   OH240584   5.861   3.938   5.623  0.0074  0.1743  0.1194
 6390TIP3    H140585   5.827   3.919   5.711  1.5365 -1.2721  0.4631
 6390TIP3    H240586   5.786   3.924   5.565 -0.1550 -2.6266  0.8567
 6391TIP3   OH240587   4.155   1.852   4.338 -0.3266  0.3583  0.1568
 6391TIP3    H140588   4.193   1.794   4.403  1.2107  0.2881 -0.7567
 6391TIP3    H240589   4.069   1.815   4.319 -0.0025 -0.7112  0.7336
 6392TIP3   OH240590   3.005   3.596   0.105  0.0740  0.0044 -0.3315
 6392TIP3    H140591   2.999   3.617   0.012  1.7160  0.8778 -0.2785
 6392TIP3    H240592   3.072   3.528   0.109 -0.4577 -0.4996  0.1631
 6393TIP3   OH240593   1.472   3.022  13.392 -1.2694 -0.4051  0.6435
 6393TIP3    H140594   1.473   3.115  13.369 -3.3992 -0.5117 -0.1418
 6393TIP3    H240595   1.386   2.991  13.361 -0.5521 -2.6656  0.7470
 6394TIP3   OH240596   3.843   0.139   5.506  0.5091  0.2885 -0.0746
 6394TIP3    H140597   3.835   0.155   5.599 -1.4021  3.9978 -0.7013
 6394TIP3    H240598   3.768   0.082   5.485  2.0734 -2.2675  0.8076
 6395TIP3   OH240599   1.049   1.669  14.602 -0.6376  0.2007  0.3792
 6395TIP3    H140600   1.125   1.614  14.583 -0.4184 -1.1639  4.4152
 6395TIP3    H240601   0.977   1.608  14.617 -2.1053  1.3914 -1.3171
 6396TIP3   OH240602   1.112   2.893   4.737  0.5143 -0.0601  0.1677
 6396TIP3    H140603   1.157   2.816   4.772  0.4348  0.8621  2.5077
 6396TIP3    H240604   1.035   2.858   4.692  2.5716 -1.5497 -2.4327
 6397TIP3   OH240605   0.808   6.059  15.305 -0.0207  0.6646 -0.4129
 6397TIP3    H140606   0.734   6.021  15.353  0.8231  2.0007  2.1277
 6397TIP3    H240607   0.804   6.018  15.218 -1.5035 -2.1154  0.8452
 6398TIP3   OH240608   4.233   1.614   1.566 -0.0654 -0.5690 -0.2448
 6398TIP3    H140609   4.228   1.519   1.554  0.0817 -0.7015  0.6665
 6398TIP3    H240610   4.173   1.649   1.501 -0.7434 -1.3263 -0.0432
 6399TIP3   OH240611   2.104   4.387   1.087  0.1856  0.9948  0.5341
 6399TIP3    H140612   2.183   4.430   1.057  0.4245  0.7983  0.8743
 6399TIP3    H240613   2.103   4.401   1.182  0.0379  0.6264  0.5900
 6400TIP3   OH240614   5.683   0.821  10.894  0.0778 -0.1937  1.0634
 6400TIP3    H140615   5.729   0.745  10.858  0.1567 -0.1969  1.1674
 6400TIP3    H240616   5.608   0.834  10.837  0.2434 -0.1521  0.8543
 6401TIP3   OH240617   4.247   3.414   1.629 -0.6530  0.4675 -0.2804
 6401TIP3    H140618   4.204   3.402   1.714  0.4362 -0.5332  0.1544
 6401TIP3    H240619   4.202   3.489   1.590 -2.7318 -0.4568  0.1798
 6402TIP3   OH240620   4.790   1.472   3.533 -0.5378  0.3444 -0.2563
 6402TIP3    H140621   4.828   1.559   3.546 -0.7242  0.2661  0.9153
 6402TIP3    H240622   4.865   1.414   3.522 -0.1366 -0.0440  3.4455
 6403TIP3   OH240623   6.431   4.528   4.423  0.4032 -0.2306 -0.9548
 6403TIP3    H140624   6.395   4.456   4.475 -0.7694  0.9048 -0.1051
 6403TIP3    H240625   6.502   4.563   4.477  1.7565 -1.4403 -1.8924
 6404TIP3   OH240626   1.749   3.354   0.478 -0.9602 -0.4558 -0.4967
 6404TIP3    H140627   1.668   3.317   0.512  0.0392 -2.4971 -0.1400
 6404TIP3    H240628   1.734   3.363   0.384 -1.3423 -1.6884 -0.5797
 6405TIP3   OH240629   3.374   0.562  11.040 -0.1351 -0.1933  0.4728
 6405TIP3    H140630   3.279   0.570  11.048 -0.3199 -0.2471 -1.3451
 6405TIP3    H240631   3.405   0.554  11.130 -2.0852 -2.8549  1.0336
 6406TIP3   OH240632   0.666   5.751   5.093  0.3346  0.1415 -0.8094
 6406TIP3    H140633   0.609   5.712   5.159  1.7284 -2.1654 -0.8551
 6406TIP3    H240634   0.615   5.825   5.058 -0.2987  1.8023  3.0724
 6407TIP3   OH240635   2.560   2.415   4.983 -0.1519 -0.1082 -0.1760
 6407TIP3    H140636   2.590   2.391   4.896  1.3190 -1.7573  0.7312
 6407TIP3    H240637   2.557   2.333   5.032  0.3547  0.9127  1.6973
 6408TIP3   OH240638   4.240   4.895  14.324  0.6068  0.5166  0.3867
 6408TIP3    H140639   4.275   4.895  14.235  0.6293  1.4350  0.3930
 6408TIP3    H240640   4.195   4.978  14.333 -0.5631 -0.1361  0.7934
 6409TIP3   OH240641   0.316   5.801   2.202 -0.1715 -0.4147  0.1831
 6409TIP3    H140642   0.222   5.788   2.213 -0.5740 -0.5206 -2.6060
 6409TIP3    H240643   0.350   5.811   2.291 -2.6612 -1.3173  1.3174
 6410TIP3   OH240644   0.739   3.782  10.670 -0.0776  0.1685 -0.8676
 6410TIP3    H140645   0.816   3.820  10.628  0.2271 -0.6143 -1.0350
 6410TIP3    H240646   0.667   3.804  10.611  0.1779  0.0126 -1.2383
 6411TIP3   OH240647   3.975   6.414  13.888  0.0092 -0.1599  0.3857
 6411TIP3    H140648   4.033   6.467  13.833 -0.3862  1.5689  1.5346
 6411TIP3    H240649   4.013   6.421  13.976 -0.5042 -1.1702  0.7064
 6412TIP3   OH240650   1.867   1.126   2.838 -0.0006  0.2345 -0.3349
 6412TIP3    H140651   1.899   1.044   2.801 -0.5718  0.4288 -1.3150
 6412TIP3    H240652   1.845   1.179   2.761 -0.8993  0.7906  0.2872
 6413TIP3   OH240653   5.545   0.506  13.839  0.0385 -0.9326  0.0344
 6413TIP3    H140654   5.463   0.554  13.841  0.0141 -0.9364  2.2439
 6413TIP3    H240655   5.585   0.528  13.755 -1.6183  0.0732 -0.5234
 6414TIP3   OH240656   5.515   5.914   2.705  0.2094  0.3050 -0.0738
 6414TIP3    H140657   5.550   5.930   2.792 -0.0036  0.3889 -0.0026
 6414TIP3    H240658   5.513   6.001   2.664 -1.3786  0.5684  0.4713
 6415TIP3   OH240659   0.329   3.156   1.662 -0.2378  0.2993 -0.9697
 6415TIP3    H140660   0.310   3.247   1.682 -0.6436 -0.0607  0.3673
 6415TIP3    H240661   0.424   3.149   1.671 -0.4056  0.1077  1.2428
 6416TIP3   OH240662   0.472   2.569  16.366 -0.0691  0.2020 -0.2385
 6416TIP3    H140663   0.491   2.476  16.380  0.4364  0.3162 -0.1383
 6416TIP3    H240664   0.384   2.581  16.403  0.2297 -0.0388  0.5922
 6417TIP3   OH240665   2.481   3.926   0.934  0.4251  0.0769  0.0054
 6417TIP3    H140666   2.487   4.021   0.941  0.0465  0.0115  1.3084
 6417TIP3    H240667   2.403   3.911   0.881  0.1791  0.4780  0.2531
 6418TIP3   OH240668   1.218   1.455  13.654 -0.7350  0.3722  0.0132
 6418TIP3    H140669   1.153   1.445  13.586 -1.7821  1.0890  0.8788
 6418TIP3    H240670   1.265   1.536  13.632 -0.2496 -0.0368 -0.4970
 6419TIP3   OH240671   1.871   4.208  13.712  0.1162 -0.3303 -0.4110
 6419TIP3    H140672   1.925   4.286  13.718 -0.3918  0.0264 -0.4396
 6419TIP3    H240673   1.782   4.238  13.731 -0.0074 -0.9922  0.0892
 6420TIP3   OH240674   2.572   1.543  16.726 -0.1001  0.0026  0.0312
 6420TIP3    H140675   2.511   1.535  16.799  1.0819  0.5284  1.1222
 6420TIP3    H240676   2.540   1.617  16.675  0.5676  1.4016  1.5734
 6421TIP3   OH240677   2.355   5.124  15.286 -0.1290 -0.0370 -0.0651
 6421TIP3    H140678   2.402   5.207  15.294  2.7332 -1.5583 -0.0164
 6421TIP3    H240679   2.411   5.069  15.232 -3.1356 -1.2207 -2.3038
 6422TIP3   OH240680   1.664   0.686  12.446 -0.3543  0.2560  0.1509
 6422TIP3    H140681   1.681   0.619  12.379  0.5690 -1.5154  2.0347
 6422TIP3    H240682   1.582   0.728  12.418 -0.0538 -0.4643 -2.0019
 6423TIP3   OH240683   0.473   3.639   2.749 -0.2009  0.1157  0.0746
 6423TIP3    H140684   0.468   3.547   2.725 -2.9590 -0.1704  1.2789
 6423TIP3    H240685   0.566   3.656   2.763  0.3960 -2.3929 -0.4267
 6424TIP3   OH240686   4.810   0.831  14.454  0.1165  0.4021  0.0795
 6424TIP3    H140687   4.811   0.922  14.425  0.4945  0.7850  1.2081
 6424TIP3    H240688   4.718   0.812  14.470  0.1899  1.2587  1.7425
 6425TIP3   OH240689   5.991   4.195   1.272 -0.2140 -0.5295 -0.2232
 6425TIP3    H140690   5.953   4.223   1.189  0.0847  0.6239  0.0139
 6425TIP3    H240691   5.955   4.107   1.286 -2.3100  0.2457 -0.3272
 6426TIP3   OH240692   1.823   4.487   4.408  0.4367  0.3025  0.1264
 6426TIP3    H140693   1.744   4.437   4.385  0.7682  0.0779 -0.5426
 6426TIP3    H240694   1.801   4.529   4.492 -0.3517  0.1525  0.0047
 6427TIP3   OH240695   2.286   0.725   3.362  0.3449  0.2272  0.4076
 6427TIP3    H140696   2.322   0.814   3.370  1.6405 -0.3880  1.9008
 6427TIP3    H240697   2.356   0.675   3.321 -0.1230 -0.2649  0.2011
 6428TIP3   OH240698   6.742   5.540  12.767 -0.2843 -0.4301  0.0920
 6428TIP3    H140699   6.778   5.454  12.792 -1.7794 -0.7599  1.2120
 6428TIP3    H240700   6.717   5.529  12.675 -0.3041 -1.1298  0.1773
 6429TIP3   OH240701   4.213   1.323  15.960 -0.5731  0.0390  0.0024
 6429TIP3    H140702   4.285   1.328  15.898 -0.9481 -0.4668 -0.4937
 6429TIP3    H240703   4.185   1.413  15.974  1.9689  0.5913  2.4180
 6430TIP3   OH240704   2.636   1.802  15.521  0.1148 -0.4034 -0.8486
 6430TIP3    H140705   2.655   1.715  15.486  2.5260 -0.3025 -0.0076
 6430TIP3    H240706   2.600   1.786  15.609  1.3717 -0.5899 -0.3432
 6431TIP3   OH240707   1.288   2.670  12.058  0.4428 -0.5340  0.1003
 6431TIP3    H140708   1.380   2.699  12.061  0.4604 -0.6016  0.2299
 6431TIP3    H240709   1.293   2.575  12.047  0.4027 -0.6423  0.8929
 6432TIP3   OH240710   0.596   0.664  12.123 -0.0330 -0.4263 -0.2725
 6432TIP3    H140711   0.667   0.599  12.120  1.8018  1.5113 -1.8167
 6432TIP3    H240712   0.604   0.713  12.041 -1.0383  2.0606  0.9990
 6433TIP3   OH240713   5.111   0.109  11.490 -0.1404 -0.2451 -0.4505
 6433TIP3    H140714   5.090   0.018  11.472 -1.4303  0.1237 -0.9420
 6433TIP3    H240715   5.165   0.107  11.569  2.6594 -1.6740 -2.2401
 6434TIP3   OH240716   2.969   3.430  12.061  0.0276  0.0545 -0.5135
 6434TIP3    H140717   2.955   3.377  11.982  1.1374 -0.4541 -0.4014
 6434TIP3    H240718   2.924   3.382  12.130 -1.9581  1.1138 -1.0113
 6435TIP3   OH240719   1.035   2.759   2.171  0.2157  0.0325 -0.0694
 6435TIP3    H140720   1.047   2.680   2.224  0.9239  1.7746  2.5833
 6435TIP3    H240721   1.097   2.750   2.099  0.7011 -1.5513  0.5017
 6436TIP3   OH240722   5.586   6.173   4.725  0.3488 -0.9048 -0.5701
 6436TIP3    H140723   5.511   6.229   4.744  0.1529 -2.1108  2.8860
 6436TIP3    H240724   5.661   6.221   4.762  0.8226 -1.1018 -1.2587
 6437TIP3   OH240725   4.997   3.133  14.371  0.0745 -0.0403 -0.4368
 6437TIP3    H140726   4.994   3.201  14.304  1.5647  0.1173 -0.3664
 6437TIP3    H240727   5.035   3.177  14.448  0.4551 -0.7862 -0.1939
 6438TIP3   OH240728   5.931   6.809  11.819  0.1033 -0.7598 -0.2444
 6438TIP3    H140729   5.922   6.809  11.724 -1.7640  1.9321 -0.1572
 6438TIP3    H240730   5.864   6.748  11.849 -1.1725  0.4385 -0.5883
 6439TIP3   OH240731   2.920   0.722  16.574 -0.0361 -0.4766  0.5279
 6439TIP3    H140732   2.959   0.651  16.626  2.6058  0.0421 -0.6377
 6439TIP3    H240733   2.857   0.677  16.517  0.2390 -1.6379  1.0980
 6440TIP3   OH240734   1.485   1.853  13.159  0.3917 -0.2468 -0.0103
 6440TIP3    H140735   1.446   1.923  13.212 -0.2347 -0.5854 -0.0166
 6440TIP3    H240736   1.488   1.777  13.217  2.8211  0.2426  0.6243
 6441TIP3   OH240737   5.767   6.645  13.417  0.2849 -0.1246 -0.0685
 6441TIP3    H140738   5.784   6.652  13.323 -0.4605 -0.2717 -0.2198
 6441TIP3    H240739   5.847   6.678  13.458  0.6435 -0.1207 -0.7521
 6442TIP3   OH240740   6.063   4.978   2.886 -0.0561 -0.5127 -0.3975
 6442TIP3    H140741   6.158   4.990   2.888  0.0781 -1.3915 -0.8857
 6442TIP3    H240742   6.037   5.003   2.797 -0.2384 -0.5908 -0.3677
 6443TIP3   OH240743   1.841   6.121  11.300 -0.1211 -0.6726 -0.0593
 6443TIP3    H140744   1.751   6.088  11.297 -0.9342  1.4803 -1.9152
 6443TIP3    H240745   1.840   6.183  11.373 -0.5397  0.3087 -0.8794
 6444TIP3   OH240746   1.934   1.572   1.357 -0.3169 -0.2796  0.0392
 6444TIP3    H140747   2.028   1.588   1.365 -0.0439 -1.8946  0.3913
 6444TIP3    H240748   1.922   1.484   1.394 -2.1722  0.4687  1.3491
 6445TIP3   OH240749   6.244   1.076  15.792  0.0232 -0.5108  0.1298
 6445TIP3    H140750   6.156   1.105  15.767  0.3194 -0.9281 -1.5046
 6445TIP3    H240751   6.263   1.004  15.731  2.4994  1.2065 -1.2764
 6446TIP3   OH240752   3.838   1.743   0.381 -0.1160  0.1181  0.6452
 6446TIP3    H140753   3.888   1.667   0.351  1.0018  1.4888 -1.1976
 6446TIP3    H240754   3.879   1.767   0.464  0.9643 -0.0381  0.1856
 6447TIP3   OH240755   3.784   4.591   4.823 -0.4138  0.2950 -0.3343
 6447TIP3    H140756   3.850   4.636   4.874 -1.2489  0.2804  0.8012
 6447TIP3    H240757   3.784   4.501   4.857 -1.5211  0.4855  0.2106
 6448TIP3   OH240758   1.698   0.251   5.955  0.2059 -0.3857  0.3062
 6448TIP3    H140759   1.662   0.275   6.041 -1.4169  1.1002 -0.7306
 6448TIP3    H240760   1.708   0.335   5.909 -0.1377 -1.2461 -1.4001
 6449TIP3   OH240761   0.161   6.459   5.851  0.0185  0.1232  0.0820
 6449TIP3    H140762   0.066   6.464   5.840  0.1045  2.6131 -0.0388
 6449TIP3    H240763   0.186   6.377   5.808 -2.5794 -3.4881  4.5185
 6450TIP3   OH240764   5.140   2.579  14.746  0.5455  0.0008  0.1721
 6450TIP3    H140765   5.079   2.505  14.751  1.3289 -0.6960 -0.3212
 6450TIP3    H240766   5.193   2.560  14.669  0.9023  0.9783  0.1718
 6451TIP3   OH240767   4.749   3.669   3.201  0.4289  0.2208  0.4818
 6451TIP3    H140768   4.842   3.648   3.215  0.0517 -1.5761  0.5555
 6451TIP3    H240769   4.719   3.702   3.285  0.2337 -2.4247  1.5419
 6452TIP3   OH240770   6.506   6.799  12.211  0.2984 -0.2469  0.1114
 6452TIP3    H140771   6.476   6.852  12.285  0.8390 -0.2079  0.3069
 6452TIP3    H240772   6.443   6.817  12.142 -1.0433 -1.3528  0.9772
 6453TIP3   OH240773   2.580   4.291   2.180 -0.1770 -0.5247  0.2808
 6453TIP3    H140774   2.553   4.244   2.259 -0.8753 -2.2848 -0.9371
 6453TIP3    H240775   2.510   4.274   2.117  0.5907  0.4297 -0.8745
 6454TIP3   OH240776   0.710   4.680  13.783 -0.4477  0.3661  0.2109
 6454TIP3    H140777   0.697   4.711  13.693 -2.1024 -0.1347  0.2416
 6454TIP3    H240778   0.666   4.596  13.785 -1.5356  0.9333  1.8175
 6455TIP3   OH240779   1.492   3.992   3.643  1.1662 -0.6769 -0.0092
 6455TIP3    H140780   1.485   3.970   3.550  0.0083 -0.3669 -0.0031
 6455TIP3    H240781   1.517   4.084   3.644  1.1265 -0.6663 -0.0088
 6456TIP3   OH240782   5.173   0.207  14.370  0.1229 -0.2278  0.4612
 6456TIP3    H140783   5.137   0.270  14.432  0.0050 -1.4964  1.7394
 6456TIP3    H240784   5.097   0.170  14.326  0.1708  0.2376 -0.0277
 6457TIP3   OH240785   0.565   2.873  15.909 -0.7640 -0.5954  0.2612
 6457TIP3    H140786   0.560   2.876  15.813  3.3146  1.0471 -0.0890
 6457TIP3    H240787   0.610   2.790  15.927 -1.7102 -1.0017  0.8234
 6458TIP3   OH240788   0.360   4.780  11.807 -0.1797 -0.0440  0.1464
 6458TIP3    H140789   0.338   4.780  11.900  0.3708 -1.2822  0.2852
 6458TIP3    H240790   0.424   4.851  11.798 -0.1512  0.0085  0.7207
 6459TIP3   OH240791   5.083   0.434   2.376 -0.2689 -0.3071 -0.3304
 6459TIP3    H140792   5.172   0.469   2.366 -0.2785  0.3553  1.5191
 6459TIP3    H240793   5.085   0.386   2.459 -1.4785 -0.7987 -0.5632
 6460TIP3   OH240794   2.918   0.668   1.821  0.1007  0.4059  0.3967
 6460TIP3    H140795   3.003   0.691   1.783  0.0993  1.9117  1.2329
 6460TIP3    H240796   2.937   0.594   1.879  0.3930 -0.8129 -1.1880
 6461TIP3   OH240797   1.597   4.324  10.900  0.1069  0.2953  0.5825
 6461TIP3    H140798   1.636   4.237  10.890 -0.0886  0.3544 -0.9873
 6461TIP3    H240799   1.641   4.378  10.834 -0.8399  0.9999  0.5049
 6462TIP3   OH240800   5.756   6.217   6.426  0.4193  0.4236  0.8975
 6462TIP3    H140801   5.845   6.231   6.394  0.8274 -2.1510  0.6863
 6462TIP3    H240802   5.733   6.299   6.469  2.3610  1.6464 -0.2371
 6463TIP3   OH240803   6.202   6.590   5.404  0.2894 -0.3609 -0.6120
 6463TIP3    H140804   6.260   6.652   5.360 -2.0495  1.2956 -1.5677
 6463TIP3    H240805   6.165   6.641   5.477 -1.9675 -0.4348 -1.6401
 6464TIP3   OH240806   4.240   2.320  16.945 -0.3721  0.1385 -0.0644
 6464TIP3    H140807   4.213   2.281  16.862 -0.8048  0.1794  0.0539
 6464TIP3    H240808   4.220   2.413  16.935 -4.0835 -0.3222  1.4544
 6465TIP3   OH240809   3.123   2.027   1.619 -0.3474 -0.0397  0.2710
 6465TIP3    H140810   3.112   2.122   1.611  1.3533  0.0865 -1.5536
 6465TIP3    H240811   3.117   2.009   1.713 -0.5450  1.8878  0.6622
 6466TIP3   OH240812   1.900   1.734  11.335 -0.3036  0.0808 -0.7143
 6466TIP3    H140813   1.896   1.638  11.330  1.5415  0.0096 -1.9474
 6466TIP3    H240814   1.993   1.754  11.327 -0.6605  1.9929 -0.4992
 6467TIP3   OH240815   5.486   2.994   5.782 -0.3258 -0.7115 -0.0115
 6467TIP3    H140816   5.456   3.042   5.859  0.1792 -1.0004  0.3695
 6467TIP3    H240817   5.457   2.904   5.796 -1.2557 -0.5433 -0.7178
 6468TIP3   OH240818   2.140   0.579   6.498 -0.9166  0.3970  0.0771
 6468TIP3    H140819   2.109   0.558   6.586 -2.7963  1.9572 -0.1493
 6468TIP3    H240820   2.218   0.633   6.512 -0.7945  0.0646  0.7460
 6469TIP3   OH240821   1.168   0.829   3.543  0.2643  0.2982  0.0030
 6469TIP3    H140822   1.189   0.921   3.528 -1.4870  0.9716  1.2831
 6469TIP3    H240823   1.103   0.831   3.614 -1.2026 -1.7865 -1.1749
 6470TIP3   OH240824   4.715   3.651   2.485  0.8776 -0.3597 -0.5729
 6470TIP3    H140825   4.728   3.703   2.564 -1.4926 -0.5487  0.0263
 6470TIP3    H240826   4.711   3.560   2.516  0.7832 -0.5100 -1.0155
 6471TIP3   OH240827   0.682   6.464   0.407 -0.1239 -0.1976 -0.9110
 6471TIP3    H140828   0.639   6.383   0.381  1.0393 -0.4786 -2.0886
 6471TIP3    H240829   0.775   6.449   0.389  0.4357  0.5334  1.1412
 6472TIP3   OH240830   3.996   2.164   6.503  0.0043  0.7093  0.3570
 6472TIP3    H140831   3.918   2.109   6.511  0.2670  0.4785  1.5034
 6472TIP3    H240832   3.963   2.254   6.506 -0.2327  0.6126  0.6931
 6473TIP3   OH240833   3.564   3.685   6.142 -0.6536 -0.4787  0.1879
 6473TIP3    H140834   3.473   3.664   6.163 -0.8380  1.2058  1.3260
 6473TIP3    H240835   3.569   3.780   6.154  1.5367 -0.6809  1.3037
 6474TIP3   OH240836   4.023   6.243  11.783  0.0675 -0.5316  0.4452
 6474TIP3    H140837   4.074   6.163  11.795 -1.4869 -1.4421  1.4711
 6474TIP3    H240838   4.071   6.310  11.831  1.0374 -1.0128  0.1677
 6475TIP3   OH240839   0.645   0.311   2.229  0.0622 -0.2454 -0.2748
 6475TIP3    H140840   0.687   0.312   2.315 -1.9501  0.0616  0.7473
 6475TIP3    H240841   0.625   0.403   2.211  1.6196 -0.1241 -1.7302
 6476TIP3   OH240842   3.347   5.424   1.174  0.2306  0.1217  0.1250
 6476TIP3    H140843   3.266   5.467   1.144 -1.0130 -1.5626  0.9394
 6476TIP3    H240844   3.333   5.331   1.157  1.6367 -0.3050  1.1377
 6477TIP3   OH240845   0.407   0.348   1.822 -0.0852 -0.0345  0.1236
 6477TIP3    H140846   0.325   0.377   1.862  0.5906  0.9478  0.8479
 6477TIP3    H240847   0.417   0.257   1.852 -0.1812  0.3123  1.2638
 6478TIP3   OH240848   6.325   5.795   1.489 -0.7718  0.1548  1.0423
 6478TIP3    H140849   6.355   5.793   1.580 -1.0452  1.4412  1.1794
 6478TIP3    H240850   6.248   5.738   1.488 -1.3416  0.8820  1.8474
 6479TIP3   OH240851   5.820   4.099  14.225  0.5906  0.0423 -0.1518
 6479TIP3    H140852   5.850   4.182  14.261  2.0824  0.1252 -1.4921
 6479TIP3    H240853   5.769   4.123  14.148  0.4595 -0.2764 -0.1702
 6480TIP3   OH240854   0.704   4.531   0.908  0.8412 -0.3132 -0.0445
 6480TIP3    H140855   0.611   4.553   0.921  0.6723 -1.4143  0.6993
 6480TIP3    H240856   0.751   4.611   0.933  0.1557 -0.1085  0.6377
 6481TIP3   OH240857   1.720   0.922   1.508  0.0999  0.0408 -0.6631
 6481TIP3    H140858   1.729   0.857   1.578 -1.1203 -0.7936 -1.2367
 6481TIP3    H240859   1.723   0.871   1.427 -3.6618  0.2088 -1.0864
 6482TIP3   OH240860   2.226   4.791  10.272 -0.0743  0.0783 -0.2608
 6482TIP3    H140861   2.299   4.736  10.245 -0.2499  0.2358 -1.1010
 6482TIP3    H240862   2.203   4.840  10.193 -0.0261  1.2391  0.4209
 6483TIP3   OH240863   6.227   0.507  12.153  0.0175 -0.3246  0.1472
 6483TIP3    H140864   6.159   0.519  12.220  0.2142  1.4738  0.0948
 6483TIP3    H240865   6.309   0.504  12.203  0.1181  0.4874  0.0557
 6484TIP3   OH240866   1.264   1.270  12.167  0.4170 -0.0769 -0.3904
 6484TIP3    H140867   1.297   1.340  12.111 -0.4181  0.4301 -0.2553
 6484TIP3    H240868   1.341   1.244  12.219  0.4267  1.7262  0.5810
 6485TIP3   OH240869   1.211   0.371   2.918  0.0222 -0.7330 -0.8361
 6485TIP3    H140870   1.288   0.342   2.868  1.0141  1.6661 -0.8075
 6485TIP3    H240871   1.227   0.337   3.006  0.1318 -1.7597 -1.2273
 6486TIP3   OH240872   3.695   6.293   2.955 -0.5109  0.2535  0.2285
 6486TIP3    H140873   3.630   6.289   2.885  0.8636 -0.8933 -1.0440
 6486TIP3    H240874   3.722   6.385   2.956 -0.7777  0.3536 -0.5578
 6487TIP3   OH240875   1.536   3.466   1.118  0.0021  0.3480 -0.4356
 6487TIP3    H140876   1.535   3.560   1.106 -0.1076  0.3125 -0.7013
 6487TIP3    H240877   1.570   3.431   1.035  1.2434  0.2304  0.0989
 6488TIP3   OH240878   0.347   3.388  12.420  0.1542 -0.1574  0.2351
 6488TIP3    H140879   0.387   3.473  12.405  0.7013 -0.6827 -1.5208
 6488TIP3    H240880   0.272   3.406  12.477  0.4596  1.4357  0.1630
 6489TIP3   OH240881   1.470   4.480  11.545 -0.2711  0.1517 -0.1516
 6489TIP3    H140882   1.515   4.557  11.579  0.1945  1.3860 -3.2377
 6489TIP3    H240883   1.447   4.429  11.623  2.0060  1.9327  1.8275
 6490TIP3   OH240884   5.339   4.785   2.615  0.4110 -0.6502  0.9478
 6490TIP3    H140885   5.355   4.712   2.674  2.0546 -1.1505 -0.0591
 6490TIP3    H240886   5.355   4.749   2.527 -1.3436  0.2281  0.2159
 6491TIP3   OH240887   0.512   3.393   5.468 -0.1506  0.4874  0.2584
 6491TIP3    H140888   0.582   3.431   5.520  0.1478 -0.7102  0.7563
 6491TIP3    H240889   0.537   3.301   5.457 -0.8407  0.4216 -0.9279
 6492TIP3   OH240890   6.635   0.263   3.623  0.0942  0.3397  0.0509
 6492TIP3    H140891   6.600   0.197   3.683  0.3040  0.4148  0.2562
 6492TIP3    H240892   6.625   0.345   3.670  0.8445  0.3264  0.2411
 6493TIP3   OH240893   4.451   3.901   3.330 -0.6706  0.2796  0.3905
 6493TIP3    H140894   4.523   3.939   3.280 -1.7867  2.2621  0.1693
 6493TIP3    H240895   4.488   3.885   3.417  0.7338 -1.3010 -0.4499
 6494TIP3   OH240896   2.538   3.988   1.940  0.5505 -0.5521  0.4373
 6494TIP3    H140897   2.610   4.050   1.929  0.1968 -0.3912 -1.0724
 6494TIP3    H240898   2.558   3.917   1.879 -1.2920  0.1758 -1.1005
 6495TIP3   OH240899   1.981   4.346  13.330 -0.4764  0.6129  0.5530
 6495TIP3    H140900   2.006   4.365  13.420  2.1509  0.5238 -0.0713
 6495TIP3    H240901   1.905   4.401  13.313 -0.2348  1.5843  2.4357
 6496TIP3   OH240902   1.511   5.226   0.113 -0.6093  0.4515  0.5029
 6496TIP3    H140903   1.433   5.193   0.069  0.3875 -0.4997 -0.6361
 6496TIP3    H240904   1.495   5.319   0.126 -1.7089  0.3646 -0.1875
 6497TIP3   OH240905   4.253   5.021   0.795  0.4755 -0.8453 -0.0422
 6497TIP3    H140906   4.275   5.026   0.888 -1.1206 -2.2165  0.4642
 6497TIP3    H240907   4.160   5.041   0.792  0.2435 -1.9990 -1.1888
 6498TIP3   OH240908   6.384   4.802  13.087  0.7792 -0.1162  0.0132
 6498TIP3    H140909   6.290   4.793  13.100  0.7743 -0.2900 -0.1467
 6498TIP3    H240910   6.423   4.734  13.143  0.8222  0.1034  0.2564
 6499TIP3   OH240911   6.729   3.809   2.892  0.1186  0.3219 -0.1533
 6499TIP3    H140912   6.752   3.793   2.801  0.7694  0.0064  0.0566
 6499TIP3    H240913   6.753   3.901   2.907 -0.7763  0.6237 -0.5244
 6500TIP3   OH240914   2.240   2.216  11.601  0.3568  0.0942  0.0021
 6500TIP3    H140915   2.182   2.147  11.571 -1.4364  1.1899  0.7674
 6500TIP3    H240916   2.230   2.217  11.696  1.3945  0.5249  0.1267
 6501TIP3   OH240917   2.679   2.644   1.980 -0.1473  0.0571  0.8176
 6501TIP3    H140918   2.639   2.557   1.985  1.0627 -0.5886 -0.2250
 6501TIP3    H240919   2.671   2.679   2.069  0.0090 -1.4244  1.4452
 6502TIP3   OH240920   2.098   5.370  15.343 -0.5830  0.0908 -0.1663
 6502TIP3    H140921   2.085   5.407  15.256 -1.6273 -0.9361 -0.4810
 6502TIP3    H240922   2.040   5.294  15.345  1.1497 -1.2839  0.5991
 6503TIP3   OH240923   0.493   2.703   3.249  0.0004 -0.1029  0.7135
 6503TIP3    H140924   0.448   2.651   3.182 -0.3588 -0.0098  0.8806
 6503TIP3    H240925   0.500   2.790   3.209 -1.6515  0.3836  1.4093
 6504TIP3   OH240926   2.597   5.312  14.493  0.0043 -0.0429 -0.1352
 6504TIP3    H140927   2.517   5.333  14.541  0.3745  0.1273  0.4171
 6504TIP3    H240928   2.598   5.375  14.421  0.2016  0.7005  0.4975
 6505TIP3   OH240929   0.611   3.912  13.345 -0.0075  0.2827 -0.4744
 6505TIP3    H140930   0.698   3.872  13.344  0.0252  0.1025  2.5101
 6505TIP3    H240931   0.628   4.006  13.338  0.8529  0.5986  3.6171
 6506TIP3   OH240932   1.828   1.663   6.257  0.3422  0.1516  0.2113
 6506TIP3    H140933   1.856   1.641   6.346 -0.7823  0.6424  0.6989
 6506TIP3    H240934   1.843   1.583   6.207  1.1431 -0.0817  0.7944
 6507TIP3   OH240935   4.560   0.005   5.388  0.2262  0.3062 -0.2271
 6507TIP3    H140936   4.566  -0.089   5.404  0.0892  0.2705 -0.3796
 6507TIP3    H240937   4.615   0.045   5.455  0.1290  0.1274 -0.0417
 6508TIP3   OH240938   0.221   4.656   5.185  0.0771  0.3492  0.3352
 6508TIP3    H140939   0.257   4.731   5.233 -0.7969 -0.3039  2.0770
 6508TIP3    H240940   0.298   4.604   5.160  0.5263  0.5119  1.3653
 6509TIP3   OH240941   1.496   5.211  15.712  0.0241 -0.3717 -0.4486
 6509TIP3    H140942   1.573   5.252  15.751 -0.3845  0.1364 -0.1552
 6509TIP3    H240943   1.531   5.150  15.647  0.7087 -1.1486  0.6337
 6510TIP3   OH240944   3.329   0.114   3.781  0.5927 -0.2078 -0.0336
 6510TIP3    H140945   3.358   0.085   3.868 -0.4445 -0.7301  0.1537
 6510TIP3    H240946   3.342   0.209   3.782  1.0067 -0.2609  0.5260
 6511TIP3   OH240947   4.392   0.647  12.900 -0.3061  0.3386  0.1548
 6511TIP3    H140948   4.351   0.616  12.819  0.7109 -1.2496  0.2108
 6511TIP3    H240949   4.486   0.647  12.882  0.3227 -3.5156  2.3166
 6512TIP3   OH240950   6.360   6.346  16.960 -0.1170  0.2319 -0.5848
 6512TIP3    H140951   6.446   6.384  16.980 -0.7152  1.3269  0.0463
 6512TIP3    H240952   6.338   6.295  17.038 -1.3189  2.4064  0.5994
 6513TIP3   OH240953   5.611   1.215  12.122  0.5320 -0.3948  0.2197
 6513TIP3    H140954   5.664   1.286  12.158  1.3797 -0.4473 -0.8762
 6513TIP3    H240955   5.630   1.215  12.028  0.3706 -1.9206  0.1528
 6514TIP3   OH240956   3.712   1.288  14.515 -0.2447 -0.1344  0.2206
 6514TIP3    H140957   3.727   1.380  14.535  1.5419 -0.2115 -0.5744
 6514TIP3    H240958   3.685   1.249  14.598 -3.4112  1.4961  0.1165
 6515TIP3   OH240959   1.986   2.380  16.164  0.0763  0.0838 -0.0869
 6515TIP3    H140960   2.024   2.373  16.252 -0.7411 -1.1360  0.1957
 6515TIP3    H240961   2.061   2.379  16.105  0.5668 -0.7829  0.5308
 6516TIP3   OH240962   1.972   6.524   5.840  0.1307  0.3431 -0.1505
 6516TIP3    H140963   2.068   6.517   5.846 -0.0356 -0.8188  3.7126
 6516TIP3    H240964   1.948   6.586   5.908 -1.9655 -0.5045 -0.0563
 6517TIP3   OH240965   2.742   3.965  15.867 -0.9560  0.0445 -0.3852
 6517TIP3    H140966   2.672   3.906  15.842 -1.1178  0.5787 -1.2109
 6517TIP3    H240967   2.738   3.967  15.963  0.8707 -3.4809 -0.0492
 6518TIP3   OH240968   5.499   0.085   5.328 -0.0901 -0.2156  0.0354
 6518TIP3    H140969   5.532   0.049   5.410 -2.3428 -0.0171  1.1216
 6518TIP3    H240970   5.412   0.120   5.351 -0.6483  0.1420 -2.3624
 6519TIP3   OH240971   2.838   5.055   6.502 -0.4696 -0.7993 -0.2583
 6519TIP3    H140972   2.884   5.060   6.418  1.4342  1.9383  0.7735
 6519TIP3    H240973   2.745   5.067   6.480  0.0208  0.1434 -1.9652
 6520TIP3   OH240974   5.186   4.468   3.538  0.5435 -0.4761 -0.7474
 6520TIP3    H140975   5.103   4.421   3.548 -0.1631  0.8965  0.1008
 6520TIP3    H240976   5.204   4.505   3.624  1.5102  0.1060 -1.1794
 6521TIP3   OH240977   2.185   5.113  14.199 -0.2920  0.2665 -0.5571
 6521TIP3    H140978   2.148   5.087  14.284 -2.1196  0.0337 -1.3856
 6521TIP3    H240979   2.119   5.171  14.161  1.2565  1.7248 -1.1375
 6522TIP3   OH240980   4.507   2.056  11.605  0.2893  0.1215 -0.2021
 6522TIP3    H140981   4.510   1.966  11.573  0.1273  0.1080 -0.1781
 6522TIP3    H240982   4.443   2.099  11.550 -0.5082 -0.0806  0.5451
 6523TIP3   OH240983   0.791   6.421  13.841  0.0607 -0.0949  0.2132
 6523TIP3    H140984   0.699   6.395  13.835  0.0082 -0.9549  3.2502
 6523TIP3    H240985   0.788   6.514  13.864  0.1052  0.7184 -2.6861
 6524TIP3   OH240986   1.056   4.145   5.998  0.8257 -0.6455  0.6245
 6524TIP3    H140987   0.986   4.102   5.949  1.4297  0.5139 -1.3682
 6524TIP3    H240988   1.110   4.072   6.030 -0.3527 -1.4820  0.7741
 6525TIP3   OH240989   2.810   1.166   2.136  0.2067  0.4374 -0.4484
 6525TIP3    H140990   2.748   1.093   2.126 -0.6928  1.3808 -2.2717
 6525TIP3    H240991   2.896   1.127   2.117  0.2104 -0.8082  1.7701
 6526TIP3   OH240992   5.080   4.177   1.640 -0.5200  0.5601 -0.1081
 6526TIP3    H140993   4.989   4.159   1.664 -0.9574  2.2073 -0.4214
 6526TIP3    H240994   5.094   4.126   1.560 -1.5266  1.1338 -0.6681
 6527TIP3   OH240995   1.847   3.739  16.517  0.2243 -0.1719  0.2302
 6527TIP3    H140996   1.934   3.731  16.478 -1.1038 -1.6943 -2.6916
 6527TIP3    H240997   1.844   3.669  16.582  0.9748 -0.5044 -0.0734
 6528TIP3   OH240998   1.911   5.034   4.400 -0.0259 -0.0746  0.4457
 6528TIP3    H140999   1.870   5.057   4.317 -1.2421 -0.9864  0.7668
 6528TIP3    H241000   1.841   4.995   4.452  0.5094  1.1552  2.2027
 6529TIP3   OH241001   0.138   2.140  15.417 -0.0239 -0.7638 -0.1593
 6529TIP3    H141002   0.101   2.054  15.398  1.5086 -1.7399  1.0474
 6529TIP3    H241003   0.228   2.123  15.443  1.1061  1.4501 -2.1680
 6530TIP3   OH241004   1.128   3.390   0.390 -0.1141 -0.1544  0.1985
 6530TIP3    H141005   1.160   3.320   0.333 -1.9325 -1.4089  0.6130
 6530TIP3    H241006   1.121   3.350   0.477  0.3620  1.0306  0.8099
 6531TIP3   OH241007   0.122   6.363   6.312 -0.3613  0.0348  0.0358
 6531TIP3    H141008   0.097   6.433   6.372 -0.2679  0.1223 -0.0276
 6531TIP3    H241009   0.192   6.316   6.358 -1.2838 -0.8127  0.6435
 6532TIP3   OH241010   4.482   6.796  16.238  0.3607 -0.0644 -0.1241
 6532TIP3    H141011   4.397   6.794  16.283  0.3466  0.3349 -0.1231
 6532TIP3    H241012   4.541   6.748  16.295  0.8627  2.2223  1.4444
 6533TIP3   OH241013   0.336   3.703  11.212  0.0316 -0.4790 -1.0078
 6533TIP3    H141014   0.388   3.754  11.273 -1.3198 -0.0955 -0.1506
 6533TIP3    H241015   0.379   3.716  11.127  1.0917  0.1244 -0.3952
 6534TIP3   OH241016   2.160   6.073   1.270 -0.2027  0.5598  0.3401
 6534TIP3    H141017   2.247   6.106   1.246  0.0951  0.3280  1.0704
 6534TIP3    H241018   2.146   6.105   1.359  0.2112 -1.4720  1.1751
 6535TIP3   OH241019   2.795   1.576  15.841 -0.1231 -0.2877  0.4543
 6535TIP3    H141020   2.705   1.601  15.822  0.1714 -0.0292 -0.6466
 6535TIP3    H241021   2.811   1.499  15.786  0.9705  0.9061 -0.9915
 6536TIP3   OH241022   5.217   1.446   1.723  0.0965 -0.5123 -0.0102
 6536TIP3    H141023   5.211   1.389   1.800  0.1853  0.0881  0.4504
 6536TIP3    H241024   5.127   1.453   1.692  0.0699 -0.8131 -0.0079
 6537TIP3   OH241025   6.739   6.417  13.970  0.0773 -0.1151 -0.4508
 6537TIP3    H141026   6.813   6.474  13.993 -0.3283 -0.1839  1.0769
 6537TIP3    H241027   6.666   6.477  13.957  0.0826 -0.1545 -0.6737
 6538TIP3   OH241028   6.324   1.526   0.216 -0.7889  0.0432 -0.8571
 6538TIP3    H141029   6.342   1.580   0.293  1.3481  1.4431 -2.2302
 6538TIP3    H241030   6.251   1.571   0.173 -0.7175  0.3643 -0.6531
 6539TIP3   OH241031   0.951   0.947   6.653 -0.2924  0.4341 -0.1537
 6539TIP3    H141032   1.031   0.956   6.602 -0.6940  0.4682 -0.7927
 6539TIP3    H241033   0.951   1.022   6.713 -0.1090  0.7272 -0.5192
 6540TIP3   OH241034   1.018   2.815   1.281  0.4488  0.2283 -0.4489
 6540TIP3    H141035   1.103   2.773   1.296 -0.4209 -0.9732  1.5354
 6540TIP3    H241036   0.962   2.746   1.248 -0.8168 -0.1505  2.1966
 6541TIP3   OH241037   0.542   2.859   5.350 -0.4238  0.1978 -0.3461
 6541TIP3    H141038   0.513   2.822   5.266 -0.6125  0.9385 -0.6097
 6541TIP3    H241039   0.470   2.915   5.378  0.1089  0.8481 -0.2552
 6542TIP3   OH241040   1.930   4.798  15.544  0.7024  0.7928 -0.3158
 6542TIP3    H141041   1.966   4.852  15.474 -1.8134  1.8469 -0.9156
 6542TIP3    H241042   1.917   4.712  15.503 -0.1333  1.2186 -0.9716
 6543TIP3   OH241043   2.568   5.845   0.917 -0.1872 -0.5361 -0.3025
 6543TIP3    H141044   2.621   5.783   0.967 -0.5673 -1.0733 -0.5497
 6543TIP3    H241045   2.488   5.855   0.968 -0.3932 -0.7476 -0.5820
 6544TIP3   OH241046   1.705   4.696   1.482 -0.6481  0.0207  0.6750
 6544TIP3    H141047   1.776   4.753   1.453 -1.1402  0.2212 -0.1514
 6544TIP3    H241048   1.680   4.730   1.568 -1.0728  1.1672  0.0994
 6545TIP3   OH241049   5.682   2.773   3.210  0.1344  0.3222 -0.1989
 6545TIP3    H141050   5.662   2.720   3.133  0.2991  0.2729 -0.2091
 6545TIP3    H241051   5.645   2.724   3.284 -0.3505  0.5540 -0.2853
 6546TIP3   OH241052   1.437   5.534   0.758  0.2067  0.1326  0.1494
 6546TIP3    H141053   1.360   5.484   0.730 -0.3978  1.5637 -0.9167
 6546TIP3    H241054   1.459   5.588   0.682  1.2729  0.9357  0.9909
 6547TIP3   OH241055   3.483   4.012  15.851  0.5110  0.2832  0.2079
 6547TIP3    H141056   3.432   3.946  15.898 -0.4307  0.3718 -0.6724
 6547TIP3    H241057   3.436   4.027  15.769  0.8134  1.8914  0.2802
 6548TIP3   OH241058   2.619   3.334  12.800 -0.2884 -0.1996 -0.3722
 6548TIP3    H141059   2.606   3.414  12.851 -0.4882  0.2102 -1.0485
 6548TIP3    H241060   2.578   3.265  12.853  0.9368 -0.0697  0.7825
 6549TIP3   OH241061   5.167   4.767   4.642 -0.1727 -0.1716 -0.3238
 6549TIP3    H141062   5.226   4.733   4.575 -0.7007 -0.4142 -0.6697
 6549TIP3    H241063   5.080   4.740   4.614 -0.7920  2.5805 -1.3260
 6550TIP3   OH241064   5.778   2.746   5.100  0.5252 -0.7142  0.0150
 6550TIP3    H141065   5.698   2.784   5.065  1.4941  1.0428 -0.4536
 6550TIP3    H241066   5.752   2.704   5.182 -0.5588  1.6978  1.0090
 6551TIP3   OH241067   2.918   2.830   3.571 -0.1912 -0.1916 -0.1486
 6551TIP3    H141068   2.936   2.848   3.479 -0.0032 -0.7008 -0.2140
 6551TIP3    H241069   2.996   2.782   3.602 -0.7406 -1.0159 -0.0217
 6552TIP3   OH241070   3.305   6.546   2.777 -0.4971 -0.3326 -0.0474
 6552TIP3    H141071   3.310   6.642   2.775 -2.9135 -0.1605 -0.6468
 6552TIP3    H241072   3.295   6.525   2.870 -1.0024  0.0983  0.0054
 6553TIP3   OH241073   2.261   0.555   3.049 -0.5681  0.0060 -0.0848
 6553TIP3    H141074   2.167   0.560   3.061 -0.6417  0.7580 -0.8620
 6553TIP3    H241075   2.295   0.525   3.133 -1.4117  0.7316  0.5312
 6554TIP3   OH241076   1.097   0.557   4.488  0.3374  0.4743  0.1695
 6554TIP3    H141077   1.110   0.632   4.430 -0.6677  1.9529  1.7589
 6554TIP3    H241078   1.063   0.488   4.430 -0.3307  1.7727 -1.0674
 6555TIP3   OH241079   1.095   5.852  11.990  0.3150 -0.0122  0.2527
 6555TIP3    H141080   1.064   5.781  11.934 -0.3048  0.6436 -0.2449
 6555TIP3    H241081   1.119   5.809  12.072 -0.2401 -0.7709  0.0237
 6556TIP3   OH241082   0.596   6.260  11.671  0.1918  0.6507  0.5359
 6556TIP3    H141083   0.608   6.312  11.751 -1.4169 -0.2694  1.4240
 6556TIP3    H241084   0.561   6.177  11.702  1.7886 -0.6479 -0.9358
 6557TIP3   OH241085   6.185   1.529   3.577  0.1159 -0.2083  0.0210
 6557TIP3    H141086   6.203   1.540   3.671  0.7473  0.2973 -0.1558
 6557TIP3    H241087   6.133   1.607   3.554 -2.9197 -1.8729  0.6421
 6558TIP3   OH241088   5.018   6.132  11.980  0.1629  0.1279 -0.0788
 6558TIP3    H141089   5.098   6.178  12.006 -0.4956  2.3886 -1.7333
 6558TIP3    H241090   4.954   6.157  12.047 -0.0812  1.3754 -0.7473
 6559TIP3   OH241091   3.490   3.907  10.919 -0.2458  0.1361 -0.3957
 6559TIP3    H141092   3.489   3.915  11.014  1.4673  0.3640 -0.3749
 6559TIP3    H241093   3.503   3.814  10.902 -0.4735  0.1064 -0.4160
 6560TIP3   OH241094   1.887   5.485  14.960 -0.0139  0.2203 -0.5436
 6560TIP3    H141095   1.980   5.472  14.941  0.1042  0.1856  0.0327
 6560TIP3    H241096   1.844   5.483  14.874  0.8894  3.5623 -1.2325
 6561TIP3   OH241097   1.939   1.186  12.582  0.8135  0.3275  0.0354
 6561TIP3    H141098   1.860   1.148  12.620  0.6857  1.4421  0.9205
 6561TIP3    H241099   1.931   1.280  12.598  2.2071  0.4907 -0.0794
 6562TIP3   OH241100   0.337   1.663  11.998 -0.3640 -0.0694 -0.1899
 6562TIP3    H141101   0.354   1.756  11.983 -0.7640 -0.2333 -1.8449
 6562TIP3    H241102   0.423   1.622  11.995 -0.2104  0.2080  0.3071
 6563TIP3   OH241103   5.836   5.009  14.676  0.0898  0.0091 -0.0259
 6563TIP3    H141104   5.920   4.988  14.717 -0.2540  0.3311  0.8608
 6563TIP3    H241105   5.859   5.031  14.585  0.7254 -1.8627 -0.3611
 6564TIP3   OH241106   2.930   0.458  14.675  0.7892 -0.5850 -0.8321
 6564TIP3    H141107   2.976   0.463  14.758  0.2470 -1.3450 -0.4751
 6564TIP3    H241108   2.881   0.376  14.679 -1.3691  0.6291 -0.7682
 6565TIP3   OH241109   0.778   1.247  15.264  0.1127 -0.2071 -0.4971
 6565TIP3    H141110   0.829   1.322  15.294 -2.9844  2.1911 -0.7118
 6565TIP3    H241111   0.711   1.236  15.331 -1.2689 -0.8479 -1.9360
 6566TIP3   OH241112   0.600   6.663   0.697  0.0532  0.5709  0.2009
 6566TIP3    H141113   0.661   6.725   0.656 -0.5645  1.2110  0.2284
 6566TIP3    H241114   0.541   6.637   0.627  0.5967 -0.3639  0.0803
 6567TIP3   OH241115   5.502   3.993   1.407 -0.4145 -0.1511  0.2376
 6567TIP3    H141116   5.555   3.913   1.412  1.9126  1.3541  0.7956
 6567TIP3    H241117   5.510   4.022   1.317 -1.9668 -0.9265 -0.1957
 6568TIP3   OH241118   0.322   5.502   3.708  0.0643 -0.3334  0.4852
 6568TIP3    H141119   0.282   5.524   3.792  1.5349 -0.1523  1.1530
 6568TIP3    H241120   0.372   5.423   3.724  1.3162  0.3537  0.0838
 6569TIP3   OH241121   0.498   6.166  14.849  0.2214  0.3008 -0.2292
 6569TIP3    H141122   0.589   6.138  14.861  0.6972  2.0126  0.4880
 6569TIP3    H241123   0.490   6.244  14.903 -1.7894  0.0171 -0.0427
 6570TIP3   OH241124   6.602   1.885  16.895  0.0906 -0.0151 -0.2257
 6570TIP3    H141125   6.572   1.797  16.874 -0.1055 -0.2672  1.0069
 6570TIP3    H241126   6.602   1.888  16.991 -0.0958  1.3935 -0.2475
 6571TIP3   OH241127   5.161   0.508   5.708 -0.3361  0.4208  0.1409
 6571TIP3    H141128   5.251   0.517   5.677 -0.7424 -1.6470 -1.9816
 6571TIP3    H241129   5.123   0.440   5.652 -3.1828  1.0810  1.0722
 6572TIP3   OH241130   4.197   5.443  11.631  0.1656  1.2539 -0.2638
 6572TIP3    H141131   4.118   5.469  11.679  0.6366 -1.6568  2.4241
 6572TIP3    H241132   4.243   5.525  11.614 -2.3752  2.8354 -0.0028
 6573TIP3   OH241133   3.367   2.474  14.708 -0.7840  0.1997  0.8956
 6573TIP3    H141134   3.399   2.407  14.647 -1.0221  1.4146 -0.6279
 6573TIP3    H241135   3.282   2.442  14.736 -0.9973 -0.0523  0.0100
 6574TIP3   OH241136   1.415   4.202   5.331  0.4414  0.1600  0.3418
 6574TIP3    H141137   1.397   4.170   5.243  2.2124 -1.4215  0.4962
 6574TIP3    H241138   1.351   4.158   5.387  1.2504 -1.2140  0.2155
 6575TIP3   OH241139   3.452   1.136   5.390  0.4673 -0.2756 -0.1880
 6575TIP3    H141140   3.501   1.055   5.378  0.6767 -0.2092  0.2077
 6575TIP3    H241141   3.518   1.205   5.388  0.1017  0.0513 -2.2783
 6576TIP3   OH241142   0.778   3.377  12.107 -0.0901 -0.1638 -0.0714
 6576TIP3    H141143   0.863   3.405  12.073 -0.5686  0.7448 -0.5547
 6576TIP3    H241144   0.768   3.425  12.189 -0.9143  1.1555 -0.9048
 6577TIP3   OH241145   1.996   6.427  14.289 -0.3583  0.3794  0.0728
 6577TIP3    H141146   1.902   6.423  14.271 -0.7293 -0.1799  1.9468
 6577TIP3    H241147   2.008   6.374  14.367  1.5900  0.1800 -0.3026
 6578TIP3   OH241148   1.364   0.831   3.322  0.0368  0.6836 -0.0334
 6578TIP3    H141149   1.316   0.836   3.404  1.5928  0.3710  0.9572
 6578TIP3    H241150   1.325   0.757   3.276 -0.8537  0.8567  0.4217
 6579TIP3   OH241151   5.724   6.352   1.794  0.1004 -0.1312 -0.0323
 6579TIP3    H141152   5.680   6.343   1.709  0.6923 -1.4418 -0.2325
 6579TIP3    H241153   5.722   6.264   1.832  0.7170  0.2231  0.8682
 6580TIP3   OH241154   1.246   6.731  16.891  0.0208  0.0200 -0.3467
 6580TIP3    H141155   1.320   6.679  16.924 -0.6372 -0.2782  0.7114
 6580TIP3    H241156   1.185   6.667  16.857 -1.0321  0.0080  1.4446
 6581TIP3   OH241157   2.022   3.090   4.988 -0.3497 -0.6572 -0.5312
 6581TIP3    H141158   1.953   3.055   5.045 -0.8187 -0.4739 -0.9816
 6581TIP3    H241159   1.987   3.082   4.899 -0.8505  1.7720 -0.6033
 6582TIP3   OH241160   6.265   3.887   3.769 -0.2224 -0.0277  0.1623
 6582TIP3    H141161   6.193   3.824   3.773  0.3752 -0.6798  1.3338
 6582TIP3    H241162   6.231   3.965   3.811 -0.1813 -0.4233  0.9550
 6583TIP3   OH241163   2.506   0.191  13.524 -0.8464 -0.5189 -0.2361
 6583TIP3    H141164   2.526   0.098  13.513 -1.0088 -0.4801 -0.8739
 6583TIP3    H241165   2.591   0.235  13.519 -0.5184 -0.7785  1.9328
 6584TIP3   OH241166   4.099   4.178   0.886 -0.0605 -0.1604  0.3293
 6584TIP3    H141167   4.135   4.249   0.834  1.2292 -1.3832 -0.5189
 6584TIP3    H241168   4.052   4.123   0.823  1.8991 -1.9010  0.2729
 6585TIP3   OH241169   1.784   5.340   3.595 -0.0668 -0.3022 -0.1784
 6585TIP3    H141170   1.805   5.346   3.501 -0.2697 -2.3184 -0.4046
 6585TIP3    H241171   1.715   5.405   3.608  0.7100  0.7746 -1.1721
 6586TIP3   OH241172   6.267   3.033   3.712 -0.2797  0.1223  0.1590
 6586TIP3    H141173   6.254   2.950   3.667 -0.1034 -0.0205  0.3696
 6586TIP3    H241174   6.351   3.024   3.756 -1.0407 -0.2350  1.5878
 6587TIP3   OH241175   1.190   5.584   5.873 -0.3615  0.2344 -0.4548
 6587TIP3    H141176   1.099   5.578   5.843 -0.5228  1.2140 -0.1961
 6587TIP3    H241177   1.208   5.499   5.914 -0.5476 -0.6560 -2.1528
 6588TIP3   OH241178   3.287   3.108   0.913 -0.0969  0.2972  0.0553
 6588TIP3    H141179   3.249   3.162   0.843  1.0922  1.7116  0.4390
 6588TIP3    H241180   3.381   3.118   0.902  0.1220 -0.2686  1.2620
 6589TIP3   OH241181   5.531   2.849  12.605 -0.0051 -0.4703 -0.6366
 6589TIP3    H141182   5.464   2.832  12.539  0.6232 -1.7948 -0.9520
 6589TIP3    H241183   5.588   2.773  12.602  1.3295  0.4746 -0.1276
 6590TIP3   OH241184   2.043   4.549   5.130 -0.1669  0.0464  0.5663
 6590TIP3    H141185   2.099   4.545   5.207 -0.6575  0.1453  0.9355
 6590TIP3    H241186   1.986   4.625   5.146  0.1741  0.4718 -0.1982
 6591TIP3   OH241187   1.544   0.730   2.083 -0.0722 -0.4478 -0.8414
 6591TIP3    H141188   1.495   0.811   2.072  1.0460  0.0270 -2.6506
 6591TIP3    H241189   1.531   0.707   2.175  1.4105  3.0278  0.4318
 6592TIP3   OH241190   0.727   0.914  11.663 -0.5467 -0.6370 -0.2912
 6592TIP3    H141191   0.782   0.875  11.730 -0.9098 -0.5834  0.0466
 6592TIP3    H241192   0.756   1.005  11.658 -0.2730 -0.7329 -0.4717
 6593TIP3   OH241193   2.623   2.527  14.166 -0.0332 -0.3443 -0.2474
 6593TIP3    H141194   2.632   2.495  14.256  0.6590 -0.5055 -0.3684
 6593TIP3    H241195   2.690   2.479  14.117 -1.2632 -1.2271 -1.1250
 6594TIP3   OH241196   6.221   0.538   3.305  0.3382  0.5547  0.0735
 6594TIP3    H141197   6.127   0.550   3.289  0.4738  1.2509 -0.2189
 6594TIP3    H241198   6.254   0.626   3.322  0.6659  0.1514  1.7528
 6595TIP3   OH241199   0.575   3.726   1.561 -0.1594  0.1371 -0.1820
 6595TIP3    H141200   0.485   3.708   1.534  0.4576  0.2136 -2.5161
 6595TIP3    H241201   0.600   3.650   1.614 -1.5716  0.1329  0.5295
 6596TIP3   OH241202   4.573   1.040  15.044 -0.0572 -0.2565 -0.3058
 6596TIP3    H141203   4.605   0.966  15.096 -0.8449  0.6706  1.5886
 6596TIP3    H241204   4.645   1.060  14.984  0.1159 -2.6300 -1.0258
 6597TIP3   OH241205   2.171   5.034  15.889  0.8243 -0.0547  0.0690
 6597TIP3    H141206   2.144   5.099  15.824  1.6999  2.1710  1.7950
 6597TIP3    H241207   2.129   4.953  15.860 -1.9662  1.6545 -1.1472
 6598TIP3   OH241208   4.522   3.536  14.096  0.4619 -0.1658  0.2717
 6598TIP3    H141209   4.436   3.496  14.113 -0.7867  1.6117 -1.3593
 6598TIP3    H241210   4.562   3.478  14.030  1.0670 -1.6294  1.8622
 6599TIP3   OH241211   0.482   1.922   3.696  0.4807 -0.1201 -0.1896
 6599TIP3    H141212   0.457   2.012   3.677  0.9441 -0.1066 -0.7357
 6599TIP3    H241213   0.404   1.871   3.674  0.1232  0.1716  0.3809
 6600TIP3   OH241214   3.182   5.131   1.933 -0.0296 -0.3956 -1.1152
 6600TIP3    H141215   3.143   5.059   1.984  0.2508 -0.1367 -0.5336
 6600TIP3    H241216   3.254   5.090   1.884  1.3046 -0.1818  0.5982
 6601TIP3   OH241217   5.714   3.391  13.611 -0.3708 -0.5845  0.0083
 6601TIP3    H141218   5.786   3.374  13.670 -0.3565 -2.2945 -0.4395
 6601TIP3    H241219   5.749   3.374  13.524 -0.8373  0.2924 -0.3678
 6602TIP3   OH241220   5.943   1.650   3.506 -0.2576  0.4676 -0.2578
 6602TIP3    H141221   5.935   1.700   3.424 -0.0483  1.2985  0.2189
 6602TIP3    H241222   5.853   1.642   3.538 -0.2923  0.5436 -0.3363
 6603TIP3   OH241223   1.911   5.167  14.438 -0.6672  0.3006  0.0888
 6603TIP3    H141224   1.899   5.095  14.375 -0.3024 -0.1778  0.5549
 6603TIP3    H241225   1.958   5.127  14.511  0.0034  1.1309  0.1378
 6604TIP3   OH241226   2.167   4.394  14.629  0.5713  0.2562 -0.3693
 6604TIP3    H141227   2.253   4.365  14.659 -0.0081 -0.7185  0.3964
 6604TIP3    H241228   2.111   4.386  14.706 -0.6992 -1.2242 -1.3983
 6605TIP3   OH241229   5.638   1.671   3.097  0.4647  0.3474 -0.7375
 6605TIP3    H141230   5.556   1.668   3.048 -0.4172  1.8509  0.5812
 6605TIP3    H241231   5.699   1.619   3.044 -1.9902 -3.2928 -0.4027
 6606TIP3   OH241232   1.499   3.033   0.463 -0.0415 -1.0321  0.0140
 6606TIP3    H141233   1.465   3.117   0.495  1.9597  0.3837 -1.2830
 6606TIP3    H241234   1.439   3.008   0.394 -1.1082 -1.1088  0.9373
 6607TIP3   OH241235   0.227   4.055   2.378 -0.3777  0.0880 -0.1270
 6607TIP3    H141236   0.178   3.973   2.379 -3.0061  1.5444  1.3170
 6607TIP3    H241237   0.250   4.071   2.469  0.2460  0.8938 -0.4083
 6608TIP3   OH241238   5.238   3.729   4.559 -0.1818 -0.3178 -0.0527
 6608TIP3    H141239   5.283   3.661   4.510 -0.1086 -0.2309 -0.1077
 6608TIP3    H241240   5.288   3.737   4.641  2.3742  2.4893 -1.6823
 6609TIP3   OH241241   0.609   6.657   2.845 -0.6805  0.2022  0.2028
 6609TIP3    H141242   0.598   6.594   2.774  0.2811 -0.2509  0.4304
 6609TIP3    H241243   0.579   6.610   2.923 -1.3395  0.5521  0.1681
 6610TIP3   OH241244   2.928   6.531  10.457 -0.2738 -0.0594  0.2158
 6610TIP3    H141245   3.020   6.532  10.483 -0.7617  0.7098  2.0620
 6610TIP3    H241246   2.899   6.442  10.473 -0.2287  0.0819  1.1036
 6611TIP3   OH241247   2.793   6.645   0.256  0.0254  0.3511  1.0247
 6611TIP3    H141248   2.753   6.559   0.267  1.1547 -0.2167  0.8208
 6611TIP3    H241249   2.791   6.684   0.344 -0.9087  0.3128  1.0229
 6612TIP3   OH241250   0.230   2.391  15.073  0.5047 -0.5772 -0.5963
 6612TIP3    H141251   0.248   2.347  14.990  0.4123 -0.3461 -0.7389
 6612TIP3    H241252   0.235   2.484  15.053 -0.4930 -0.5041 -0.5647
 6613TIP3   OH241253   3.481   6.714  15.170  0.0754 -0.0741  0.2617
 6613TIP3    H141254   3.550   6.780  15.163 -0.3775  0.6705  2.2641
 6613TIP3    H241255   3.465   6.706  15.264 -2.7143 -0.0374 -0.1224
 6614TIP3   OH241256   1.687   3.966  12.956  0.0371  0.0706 -0.1492
 6614TIP3    H141257   1.656   3.973  12.866  2.0150  0.0811 -0.8971
 6614TIP3    H241258   1.706   4.056  12.983  3.6671 -0.1628 -1.4192
 6615TIP3   OH241259   4.023   4.100  15.185 -0.2174  0.9325  0.4307
 6615TIP3    H141260   4.086   4.032  15.162  0.0960  0.8144  1.5871
 6615TIP3    H241261   4.016   4.154  15.107 -0.4858 -0.4321 -0.5331
 6616TIP3   OH241262   6.726   2.445  11.053  0.5186 -0.3367 -0.5540
 6616TIP3    H141263   6.648   2.393  11.072  1.0893 -1.4520 -1.1708
 6616TIP3    H241264   6.701   2.500  10.979 -0.2295  0.6409  0.3811
 6617TIP3   OH241265   4.766   1.949  13.585  0.2746  0.5410  0.3484
 6617TIP3    H141266   4.832   1.901  13.634 -0.0347  0.8175  1.0403
 6617TIP3    H241267   4.704   1.979  13.651 -1.0118 -0.4263 -0.3718
 6618TIP3   OH241268   4.924   1.478  12.460  0.2295 -0.1939  0.6557
 6618TIP3    H141269   4.953   1.477  12.368 -1.2616  0.2491  0.1529
 6618TIP3    H241270   4.972   1.551  12.499  0.3134  0.1003  0.0252
 6619TIP3   OH241271   3.103   1.609  13.706  0.2098 -0.8398 -0.6556
 6619TIP3    H141272   3.073   1.547  13.639 -0.1825 -0.5173 -0.7836
 6619TIP3    H241273   3.122   1.689  13.658  1.8722 -1.1964 -0.6686
 6620TIP3   OH241274   4.932   4.597  14.406  0.3714  0.1945  0.2106
 6620TIP3    H141275   4.914   4.594  14.312  0.5847 -0.4546  0.1848
 6620TIP3    H241276   4.854   4.638  14.444  0.5600  1.0736 -0.3095
 6621TIP3   OH241277   3.024   3.363  14.596  0.3117  0.0885  0.0852
 6621TIP3    H141278   2.976   3.365  14.680  0.2235  0.3302  0.0294
 6621TIP3    H241279   3.115   3.379  14.620  0.4174 -0.7146  0.2304
 6622TIP3   OH241280   6.487   0.923   5.122 -0.0219 -0.5030  0.1245
 6622TIP3    H141281   6.542   0.999   5.141  2.2665 -1.8091 -0.8679
 6622TIP3    H241282   6.398   0.958   5.121  0.8275  1.9103  0.8816
 6623TIP3   OH241283   4.732   4.745  15.957  0.6189  0.1603  0.3592
 6623TIP3    H141284   4.645   4.706  15.969  0.9209 -1.5402 -2.0781
 6623TIP3    H241285   4.716   4.824  15.906  0.4335  0.3329  0.6837
 6624TIP3   OH241286   4.206   5.299  16.577 -0.2967  0.7127  0.0912
 6624TIP3    H141287   4.219   5.336  16.665 -1.6907  0.5058  0.4101
 6624TIP3    H241288   4.284   5.246  16.561  0.5166  1.6912  0.7114
 6625TIP3   OH241289   0.375   2.305   1.332 -0.1466  0.1009 -0.0128
 6625TIP3    H141290   0.385   2.365   1.406 -0.3706  0.5125 -0.3148
 6625TIP3    H241291   0.283   2.314   1.306  0.2218  0.8504 -1.1019
 6626TIP3   OH241292   4.378   6.690   5.905  0.6026 -0.3598  0.1825
 6626TIP3    H141293   4.319   6.717   5.835  0.5196  0.0079  0.3897
 6626TIP3    H241294   4.345   6.736   5.983 -1.2347 -3.1231  1.1946
 6627TIP3   OH241295   1.546   3.461  12.555 -0.5136 -0.1670 -0.1369
 6627TIP3    H141296   1.522   3.368  12.553 -0.9972 -0.0429 -0.3855
 6627TIP3    H241297   1.591   3.476  12.472 -1.7629  0.1531 -0.7803
 6628TIP3   OH241298   1.799   3.302  14.320 -0.4147  0.0728 -0.1848
 6628TIP3    H141299   1.805   3.208  14.330  0.6840 -0.0926 -1.9833
 6628TIP3    H241300   1.717   3.326  14.364 -0.8934 -1.7619 -0.0197
 6629TIP3   OH241301   6.271   5.375   5.420 -0.1351  0.9257  0.2077
 6629TIP3    H141302   6.358   5.340   5.402 -0.8189 -1.5460  1.3136
 6629TIP3    H241303   6.287   5.466   5.444  2.0890  0.6637 -0.0297
 6630TIP3   OH241304   4.162   0.571   0.443 -0.0159 -0.4872 -0.1456
 6630TIP3    H141305   4.086   0.627   0.433  0.9480  0.9929  0.5661
 6630TIP3    H241306   4.175   0.533   0.356 -1.0437 -0.0973 -0.4822
 6631TIP3   OH241307   4.756   5.489   1.570 -0.7209 -0.2322  0.3095
 6631TIP3    H141308   4.735   5.417   1.630  1.1060 -2.1480 -1.1691
 6631TIP3    H241309   4.848   5.509   1.588 -1.1101  1.5725  0.4600
 6632TIP3   OH241310   1.754   0.021   6.765  0.0022  0.1506  0.2345
 6632TIP3    H141311   1.739   0.050   6.675  0.4276 -0.0622  0.0912
 6632TIP3    H241312   1.684  -0.041   6.783  0.3151 -0.3311 -0.1900
 6633TIP3   OH241313   0.540   0.996  11.375 -0.3081  0.6112  0.9364
 6633TIP3    H141314   0.539   1.060  11.446 -0.8366  0.1394  1.3594
 6633TIP3    H241315   0.470   1.024  11.317 -1.7264 -0.5572  2.0157
 6634TIP3   OH241316   2.324   0.749  11.768  0.2690  0.3265 -0.4071
 6634TIP3    H141317   2.256   0.772  11.704 -1.6415  1.4137  1.8139
 6634TIP3    H241318   2.363   0.833  11.792  0.5305  0.0162  0.2732
 6635TIP3   OH241319   3.865   2.081  11.926 -0.1573  0.0654  0.0950
 6635TIP3    H141320   3.880   2.155  11.985 -0.0836 -0.1039  0.2904
 6635TIP3    H241321   3.953   2.058  11.895 -0.2089  0.2378 -0.1856
 6636TIP3   OH241322   2.793   6.041   1.565 -0.8166  0.0866 -0.0520
 6636TIP3    H141323   2.707   6.057   1.528 -0.7722  0.7245  0.1052
 6636TIP3    H241324   2.828   6.129   1.583 -0.1951 -0.1685  0.0111
 6637TIP3   OH241325   4.885   2.683  13.009  0.1830 -0.4824 -0.0541
 6637TIP3    H141326   4.944   2.610  13.024  0.0176 -0.4465  0.8312
 6637TIP3    H241327   4.878   2.727  13.094  0.2859  0.5662 -0.5641
 6638TIP3   OH241328   3.453   5.559   2.207 -0.5859  0.4112 -0.5261
 6638TIP3    H141329   3.470   5.474   2.165 -0.5291 -0.2744  0.8352
 6638TIP3    H241330   3.474   5.623   2.139 -0.4713 -0.6528 -1.5364
 6639TIP3   OH241331   5.403   3.980  16.574 -0.3403  0.1706  0.5564
 6639TIP3    H141332   5.366   3.892  16.572 -1.0613  0.4143 -2.9740
 6639TIP3    H241333   5.420   3.997  16.667  1.0708 -4.1458  1.2911
 6640TIP3   OH241334   1.937   6.206   2.368  0.2647  0.2276  0.0323
 6640TIP3    H141335   1.901   6.127   2.410 -1.3763  0.0091 -1.6601
 6640TIP3    H241336   1.879   6.276   2.395  0.0338  0.3351 -0.7260
 6641TIP3   OH241337   1.366   2.818  14.385  0.3015  0.1505 -0.6934
 6641TIP3    H141338   1.446   2.766  14.386 -0.3023 -1.2633  4.5855
 6641TIP3    H241339   1.296   2.754  14.377 -0.3597  0.8664 -0.7811
 6642TIP3   OH241340   4.863   1.443  10.816  0.0113  0.2312 -0.7706
 6642TIP3    H141341   4.893   1.529  10.846 -1.4111  0.9072 -1.1617
 6642TIP3    H241342   4.795   1.463  10.751  1.3741 -1.1698 -2.7517
 6643TIP3   OH241343   5.892   3.092   2.227 -0.3199  0.0302 -0.3370
 6643TIP3    H141344   5.878   3.128   2.315  0.7957  0.3686 -0.2846
 6643TIP3    H241345   5.813   3.117   2.179 -0.7602  0.2043  0.4470
 6644TIP3   OH241346   6.280   5.023  10.734 -0.1197 -0.0700 -0.5141
 6644TIP3    H141347   6.363   4.983  10.707 -1.8996 -3.0823 -1.9364
 6644TIP3    H241348   6.244   5.059  10.654 -1.8787 -2.2053 -0.7618
 6645TIP3   OH241349   2.291   3.006   4.947  0.0307 -0.3155  0.3033
 6645TIP3    H141350   2.203   3.029   4.976  0.5189  0.7752  0.9792
 6645TIP3    H241351   2.316   2.933   5.002 -0.9849 -1.6206 -0.8805
 6646TIP3   OH241352   6.298   0.475   6.201 -0.4643  0.6725 -0.6036
 6646TIP3    H141353   6.251   0.554   6.227  0.3021  1.1489 -0.6252
 6646TIP3    H241354   6.380   0.507   6.164  0.2158 -0.1558  0.1256
 6647TIP3   OH241355   0.172   2.802   5.757 -0.0578 -0.2416 -0.2269
 6647TIP3    H141356   0.169   2.859   5.834 -2.0914  0.6123 -0.8707
 6647TIP3    H241357   0.202   2.718   5.791 -0.8660  0.1191  1.5196
 6648TIP3   OH241358   6.292   6.537   1.333 -0.8316  0.1816  0.0215
 6648TIP3    H141359   6.304   6.631   1.346  1.0185  0.2038 -1.3216
 6648TIP3    H241360   6.356   6.514   1.265 -1.9663 -1.8633 -0.4471
 6649TIP3   OH241361   3.002   0.812  12.774 -0.3152 -0.5840  0.0652
 6649TIP3    H141362   2.918   0.807  12.728 -0.1313  1.1508 -0.5301
 6649TIP3    H241363   2.987   0.875  12.844 -0.2496 -2.3002  1.7290
 6650TIP3   OH241364   1.970   2.816  11.858 -0.6128  0.4919  0.7152
 6650TIP3    H141365   1.969   2.751  11.928 -1.3133  0.1610  0.3966
 6650TIP3    H241366   1.881   2.818  11.824 -0.7155  1.9077  0.9764
 6651TIP3   OH241367   3.560   5.906   2.552 -0.1851 -0.6469 -0.3025
 6651TIP3    H141368   3.490   5.841   2.555 -0.1734 -0.7525 -1.7095
 6651TIP3    H241369   3.592   5.903   2.462  2.4727 -1.4598  0.5778
 6652TIP3   OH241370   4.261   3.948  10.655 -0.3187  0.3502  0.3444
 6652TIP3    H141371   4.187   4.006  10.672 -0.5204 -0.2640  1.7068
 6652TIP3    H241372   4.331   4.006  10.626 -0.8447  1.1381  0.6172
 6653TIP3   OH241373   6.195   6.217   2.144 -0.0022  0.5450  0.1847
 6653TIP3    H141374   6.288   6.195   2.142 -0.0411  0.3564 -1.7497
 6653TIP3    H241375   6.174   6.227   2.237  2.2653  2.0380  0.6109
 6654TIP3   OH241376   5.829   4.548   3.985 -0.4432 -0.8173  0.7650
 6654TIP3    H141377   5.871   4.566   3.901  0.6280 -0.9074  1.2677
 6654TIP3    H241378   5.845   4.455   4.000  1.9856 -0.2280  2.4299
 6655TIP3   OH241379   5.373   0.352  16.778 -0.5509 -0.3128 -0.4724
 6655TIP3    H141380   5.292   0.386  16.817 -0.1301  1.1849 -0.8267
 6655TIP3    H241381   5.428   0.429  16.767  0.7013 -1.2254 -0.7994
 6656TIP3   OH241382   6.107   4.870  16.694 -0.1488  0.8076  0.0894
 6656TIP3    H141383   6.059   4.922  16.759 -0.8365  2.0965 -1.3746
 6656TIP3    H241384   6.170   4.820  16.746 -0.6151  1.8259  1.7418
 6657TIP3   OH241385   3.460   2.192  16.817 -0.0336  0.0610 -0.2140
 6657TIP3    H141386   3.371   2.168  16.843 -0.6689  0.2700 -2.0690
 6657TIP3    H241387   3.511   2.186  16.898 -1.4716 -1.2669  0.6426
 6658TIP3   OH241388   3.756   0.922   5.947 -0.2434 -0.4704 -0.3449
 6658TIP3    H141389   3.674   0.877   5.966  0.2045 -0.3662  2.2787
 6658TIP3    H241390   3.737   1.015   5.963  0.5694 -0.5428  1.2643
 6659TIP3   OH241391   6.218   6.336  14.976 -0.3318 -0.3843  0.2247
 6659TIP3    H141392   6.213   6.384  14.894  0.8059 -1.8608 -0.7468
 6659TIP3    H241393   6.304   6.357  15.012  0.1485 -1.5972 -0.1729
 6660TIP3   OH241394   3.669   1.895   1.094 -0.0197  0.1209  0.2553
 6660TIP3    H141395   3.716   1.889   1.010 -0.7375  0.2153 -0.1629
 6660TIP3    H241396   3.578   1.912   1.069  0.0010  1.6415  1.0944
 6661TIP3   OH241397   6.289   5.192   0.069 -0.0362  0.3811 -0.3465
 6661TIP3    H141398   6.244   5.177   0.152  0.8051  1.7478  0.3757
 6661TIP3    H241399   6.283   5.107   0.024 -0.8591 -0.2682  0.9134
 6662TIP3   OH241400   1.539   6.078   5.222 -0.7180 -0.1323  0.1234
 6662TIP3    H141401   1.612   6.140   5.212  1.4877 -2.2689  1.9106
 6662TIP3    H241402   1.518   6.052   5.132  1.1831  0.0724 -0.4227
 6663TIP3   OH241403   0.575   5.462  11.252 -0.7741 -0.2423  0.2109
 6663TIP3    H141404   0.559   5.369  11.271  0.2768 -0.2751  1.0283
 6663TIP3    H241405   0.488   5.501  11.251 -1.2031 -1.1631  0.2708
 6664TIP3   OH241406   3.234   0.882  11.161  0.1055  0.3685  0.3650
 6664TIP3    H141407   3.219   0.825  11.237 -1.0075  1.2795  0.8614
 6664TIP3    H241408   3.196   0.966  11.187 -0.7727  0.5552 -1.3990
 6665TIP3   OH241409   0.146   5.651   4.284 -0.4212 -0.5139  0.2742
 6665TIP3    H141410   0.132   5.596   4.208 -0.4999 -0.3292  0.1562
 6665TIP3    H241411   0.059   5.670   4.317 -0.4825  0.9425 -0.6802
 6666TIP3   OH241412   5.769   6.445  13.090 -0.2220 -0.2225  0.0277
 6666TIP3    H141413   5.796   6.412  13.005 -0.2512  1.5141 -0.6861
 6666TIP3    H241414   5.806   6.533  13.095  0.5522 -0.6127  2.2136
 6667TIP3   OH241415   2.227   0.634  12.642 -0.2541 -0.0829 -0.4311
 6667TIP3    H141416   2.138   0.668  12.649 -0.2207 -0.0674 -0.0658
 6667TIP3    H241417   2.280   0.710  12.619 -0.0903  0.2508  0.9608
 6668TIP3   OH241418   6.300   2.461   1.374  0.8081  0.0104  0.0254
 6668TIP3    H141419   6.343   2.467   1.289 -0.6535 -1.1767 -0.8419
 6668TIP3    H241420   6.211   2.493   1.359  0.6582  0.2125  1.2215
 6669TIP3   OH241421   0.899   4.034  10.796 -0.3008 -0.1530 -0.0605
 6669TIP3    H141422   0.814   4.045  10.840 -1.2475 -0.1703 -1.7960
 6669TIP3    H241423   0.892   4.088  10.717  1.1054 -0.5912 -0.5152
 6670TIP3   OH241424   5.587   6.337  15.631 -0.0829 -0.3233  0.7173
 6670TIP3    H141425   5.669   6.305  15.594 -0.1692  0.5183 -0.2472
 6670TIP3    H241426   5.614   6.398  15.700  0.1008 -0.4757  0.7786
 6671TIP3   OH241427   6.069   5.412  13.170 -0.7148  0.0781 -0.0689
 6671TIP3    H141428   6.142   5.469  13.196 -1.1669  1.2341 -1.2266
 6671TIP3    H241429   6.075   5.338  13.230  0.6815  0.7190  0.6525
 6672TIP3   OH241430   4.743   0.331  11.524  0.1976  0.8737  0.0179
 6672TIP3    H141431   4.700   0.248  11.545  0.8462  0.3946 -0.5295
 6672TIP3    H241432   4.711   0.391  11.591  0.4468 -0.0513  0.9912
 6673TIP3   OH241433   3.591   3.655   3.780 -0.0062 -0.5082  0.4508
 6673TIP3    H141434   3.542   3.596   3.722 -0.2496  1.2209 -1.2066
 6673TIP3    H241435   3.540   3.657   3.861 -2.6053  0.9664 -1.0854
 6674TIP3   OH241436   5.658   1.626   5.482 -0.4022  0.1949 -0.3529
 6674TIP3    H141437   5.611   1.708   5.491  1.3636  1.1996  0.2206
 6674TIP3    H241438   5.736   1.637   5.536 -0.2559 -1.9817 -0.0222
 6675TIP3   OH241439   2.006   3.066  10.685  0.2210 -0.0472  0.2914
 6675TIP3    H141440   2.092   3.067  10.726  0.5084  1.0565 -0.3116
 6675TIP3    H241441   2.021   3.030  10.598  0.3030  1.2298 -0.2494
 6676TIP3   OH241442   5.494   5.087   1.636  0.4752  0.6406 -0.6037
 6676TIP3    H141443   5.413   5.132   1.609 -0.9164 -0.5877  1.3279
 6676TIP3    H241444   5.486   4.999   1.600  0.5753  0.2769  0.2460
 6677TIP3   OH241445   5.516   0.313   2.053  0.2991  0.3379  0.0238
 6677TIP3    H141446   5.529   0.268   1.970 -0.2772 -1.3224  0.7743
 6677TIP3    H241447   5.597   0.298   2.102 -0.1272 -0.5080  0.5144
 6678TIP3   OH241448   5.335   4.865   5.063 -0.1818 -0.5313  0.5436
 6678TIP3    H141449   5.345   4.809   4.986  1.4614 -1.3430  1.3005
 6678TIP3    H241450   5.264   4.926   5.040  0.1173 -0.9062 -1.4978
 6679TIP3   OH241451   6.677   5.767   2.084  0.5106  0.4073  0.1869
 6679TIP3    H141452   6.733   5.828   2.037  0.2448 -0.6295 -1.5569
 6679TIP3    H241453   6.736   5.721   2.143  0.8093  1.8852  1.1150
 6680TIP3   OH241454   4.280   2.955  12.142 -0.7554  0.4636 -0.0679
 6680TIP3    H141455   4.284   2.898  12.219 -0.9168 -1.7325 -1.5919
 6680TIP3    H241456   4.243   3.037  12.174 -2.1904 -0.8924  1.9122
 6681TIP3   OH241457   3.970   1.754  16.561  0.0965 -0.5499  0.0257
 6681TIP3    H141458   4.041   1.761  16.496 -0.0086  0.6478  0.0089
 6681TIP3    H241459   3.966   1.841  16.601 -1.6925 -0.4331 -0.3295
 6682TIP3   OH241460   4.645   6.387  11.279  0.2948 -0.1018  0.3073
 6682TIP3    H141461   4.620   6.438  11.202  0.4728  2.3406  1.7780
 6682TIP3    H241462   4.575   6.401  11.342  2.1613  1.6994  2.1746
 6683TIP3   OH241463   6.474   5.037  11.736  0.2616  0.4264 -0.1149
 6683TIP3    H141464   6.393   5.049  11.785  0.5417 -0.1299  0.4965
 6683TIP3    H241465   6.519   5.122  11.742 -0.5176  0.9141 -0.9305
 6684TIP3   OH241466   2.882   0.139   5.632  0.3973  0.1209  0.0948
 6684TIP3    H141467   2.911   0.127   5.723  1.5107  0.8438 -0.1405
 6684TIP3    H241468   2.863   0.232   5.625 -0.0896 -0.0048 -0.3094
 6685TIP3   OH241469   4.813   1.705   2.183  0.6004 -0.6133  1.1183
 6685TIP3    H141470   4.906   1.700   2.205  0.6090 -0.5959  1.0867
 6685TIP3    H241471   4.768   1.664   2.257  0.6422 -0.7657  1.0589
 6686TIP3   OH241472   3.807   1.415  13.580  0.9200 -0.7941  0.6050
 6686TIP3    H141473   3.721   1.455  13.591  1.2024 -0.3089  1.1197
 6686TIP3    H241474   3.808   1.342  13.642  0.2916 -1.8295 -0.5483
 6687TIP3   OH241475   6.523   1.530   5.330 -0.0676  0.2807 -0.5635
 6687TIP3    H141476   6.585   1.503   5.262  0.5471 -0.7331  0.3715
 6687TIP3    H241477   6.462   1.457   5.338 -0.6941  0.7786 -0.6459
 6688TIP3   OH241478   0.409   5.073  15.523  0.9714  0.6149  0.0670
 6688TIP3    H141479   0.322   5.082  15.485  0.7332  2.5546  0.9669
 6688TIP3    H241480   0.463   5.135  15.474  1.8325 -0.4322 -0.3581
 6689TIP3   OH241481   1.812   2.532  12.334  0.2838 -0.2451 -0.3302
 6689TIP3    H141482   1.792   2.547  12.426  0.2738 -1.9065 -0.0359
 6689TIP3    H241483   1.832   2.438  12.328 -1.3895 -0.5556 -2.3077
 6690TIP3   OH241484   0.412   6.452   2.415  0.2137 -0.0688 -1.3211
 6690TIP3    H141485   0.470   6.405   2.475 -0.3427 -2.6432 -2.6090
 6690TIP3    H241486   0.470   6.509   2.365  0.9312  0.7404  0.3857
 6691TIP3   OH241487   5.636   0.760   4.701 -0.0972  0.0808 -0.1440
 6691TIP3    H141488   5.643   0.665   4.689 -1.0231 -0.5453  3.3057
 6691TIP3    H241489   5.719   0.794   4.668  0.8322 -2.0843 -0.2306
 6692TIP3   OH241490   0.076   6.355  13.383 -0.7328  0.0466  0.5773
 6692TIP3    H141491   0.118   6.403  13.455 -1.0114 -0.2366  0.9358
 6692TIP3    H241492   0.002   6.409  13.358  0.4940  1.1240 -0.8445
 6693TIP3   OH241493   3.984   1.685  15.791 -0.6756 -0.2637 -0.2985
 6693TIP3    H141494   3.943   1.615  15.841 -0.2575 -1.3709 -1.4549
 6693TIP3    H241495   3.960   1.667  15.700  1.3533 -0.2764 -0.8827
 6694TIP3   OH241496   6.535   6.353   6.096 -0.1752  0.0265 -0.1640
 6694TIP3    H141497   6.499   6.440   6.081  2.1158  1.1074  0.0680
 6694TIP3    H241498   6.518   6.336   6.188 -0.4384  0.3498 -0.1512
 6695TIP3   OH241499   3.142   3.939  13.146  0.4588  0.2489  0.4589
 6695TIP3    H141500   3.057   3.895  13.143  1.4824 -2.1317  2.4229
 6695TIP3    H241501   3.192   3.899  13.074  1.0088 -1.0746  1.5242
 6696TIP3   OH241502   3.665   2.485  14.822 -0.1946  0.2753 -0.0460
 6696TIP3    H141503   3.629   2.484  14.911 -0.0290  0.7276  0.0287
 6696TIP3    H241504   3.589   2.482  14.764 -0.2856 -0.6860  0.1061
 6697TIP3   OH241505   0.579   0.575   2.158 -0.2833  0.6167 -0.2685
 6697TIP3    H141506   0.613   0.557   2.070  0.2057  0.1343  0.0152
 6697TIP3    H241507   0.557   0.668   2.157 -2.6082  0.1588 -1.6906
 6698TIP3   OH241508   3.770   0.252   4.267 -0.1575  0.2838  0.7805
 6698TIP3    H141509   3.717   0.324   4.232 -2.0205 -0.7523  1.3742
 6698TIP3    H241510   3.719   0.218   4.340  1.3317 -0.8024  1.3601
 6699TIP3   OH241511   3.753   6.036  16.113  0.7071  0.3873 -0.0932
 6699TIP3    H141512   3.701   6.070  16.186  0.2558  0.3072 -0.3712
 6699TIP3    H241513   3.843   6.054  16.137  0.5307  0.8692  0.2298
 6700TIP3   OH241514   6.624   2.753   1.937  0.1438 -0.0225  0.2238
 6700TIP3    H141515   6.660   2.670   1.905  2.6642  1.0169  0.0632
 6700TIP3    H241516   6.633   2.748   2.032  0.6455  0.1908  0.1910
 6701TIP3   OH241517   3.811   3.275   3.550  0.2234  0.2841  0.4981
 6701TIP3    H141518   3.844   3.339   3.487  1.0067 -2.7236 -2.4372
 6701TIP3    H241519   3.887   3.222   3.572 -0.9382 -1.5218  0.3622
 6702TIP3   OH241520   1.034   2.008   1.412  0.1524 -0.4891 -0.2709
 6702TIP3    H141521   1.028   2.011   1.317  1.5496 -0.2325 -0.3749
 6702TIP3    H241522   0.944   2.020   1.442  0.0096  2.4694 -1.5128
 6703TIP3   OH241523   2.897   5.519   3.798  0.0369 -0.5012  0.3985
 6703TIP3    H141524   2.901   5.589   3.863  0.5363  3.3610 -3.3216
 6703TIP3    H241525   2.984   5.480   3.799  0.3828  0.2567  1.3051
 6704TIP3   OH241526   3.766   4.155  15.453 -0.4493 -0.0172 -0.7578
 6704TIP3    H141527   3.825   4.113  15.515 -1.6342  2.6933  2.5087
 6704TIP3    H241528   3.819   4.223  15.412 -0.1619 -0.5863 -1.3534
 6705TIP3   OH241529   4.730   5.956  15.481 -0.4970 -0.1431 -0.0323
 6705TIP3    H141530   4.793   5.905  15.430 -0.6591 -0.6246  0.2369
 6705TIP3    H241531   4.732   5.916  15.568 -0.4365  0.4815  0.2546
 6706TIP3   OH241532   1.164   1.093   3.727 -0.6167 -0.1645  0.1121
 6706TIP3    H141533   1.203   1.169   3.683  1.5521 -0.9454  0.5766
 6706TIP3    H241534   1.151   1.122   3.817 -1.3470  0.1799 -0.1032
 6707TIP3   OH241535   0.874   1.228   1.186 -0.2389 -0.0942  0.2773
 6707TIP3    H141536   0.922   1.233   1.103  2.6087 -0.2567  1.7995
 6707TIP3    H241537   0.842   1.317   1.201 -0.1926  0.0866 -0.6447
 6708TIP3   OH241538   3.729   3.098  10.326  0.9105  0.3913  0.3323
 6708TIP3    H141539   3.635   3.110  10.335  0.6984 -0.0022 -1.0500
 6708TIP3    H241540   3.768   3.168  10.378 -0.1555  0.9561  0.3928
 6709TIP3   OH241541   2.536   0.978  15.759 -0.6838  0.0146 -0.1923
 6709TIP3    H141542   2.603   1.011  15.820 -0.1613  1.4358 -1.4657
 6709TIP3    H241543   2.453   0.999  15.801 -0.4329 -2.4184  1.7556
 6710TIP3   OH241544   0.104   2.715  11.752 -0.2289 -0.4901  0.1771
 6710TIP3    H141545   0.200   2.709  11.743 -0.1869  0.1931  0.0949
 6710TIP3    H241546   0.090   2.798  11.798 -0.8666  0.4743 -1.6633
 6711TIP3   OH241547   4.150   0.985  10.832  0.1369 -0.1440 -0.0991
 6711TIP3    H141548   4.067   1.012  10.870  0.2902  0.6951 -0.3489
 6711TIP3    H241549   4.130   0.903  10.785 -0.0074 -1.3093  1.8970
 6712TIP3   OH241550   5.256   0.038  12.096  0.3420  0.5737 -0.3911
 6712TIP3    H141551   5.352   0.045  12.096  0.2666  2.7556  1.1843
 6712TIP3    H241552   5.226   0.110  12.041 -0.3533  2.2541  1.9881
 6713TIP3   OH241553   4.124   1.734   0.342  0.1767  0.5159 -0.0313
 6713TIP3    H141554   4.164   1.651   0.368 -1.6441  0.1179  1.7577
 6713TIP3    H241555   4.096   1.720   0.252  2.6173  0.2973 -0.8051
 6714TIP3   OH241556   1.640   0.967   2.868 -0.1303 -0.5203  0.1452
 6714TIP3    H141557   1.630   0.997   2.958  1.8791 -0.3598  0.3725
 6714TIP3    H241558   1.644   1.047   2.816 -0.1419 -0.5742  0.0610
 6715TIP3   OH241559   1.368   3.483   6.061  0.0450  0.3245  0.2728
 6715TIP3    H141560   1.357   3.576   6.042 -1.9426 -0.1573 -1.1817
 6715TIP3    H241561   1.362   3.440   5.976 -1.4046 -1.3029  1.1529
 6716TIP3   OH241562   3.761   1.620  13.904 -0.0925 -0.2874 -0.4370
 6716TIP3    H141563   3.712   1.683  13.957 -0.2388 -0.7437 -0.0190
 6716TIP3    H241564   3.784   1.668  13.824  0.0324  0.3761 -0.0131
 6717TIP3   OH241565   4.341   1.436  13.301 -0.2262 -0.1857 -0.1016
 6717TIP3    H141566   4.425   1.482  13.301 -0.7167  0.7542  0.6597
 6717TIP3    H241567   4.352   1.365  13.364 -0.0390  0.0305  0.1115
 6718TIP3   OH241568   4.198   2.447  13.900 -0.9611 -0.3510 -0.5352
 6718TIP3    H141569   4.275   2.500  13.879 -0.0731 -1.9400 -1.4936
 6718TIP3    H241570   4.199   2.440  13.996 -0.3898  0.3131 -0.4879
 6719TIP3   OH241571   2.393   2.791   4.066 -0.6704  0.5290  0.0461
 6719TIP3    H141572   2.447   2.869   4.079  0.3464  0.1696 -1.8196
 6719TIP3    H241573   2.444   2.720   4.104 -0.4474  0.3950 -0.5032
 6720TIP3   OH241574   0.076   4.417  11.135  0.8780 -0.0937  0.3548
 6720TIP3    H141575   0.142   4.385  11.073  1.8195  2.3903 -0.0232
 6720TIP3    H241576  -0.006   4.417  11.085  1.5551  1.5087 -0.8274
 6721TIP3   OH241577   0.820   3.632   5.275 -0.0432  0.2461 -0.0181
 6721TIP3    H141578   0.860   3.609   5.190 -0.0821 -1.7055  0.4283
 6721TIP3    H241579   0.741   3.680   5.252  0.6153  0.8997 -1.0353
 6722TIP3   OH241580   3.249   3.414  14.719  0.1636 -0.3866 -0.6214
 6722TIP3    H141581   3.268   3.324  14.743  0.0152 -0.2697 -0.0528
 6722TIP3    H241582   3.331   3.446  14.679  0.9788 -0.1055  1.1782
 6723TIP3   OH241583   4.707   1.428  15.513 -0.0174  0.3005  0.1379
 6723TIP3    H141584   4.753   1.367  15.571  1.1619  1.4697  0.4980
 6723TIP3    H241585   4.685   1.377  15.436 -0.0532 -0.8502  0.8864
 6724TIP3   OH241586   0.853   1.482  10.886  0.2846  0.2819  0.3339
 6724TIP3    H141587   0.939   1.441  10.881  0.5574  0.9145 -0.3069
 6724TIP3    H241588   0.850   1.541  10.811 -0.8853 -0.0649  0.0804
 6725TIP3   OH241589   4.548   0.298  14.361  0.0192 -0.9178 -0.1349
 6725TIP3    H141590   4.467   0.273  14.406 -1.8801  2.0568 -1.5590
 6725TIP3    H241591   4.533   0.274  14.269 -0.0961  1.2477 -0.7369
 6726TIP3   OH241592   6.368   4.118   0.128 -0.4748 -0.3181 -0.4387
 6726TIP3    H141593   6.339   4.159   0.047  2.8922 -1.0430 -2.1983
 6726TIP3    H241594   6.391   4.029   0.103  2.1838 -0.1029  0.8642
 6727TIP3   OH241595   0.190   4.969  12.828  0.2365 -0.0932 -0.3698
 6727TIP3    H141596   0.118   4.978  12.765  0.4941  1.0878 -0.5189
 6727TIP3    H241597   0.269   4.979  12.776  0.5726 -2.0456 -0.3151
 6728TIP3   OH241598   6.310   2.748   5.682  0.7231  0.3427  0.5618
 6728TIP3    H141599   6.363   2.725   5.606 -1.1417 -0.2747 -0.6089
 6728TIP3    H241600   6.285   2.839   5.667  1.2521  0.5644  1.0015
 6729TIP3   OH241601   4.235   5.685   5.122 -0.2975 -0.1318  0.4344
 6729TIP3    H141602   4.165   5.662   5.183  0.2553  0.4441  1.3099
 6729TIP3    H241603   4.277   5.601   5.101  0.1621 -0.2335  1.6726
 6730TIP3   OH241604   6.559   4.134   0.336 -0.3139 -0.5751 -0.4723
 6730TIP3    H141605   6.629   4.130   0.272 -0.3195 -1.4628 -0.4361
 6730TIP3    H241606   6.479   4.116   0.286 -0.3809 -0.7127 -0.3192
 6731TIP3   OH241607   5.678   2.562  11.215 -0.1309  0.1536 -0.5970
 6731TIP3    H141608   5.681   2.473  11.180  1.1339  0.1604 -0.5245
 6731TIP3    H241609   5.752   2.607  11.175  0.7424  0.4601  1.2583
 6732TIP3   OH241610   2.393   5.266  15.831 -0.1695  0.8951 -0.6211
 6732TIP3    H141611   2.327   5.220  15.884 -0.1848  0.9305 -0.6093
 6732TIP3    H241612   2.347   5.286  15.749 -0.2939  1.2735 -0.4566
 6733TIP3   OH241613   2.142   6.684   0.233  0.0703  0.4997 -0.1096
 6733TIP3    H141614   2.142   6.692   0.138 -1.3805  0.9229 -0.1052
 6733TIP3    H241615   2.232   6.660   0.256 -0.0502 -1.6819 -1.7280
 6734TIP3   OH241616   6.723   3.000  10.993  0.3430  0.1385 -0.0700
 6734TIP3    H141617   6.768   2.920  11.022  2.4378  1.5041  0.6931
 6734TIP3    H241618   6.736   3.002  10.898  0.1616 -0.4799 -0.1118
 6735TIP3   OH241619   5.971   4.362  15.183 -0.6097  0.2021  0.2008
 6735TIP3    H141620   5.982   4.409  15.267 -1.9129 -2.4078  1.9622
 6735TIP3    H241621   5.880   4.334  15.183 -0.8271  0.6475 -2.4778
 6736TIP3   OH241622   6.699   0.824   4.492 -0.3273  0.1605 -0.0264
 6736TIP3    H141623   6.683   0.833   4.398  0.5216 -1.5986 -0.3784
 6736TIP3    H241624   6.708   0.730   4.506  0.8737  0.4732  1.5935
 6737TIP3   OH241625   3.255   1.306   2.820  0.2161 -0.5958 -0.0738
 6737TIP3    H141626   3.167   1.288   2.789  0.0481  1.4844 -0.9325
 6737TIP3    H241627   3.252   1.286   2.914 -1.8523  1.5635  0.3966
 6738TIP3   OH241628   6.680   5.039  14.429  0.2177  0.1895 -0.0026
 6738TIP3    H141629   6.702   4.997  14.513 -1.3994 -0.5101  0.1169
 6738TIP3    H241630   6.712   4.979  14.363  0.6211  0.2613  0.1251
 6739TIP3   OH241631   3.539   1.375   0.111 -0.4361  0.8024 -0.0150
 6739TIP3    H141632   3.497   1.303   0.063 -2.6227  0.9485  1.5196
 6739TIP3    H241633   3.480   1.449   0.101  1.5747  2.3430 -1.2091
 6740TIP3   OH241634   4.919   6.000  12.622  0.5069  0.0227  0.4826
 6740TIP3    H141635   4.940   6.024  12.712  0.7317  0.8903  0.2033
 6740TIP3    H241636   4.861   5.924  12.631  1.7131 -0.8360  1.3272
 6741TIP3   OH241637   2.504   4.918  15.187 -0.1063 -0.1207 -1.2379
 6741TIP3    H141638   2.492   4.832  15.147 -1.0684  0.7124 -2.8487
 6741TIP3    H241639   2.534   4.899  15.276  1.2515 -2.0772 -2.0403
 6742TIP3   OH241640   0.810   1.998  14.626 -0.0064  0.0412 -0.3091
 6742TIP3    H141641   0.795   1.938  14.553 -0.7394 -0.5428  0.3165
 6742TIP3    H241642   0.865   1.948  14.687  0.1093  0.3197 -0.1829
 6743TIP3   OH241643   6.676   0.769   1.152  0.0655 -0.0217 -0.0745
 6743TIP3    H141644   6.636   0.682   1.159 -1.6860  0.6598 -0.8372
 6743TIP3    H241645   6.601   0.829   1.146  1.2227  1.5983  0.8924
 6744TIP3   OH241646   1.493   2.006   4.184 -0.3501  0.1994 -0.5011
 6744TIP3    H141647   1.457   2.063   4.116 -1.7757  0.1823  0.2064
 6744TIP3    H241648   1.417   1.978   4.234  0.6540  0.1430  1.0531
 6745TIP3   OH241649   6.371   5.916   4.642  0.0247  0.2050 -0.0916
 6745TIP3    H141650   6.409   6.000   4.619  1.6835 -0.8999 -1.6127
 6745TIP3    H241651   6.281   5.937   4.669  0.8526  2.5960  1.0970
 6746TIP3   OH241652   3.342   4.253  15.970  0.2859 -0.1044 -0.0471
 6746TIP3    H141653   3.328   4.216  15.883 -0.3552 -1.1071  0.4516
 6746TIP3    H241654   3.255   4.254  16.010  0.3004  1.8208  0.0461
 6747TIP3   OH241655   4.709   3.199  15.687 -0.1511 -0.3499 -0.0314
 6747TIP3    H141656   4.740   3.139  15.756 -1.7834  0.0194  1.0919
 6747TIP3    H241657   4.746   3.284  15.711  0.2915 -0.4594 -0.3204
 6748TIP3   OH241658   1.154   2.382  15.992 -0.2180  0.6120  0.2964
 6748TIP3    H141659   1.177   2.374  16.085 -3.1677  0.4600  1.1160
 6748TIP3    H241660   1.146   2.291  15.962 -2.2737  0.5665  0.8135
 6749TIP3   OH241661   0.871   3.227  13.595  0.2505 -0.4028 -1.0743
 6749TIP3    H141662   0.899   3.319  13.594 -1.8320  0.3469  0.8221
 6749TIP3    H241663   0.949   3.178  13.621  0.9488  1.0635 -0.2870
 6750TIP3   OH241664   2.864   0.641   0.694  0.1161  0.1609  0.1199
 6750TIP3    H141665   2.877   0.709   0.760 -1.7866  0.3600  0.3443
 6750TIP3    H241666   2.903   0.677   0.614 -0.7556  1.5128  0.2587
 6751TIP3   OH241667   4.175   0.175   4.473 -0.5518 -0.1265  0.0507
 6751TIP3    H141668   4.115   0.102   4.457  2.2271 -3.1740  2.2433
 6751TIP3    H241669   4.252   0.155   4.420  1.5088 -0.6375  3.0188
 6752TIP3   OH241670   2.322   2.708  16.300  0.1043  0.3028  0.2976
 6752TIP3    H141671   2.334   2.767  16.225 -2.6398  0.7523  0.0848
 6752TIP3    H241672   2.317   2.766  16.376  1.4330 -0.0386  0.6695
 6753TIP3   OH241673   6.058   0.868  14.860 -0.1989 -0.2136 -0.4696
 6753TIP3    H141674   5.994   0.891  14.793 -0.3012  0.3154 -0.1937
 6753TIP3    H241675   6.051   0.937  14.926  1.6374  0.6856 -1.1220
 6754TIP3   OH241676   4.857   3.535   1.029  0.4474 -0.0022  0.3634
 6754TIP3    H141677   4.912   3.594   0.977  1.5161 -1.8931 -0.7852
 6754TIP3    H241678   4.802   3.491   0.964  0.6401 -1.2324  1.0068
 6755TIP3   OH241679   4.426   1.504   4.907 -0.2913  0.2596  0.0587
 6755TIP3    H141680   4.453   1.558   4.832 -1.8324  0.0806 -0.6779
 6755TIP3    H241681   4.384   1.428   4.867  0.5504 -0.7980  1.1083
 6756TIP3   OH241682   4.486   6.324  10.390  0.4808  0.0497 -0.0182
 6756TIP3    H141683   4.574   6.362  10.391  1.2318 -1.6261  0.3199
 6756TIP3    H241684   4.500   6.231  10.375 -0.8848 -1.0543  4.1359
 6757TIP3   OH241685   5.188   4.919  13.499 -0.0601  0.6549 -0.4697
 6757TIP3    H141686   5.241   4.980  13.449 -1.1241  1.1755 -0.9866
 6757TIP3    H241687   5.131   4.878  13.435 -1.5949  1.4917  0.3132
 6758TIP3   OH241688   1.750   6.659  13.153  0.0845  0.3526 -0.5216
 6758TIP3    H141689   1.686   6.669  13.224  0.0378  0.5281 -0.5881
 6758TIP3    H241690   1.780   6.748  13.135  1.0142  0.1785  0.1105
 6759TIP3   OH241691   3.677   5.470   5.595  0.0341  0.5138 -0.2655
 6759TIP3    H141692   3.667   5.459   5.690 -1.6209 -2.2195 -0.6643
 6759TIP3    H241693   3.592   5.502   5.565 -0.2493 -0.9278 -1.0755
 6760TIP3   OH241694   2.449   1.729   1.228 -0.4688 -0.4291 -1.0207
 6760TIP3    H141695   2.457   1.705   1.136  2.4240 -1.7493 -0.5250
 6760TIP3    H241696   2.535   1.763   1.252 -0.8478 -0.9940  1.4413
 6761TIP3   OH241697   4.991   2.280   0.711 -0.0565  0.0638 -0.2057
 6761TIP3    H141698   4.957   2.350   0.654  0.5625  1.0823  0.6299
 6761TIP3    H241699   4.919   2.262   0.771 -0.2965 -0.1771 -0.5612
 6762TIP3   OH241700   5.343   4.402   4.975  0.1579 -0.4878  0.7928
 6762TIP3    H141701   5.255   4.367   4.988  0.5772 -1.9408 -0.0598
 6762TIP3    H241702   5.329   4.490   4.939 -1.0178 -1.6399 -1.8249
 6763TIP3   OH241703   6.596   5.004   0.704  0.2553  0.4506 -0.2530
 6763TIP3    H141704   6.500   5.007   0.701  0.1749 -0.4927  0.8211
 6763TIP3    H241705   6.617   5.013   0.797  1.3059  2.3854 -0.6281
 6764TIP3   OH241706   3.381   6.695  11.499  0.1291 -0.0203  0.5978
 6764TIP3    H141707   3.354   6.609  11.465  0.2628 -0.9204  2.6442
 6764TIP3    H241708   3.447   6.675  11.565  0.9637  1.7498  0.3548
 6765TIP3   OH241709   2.410   5.534  12.424 -0.2517 -0.4445 -0.3652
 6765TIP3    H141710   2.364   5.535  12.507 -0.5875 -1.4335 -0.5228
 6765TIP3    H241711   2.341   5.536  12.358  0.0140  0.4294 -0.6318
 6766TIP3   OH241712   1.953   4.014  10.645  0.3168 -0.5863 -0.6751
 6766TIP3    H141713   1.893   4.086  10.626 -0.4010 -0.8709  0.4540
 6766TIP3    H241714   1.897   3.936  10.649  0.8029 -0.9131  0.0263
 6767TIP3   OH241715   2.492   0.965  11.567 -0.1741  0.2180  0.3466
 6767TIP3    H141716   2.558   0.992  11.504  0.4689 -1.1498  0.4033
 6767TIP3    H241717   2.537   0.903  11.624 -2.2559 -3.3985 -1.6291
 6768TIP3   OH241718   1.121   3.120  17.011 -0.3789  0.1673 -0.0019
 6768TIP3    H141719   1.058   3.114  16.940 -1.4357  0.5352  0.8808
 6768TIP3    H241720   1.085   3.187  17.069  0.2069 -0.4743  1.1249
 6769TIP3   OH241721   0.483   1.386   0.931  0.1675  0.2199  0.0350
 6769TIP3    H141722   0.463   1.299   0.896 -0.6416 -0.5983  2.3693
 6769TIP3    H241723   0.412   1.441   0.900 -0.6689 -0.5397  0.5688
 6770TIP3   OH241724   4.274   3.486   5.605 -0.3701 -0.9089  0.1936
 6770TIP3    H141725   4.346   3.519   5.658 -0.1825  1.3154 -1.2929
 6770TIP3    H241726   4.208   3.457   5.668  1.0103 -1.1697  1.5764
 6771TIP3   OH241727   1.958   1.426  15.967  0.3093  0.5770 -0.3785
 6771TIP3    H141728   2.006   1.388  16.041  0.2601  1.3427  0.0601
 6771TIP3    H241729   1.897   1.488  16.007  1.3430  2.1508 -1.1373
 6772TIP3   OH241730   6.401   3.787   0.118  0.2982  0.6529 -0.3940
 6772TIP3    H141731   6.313   3.753   0.099  0.0825  0.3922  0.9426
 6772TIP3    H241732   6.441   3.720   0.173  0.6514  1.6076  0.5421
 6773TIP3   OH241733   3.255   5.442   0.158  0.5507  0.0175  0.1230
 6773TIP3    H141734   3.290   5.530   0.148 -0.5770  0.4606 -0.0135
 6773TIP3    H241735   3.171   5.444   0.112 -0.0961 -0.7553  1.2410
 6774TIP3   OH241736   5.974   1.357   1.676  0.0700 -0.0120  0.3617
 6774TIP3    H141737   6.015   1.366   1.762  1.3841 -0.0486 -0.2371
 6774TIP3    H241738   5.911   1.285   1.686 -0.1900  0.3477  1.4176
 6775TIP3   OH241739   1.183   4.341   3.439  0.7118 -0.0485  0.6003
 6775TIP3    H141740   1.169   4.346   3.345  4.0592  2.3651  0.0678
 6775TIP3    H241741   1.139   4.418   3.475 -1.7702 -1.6817  1.3624
 6776TIP3   OH241742   0.193   2.756   3.415  0.0994  0.0053  0.6242
 6776TIP3    H141743   0.238   2.841   3.422 -0.7368  0.6859 -1.4417
 6776TIP3    H241744   0.213   2.725   3.327  0.5680 -2.1006  1.4147
 6777TIP3   OH241745   1.885   1.258  13.924  0.2659 -0.6228  0.3252
 6777TIP3    H141746   1.817   1.319  13.896  2.1445  0.4211 -2.5090
 6777TIP3    H241747   1.939   1.308  13.986  0.7996  0.0539 -0.6564
 6778TIP3   OH241748   2.678   5.209  11.290  0.1512 -0.0684 -0.1651
 6778TIP3    H141749   2.604   5.270  11.290 -0.8253 -1.1890  1.1196
 6778TIP3    H241750   2.708   5.206  11.381 -0.3832 -2.0848  0.0088
 6779TIP3   OH241751   4.255   3.429   5.111 -0.2758  0.5506  1.0811
 6779TIP3    H141752   4.290   3.374   5.181  0.2664 -1.2412 -0.4972
 6779TIP3    H241753   4.324   3.493   5.094 -0.1856  0.6515  1.7818
 6780TIP3   OH241754   5.822   3.722   4.957  0.0080 -0.0853 -0.3738
 6780TIP3    H141755   5.914   3.732   4.979  0.4841 -1.8873 -1.3051
 6780TIP3    H241756   5.808   3.782   4.884  1.0473 -1.3198 -1.6493
 6781TIP3   OH241757   4.163   6.544  16.237 -0.5818 -0.4941 -0.5391
 6781TIP3    H141758   4.193   6.571  16.323 -0.4266  0.7119 -0.9464
 6781TIP3    H241759   4.067   6.551  16.241 -0.7050 -2.1975  0.0774
 6782TIP3   OH241760   1.705   3.937   2.955  0.3844  0.3402  0.1164
 6782TIP3    H141761   1.649   3.944   2.878  2.5024 -0.2422 -1.5731
 6782TIP3    H241762   1.708   4.025   2.991 -2.4319  0.1916  0.9522
 6783TIP3   OH241763   0.069   2.614  13.691  0.2980 -0.0920  0.0400
 6783TIP3    H141764   0.110   2.692  13.652  0.5760 -0.2438  0.0263
 6783TIP3    H241765   0.142   2.561  13.721  0.0985 -0.1885  0.3666
 6784TIP3   OH241766   3.551   2.540  16.440 -0.1454  0.0105 -0.4104
 6784TIP3    H141767   3.642   2.535  16.469 -0.5093 -0.3208  0.7117
 6784TIP3    H241768   3.502   2.495  16.508 -1.0420 -0.7751 -1.5523
 6785TIP3   OH241769   4.478   0.125   3.401  0.2437  0.0454  0.2082
 6785TIP3    H141770   4.414   0.187   3.434  0.6328 -0.1843  1.4681
 6785TIP3    H241771   4.539   0.113   3.474  0.2663 -1.6814 -0.0462
 6786TIP3   OH241772   6.534   2.019  11.754 -0.1169  0.3743  0.5834
 6786TIP3    H141773   6.568   1.975  11.676 -0.6783 -1.5994  1.3719
 6786TIP3    H241774   6.600   2.001  11.821 -0.5206  0.4617  1.0003
 6787TIP3   OH241775   0.978   0.052   5.709 -0.5713  0.1414 -0.0492
 6787TIP3    H141776   0.946   0.079   5.623  0.5410  1.8957  0.0536
 6787TIP3    H241777   0.968   0.129   5.765 -0.2121 -0.6165  1.1156
 6788TIP3   OH241778   3.963   1.743   3.876  0.5490  1.1163 -0.7875
 6788TIP3    H141779   3.893   1.685   3.905 -0.5111  0.9573 -3.3983
 6788TIP3    H241780   4.037   1.724   3.934 -0.8832 -0.2798  0.6395
 6789TIP3   OH241781   6.513   1.093  16.703 -0.5631  0.1407  0.1824
 6789TIP3    H141782   6.534   1.019  16.760  1.6813 -0.0936 -0.8334
 6789TIP3    H241783   6.483   1.053  16.621 -0.9766  0.3913  0.2109
 6790TIP3   OH241784   1.415   4.263   3.527  0.0991  0.5394 -0.1863
 6790TIP3    H141785   1.341   4.289   3.472 -0.5327 -0.5447  0.1158
 6790TIP3    H241786   1.487   4.318   3.498 -0.6064  1.0277 -1.0750
 6791TIP3   OH241787   2.415   0.672   4.940 -0.6444 -0.0812 -0.5554
 6791TIP3    H141788   2.459   0.588   4.954 -0.0194  0.3872  0.4522
 6791TIP3    H241789   2.340   0.651   4.884 -2.0973 -1.8090  1.8443
 6792TIP3   OH241790   6.158   1.390   2.753  0.3255 -0.1351 -0.5240
 6792TIP3    H141791   6.200   1.459   2.702  0.3744 -0.0642 -0.3893
 6792TIP3    H241792   6.089   1.356   2.696 -1.6916  2.0434  0.4647
 6793TIP3   OH241793   2.108   5.455  13.087  0.3015 -0.1254  0.4605
 6793TIP3    H141794   2.032   5.427  13.036  0.8351 -1.9869  0.5987
 6793TIP3    H241795   2.104   5.550  13.086 -1.9915 -0.1611  0.4198
 6794TIP3   OH241796   6.012   0.992  14.368  0.3423  0.6290 -0.4270
 6794TIP3    H141797   6.088   0.989  14.309  1.4081 -1.1976  0.9190
 6794TIP3    H241798   5.959   0.916  14.342 -0.7132  1.5268 -0.9403
 6795TIP3   OH241799   2.919   3.630  11.535  0.4640 -0.5530 -0.5383
 6795TIP3    H141800   3.011   3.642  11.512  0.7619 -1.3629  0.2033
 6795TIP3    H241801   2.918   3.624  11.630 -0.5348  0.8404 -0.4319
 6796TIP3   OH241802   1.736   4.643  14.723 -0.3381 -0.4230 -0.1470
 6796TIP3    H141803   1.782   4.582  14.781  0.6711  0.3103 -0.1494
 6796TIP3    H241804   1.710   4.715  14.780 -0.9336 -0.5272 -0.2762
 6797TIP3   OH241805   4.011   2.470   0.644 -0.2472 -0.2828 -0.3272
 6797TIP3    H141806   3.918   2.482   0.666 -0.3843 -0.4539 -0.7846
 6797TIP3    H241807   4.056   2.472   0.728 -0.5638  0.7028 -0.1760
 6798TIP3   OH241808   2.758   3.530  11.311 -0.2477  0.2960  0.2292
 6798TIP3    H141809   2.787   3.583  11.386 -1.0475  0.1916  0.6247
 6798TIP3    H241810   2.832   3.473  11.292  0.1673  0.7022  0.5915
 6799TIP3   OH241811   3.191   2.784   1.382  0.1639 -0.0219  0.0482
 6799TIP3    H141812   3.220   2.712   1.439  1.9832 -0.0639 -0.8621
 6799TIP3    H241813   3.110   2.753   1.344  0.2325 -1.0460  0.6865
 6800TIP3   OH241814   5.603   1.531   6.062  0.4481 -0.4207  0.2234
 6800TIP3    H141815   5.620   1.462   5.999  4.3678  0.4347  0.1145
 6800TIP3    H241816   5.648   1.504   6.141  2.6557  2.1339 -0.0146
 6801TIP3   OH241817   2.515   3.789  11.574  0.4868  0.2803  0.0498
 6801TIP3    H141818   2.464   3.846  11.518 -0.2897  0.8146  1.2627
 6801TIP3    H241819   2.606   3.806  11.549  0.2999  2.2960  0.5897
 6802TIP3   OH241820   6.320   3.116   4.891  0.7054  0.4261 -0.1214
 6802TIP3    H141821   6.236   3.096   4.931  0.5520  0.3283 -0.4919
 6802TIP3    H241822   6.385   3.074   4.949  0.5649  1.2303  0.6469
 6803TIP3   OH241823   4.627   0.502   1.623 -0.7669  0.2071  0.0063
 6803TIP3    H141824   4.592   0.480   1.710 -0.6171 -1.2473 -0.2796
 6803TIP3    H241825   4.644   0.596   1.628 -2.2324  0.4535  1.0246
 6804TIP3   OH241826   1.870   0.901   2.439 -0.0040  0.4089 -0.0679
 6804TIP3    H141827   1.909   0.840   2.377 -1.3412 -0.8236  0.2262
 6804TIP3    H241828   1.776   0.883   2.434 -0.2232  0.8527  1.7020
 6805TIP3   OH241829   2.127   1.409   6.539 -0.5075  0.2809  0.3762
 6805TIP3    H141830   2.219   1.386   6.537 -0.1804  1.4720 -2.5035
 6805TIP3    H241831   2.081   1.327   6.519  0.2315  0.4799 -2.4906
 6806TIP3   OH241832   1.209   0.855  15.927 -0.2319  0.0397 -0.0420
 6806TIP3    H141833   1.225   0.883  15.837  0.4336  1.9380  0.6170
 6806TIP3    H241834   1.282   0.797  15.948 -0.8985 -1.2063 -0.9880
 6807TIP3   OH241835   1.318   0.926  14.763  0.4929 -0.2348 -0.7038
 6807TIP3    H141836   1.333   0.834  14.741  2.4365 -0.0892 -0.1399
 6807TIP3    H241837   1.287   0.924  14.853 -0.6881 -0.3881 -1.0960
 6808TIP3   OH241838   4.216   1.082  11.578 -0.2266 -0.1617  0.1459
 6808TIP3    H141839   4.209   1.018  11.649 -1.1784  0.5557  0.7262
 6808TIP3    H241840   4.309   1.083  11.556  0.1176 -0.2684  1.5069
 6809TIP3   OH241841   5.669   6.373  13.490  0.0328 -0.1287 -0.0635
 6809TIP3    H141842   5.653   6.466  13.473  0.5745 -0.0927 -0.3987
 6809TIP3    H241843   5.602   6.349  13.554 -0.7779  0.2318 -0.7557
 6810TIP3   OH241844   6.079   4.488   3.649  0.9922  0.1969 -0.1518
 6810TIP3    H141845   6.149   4.486   3.715  0.1040 -1.0626  0.7949
 6810TIP3    H241846   6.119   4.531   3.573  2.4822  0.4024  0.7120
 6811TIP3   OH241847   1.440   5.215  12.881  0.9817 -1.0781  0.0954
 6811TIP3    H141848   1.425   5.296  12.832  1.6660 -0.9205  0.1311
 6811TIP3    H241849   1.445   5.146  12.815  0.0046 -1.1601  0.0918
 6812TIP3   OH241850   5.186   1.014   6.418  0.5658 -0.0323 -0.1260
 6812TIP3    H141851   5.237   1.051   6.490  2.9612  1.3151 -2.3431
 6812TIP3    H241852   5.174   1.086   6.357 -2.2213 -0.8845 -0.7396
 6813TIP3   OH241853   5.785   6.764   3.504 -0.5465  0.0809 -0.1991
 6813TIP3    H141854   5.749   6.768   3.416  0.3619  1.2744 -0.5444
 6813TIP3    H241855   5.868   6.812   3.498 -0.7632  0.7262  1.4418
 6814TIP3   OH241856   2.351   6.191  15.074  0.8087  0.8122  0.3880
 6814TIP3    H141857   2.285   6.246  15.030 -1.0341 -1.3740  0.2435
 6814TIP3    H241858   2.354   6.111  15.022  1.0112 -0.5231  2.3415
 6815TIP3   OH241859   5.952   4.179   1.664  0.4618 -0.0436 -0.6417
 6815TIP3    H141860   5.908   4.099   1.634  0.2223  0.2483 -1.0817
 6815TIP3    H241861   5.881   4.239   1.684  0.5260 -0.7983  2.2452
 6816TIP3   OH241862   4.651   0.588   5.959 -0.0980 -0.5546 -0.1877
 6816TIP3    H141863   4.745   0.605   5.953 -0.6603  3.3683 -0.4048
 6816TIP3    H241864   4.626   0.624   6.044 -1.6309 -0.1218 -0.7960
 6817TIP3   OH241865   2.863   2.046  15.122 -0.5731  0.2509 -0.0921
 6817TIP3    H141866   2.768   2.036  15.116 -0.5853  0.7308 -0.7215
 6817TIP3    H241867   2.878   2.077  15.212 -1.1015  1.1134 -0.2912
 6818TIP3   OH241868   6.652   5.503   3.663 -0.4631 -0.1970 -0.3821
 6818TIP3    H141869   6.690   5.441   3.726 -2.2168  0.5208  1.5273
 6818TIP3    H241870   6.671   5.589   3.700  0.0640  0.3439 -1.8550
 6819TIP3   OH241871   5.291   0.794  14.694 -0.5606  0.1776 -0.4392
 6819TIP3    H141872   5.325   0.706  14.712  0.4517  0.9023  1.3725
 6819TIP3    H241873   5.334   0.820  14.613  0.6798 -0.2163  0.0816
 6820TIP3   OH241874   3.455   2.251   4.526 -0.1562 -0.1104  0.3846
 6820TIP3    H141875   3.379   2.309   4.517 -1.4518 -2.0255 -2.1605
 6820TIP3    H241876   3.478   2.257   4.619 -2.2319  1.9448  0.8785
 6821TIP3   OH241877   2.023   4.586   0.307 -0.4020 -0.1148  0.8066
 6821TIP3    H141878   1.929   4.570   0.319 -0.4414 -2.0679 -1.5274
 6821TIP3    H241879   2.064   4.501   0.322  0.4276 -0.4650 -2.6137
 6822TIP3   OH241880   6.366   2.745   2.653  0.2589  0.3736  0.3259
 6822TIP3    H141881   6.276   2.777   2.655  0.4039  1.0024 -1.6422
 6822TIP3    H241882   6.399   2.761   2.741 -1.2455  1.0228  0.8016
 6823TIP3   OH241883   5.028   3.507  12.996  0.0312  0.2906  0.3232
 6823TIP3    H141884   5.014   3.437  12.932  0.7506  2.1524 -1.9783
 6823TIP3    H241885   4.945   3.512  13.044 -0.2524 -1.6749  0.1519
 6824TIP3   OH241886   3.205   1.031   3.993  0.0346 -0.2117 -0.1892
 6824TIP3    H141887   3.228   0.957   3.937  0.7638  0.5258 -0.8863
 6824TIP3    H241888   3.110   1.026   4.002 -0.0177 -0.7041 -0.9779
 6825TIP3   OH241889   5.511   2.004  10.723 -0.5793 -0.4009 -0.4998
 6825TIP3    H141890   5.465   1.972  10.800  1.4425 -0.9431  0.5710
 6825TIP3    H241891   5.595   1.957  10.724 -0.7539 -0.9693 -3.4535
 6826TIP3   OH241892   2.451   6.788   2.334  0.0745 -0.2800 -0.4539
 6826TIP3    H141893   2.510   6.717   2.358 -0.1471 -0.9120 -1.6707
 6826TIP3    H241894   2.482   6.863   2.383 -0.8746 -1.6445  2.4281
 6827TIP3   OH241895   2.960   5.644  16.929  0.0378  0.0758  0.5357
 6827TIP3    H141896   2.995   5.571  16.979  1.0401 -0.1523 -0.4589
 6827TIP3    H241897   2.963   5.718  16.989  0.1827 -0.4266  1.1543
 6828TIP3   OH241898   2.211   4.760   0.119 -0.4737 -0.2269 -0.7641
 6828TIP3    H141899   2.178   4.717   0.040 -1.4343 -0.3674 -0.2934
 6828TIP3    H241900   2.137   4.760   0.180 -0.0497  0.7870 -0.2228
 6829TIP3   OH241901   4.320   6.677  16.038  0.4055  0.1238  0.4671
 6829TIP3    H141902   4.393   6.716  16.087  0.1387 -0.2234  1.1545
 6829TIP3    H241903   4.266   6.635  16.105 -0.0459 -0.2366 -0.1158
 6830TIP3   OH241904   0.808   0.806   0.381  0.0360  0.8312  0.0674
 6830TIP3    H141905   0.856   0.839   0.304  1.6923  0.1031  0.7451
 6830TIP3    H241906   0.745   0.875   0.401 -1.2441  0.5789 -2.5990
 6831TIP3   OH241907   3.574   3.778  11.750 -0.5577 -0.5465  0.1526
 6831TIP3    H141908   3.635   3.722  11.798 -1.3471 -1.1738  0.4483
 6831TIP3    H241909   3.532   3.831  11.817 -0.6912 -0.4696  0.0075
 6832TIP3   OH241910   5.776   5.091  15.913 -0.1227  0.4643 -0.5312
 6832TIP3    H141911   5.735   5.085  15.827 -0.3195 -0.5097 -0.3759
 6832TIP3    H241912   5.866   5.062  15.899 -0.1856  0.2026 -0.3824
 6833TIP3   OH241913   3.578   6.339  14.882 -0.4745  0.2029  0.0218
 6833TIP3    H141914   3.592   6.287  14.803  0.0694 -0.1681  0.3466
 6833TIP3    H241915   3.538   6.278  14.944 -2.2882  0.8810 -0.4256
 6834TIP3   OH241916   2.403   5.114   4.948 -0.4344 -0.7906 -0.0920
 6834TIP3    H141917   2.424   5.068   4.867 -0.0159 -0.2564 -0.2954
 6834TIP3    H241918   2.479   5.169   4.965 -2.3562  2.7961 -1.9831
 6835TIP3   OH241919   4.097   6.759   2.017 -0.0527 -0.7835 -0.3164
 6835TIP3    H141920   4.187   6.731   2.002  0.6139  1.4785 -0.8322
 6835TIP3    H241921   4.055   6.750   1.931  0.1341 -0.3026 -0.4596
 6836TIP3   OH241922   1.307   4.246   2.019  0.1332 -0.0224  0.1720
 6836TIP3    H141923   1.367   4.259   2.093 -1.0828 -0.0826  1.2174
 6836TIP3    H241924   1.241   4.315   2.030 -0.0491 -0.0142 -0.8897
 6837TIP3   OH241925   0.587   5.929  16.224  0.8581 -0.1493 -0.1391
 6837TIP3    H141926   0.658   5.921  16.287  0.0201  0.2794  0.9006
 6837TIP3    H241927   0.514   5.967  16.274 -0.1262 -0.6376 -1.1437
 6838TIP3   OH241928   4.373   2.431  16.206 -0.1183  0.1011 -0.1982
 6838TIP3    H141929   4.457   2.475  16.215 -0.6293  1.0347  0.0997
 6838TIP3    H241930   4.330   2.475  16.133 -1.0646  0.8349  0.7651
 6839TIP3   OH241931   6.488   3.813   2.639 -0.1854  0.2659  0.1413
 6839TIP3    H141932   6.573   3.852   2.619  1.1145 -2.9795 -1.3307
 6839TIP3    H241933   6.435   3.829   2.561  0.7794 -1.8364 -1.0171
 6840TIP3   OH241934   6.090   1.377  11.530 -0.0426  0.1180  0.0088
 6840TIP3    H141935   6.037   1.375  11.451 -0.2537 -2.0947  0.1387
 6840TIP3    H241936   6.027   1.373  11.602  0.2246 -0.7714  0.2037
 6841TIP3   OH241937   6.775   6.765  13.800  0.1907 -0.0040  0.2729
 6841TIP3    H141938   6.757   6.712  13.723  1.2584  0.0101  0.0076
 6841TIP3    H241939   6.716   6.730  13.867 -0.4802 -0.2578 -0.4320
 6842TIP3   OH241940   1.010   1.022   0.864  0.2576 -0.4026  0.5778
 6842TIP3    H141941   0.964   0.948   0.823  1.5733 -0.5272 -0.7622
 6842TIP3    H241942   1.032   0.991   0.952 -0.8793 -0.8726  0.7169
 6843TIP3   OH241943   1.775   0.409   3.228 -0.2938 -0.1564  0.6174
 6843TIP3    H141944   1.802   0.469   3.297 -1.0144  0.8130  0.0817
 6843TIP3    H241945   1.797   0.455   3.147 -2.6169  0.2639  0.1662
 6844TIP3   OH241946   1.242   5.207   5.473 -0.4122  0.5298 -0.1827
 6844TIP3    H141947   1.169   5.251   5.431  0.0515  1.5907  0.0966
 6844TIP3    H241948   1.244   5.120   5.432 -0.8677  1.0253 -1.2941
 6845TIP3   OH241949   2.000   2.540  14.028 -0.3670 -0.6016 -0.1162
 6845TIP3    H141950   2.027   2.453  14.058 -0.6777 -1.1502 -1.3901
 6845TIP3    H241951   2.015   2.539  13.933 -0.7813  0.5880 -0.2145
 6846TIP3   OH241952   3.247   0.045  11.797 -0.0913 -0.0587  0.2942
 6846TIP3    H141953   3.270   0.060  11.705 -3.0650 -1.5311 -0.8141
 6846TIP3    H241954   3.254   0.131  11.838  4.4498  0.1504 -0.3621
 6847TIP3   OH241955   1.227   5.296   2.161 -0.5406  0.0438  0.0172
 6847TIP3    H141956   1.244   5.232   2.231 -0.0600  0.2375  0.0754
 6847TIP3    H241957   1.131   5.306   2.162 -0.6687 -0.9786 -0.2691
 6848TIP3   OH241958   0.830   4.844  13.405  0.5976  0.9318 -0.2600
 6848TIP3    H141959   0.781   4.922  13.431 -0.8237 -0.5161  1.7895
 6848TIP3    H241960   0.922   4.870  13.411  0.1597  2.5018  0.1333
 6849TIP3   OH241961   4.137   4.179  12.367  0.4237 -0.6485  0.5838
 6849TIP3    H141962   4.090   4.150  12.445  1.2369 -1.6590  0.7171
 6849TIP3    H241963   4.114   4.115  12.299 -0.4576  0.3492 -0.0928
 6850TIP3   OH241964   3.259   3.386   4.142 -0.8934  0.0165 -0.3310
 6850TIP3    H141965   3.333   3.426   4.187  0.1997 -0.3884 -1.6833
 6850TIP3    H241966   3.286   3.383   4.050 -1.9866 -1.4685 -0.6393
 6851TIP3   OH241967   5.124   6.625  16.001 -0.3123 -0.4652  0.3208
 6851TIP3    H141968   5.040   6.616  15.955  0.5561 -1.3546 -1.1503
 6851TIP3    H241969   5.116   6.564  16.075 -0.3818 -1.8202 -0.7486
 6852TIP3   OH241970   5.992   5.638   1.839 -0.2024 -0.0635  0.2914
 6852TIP3    H141971   5.939   5.700   1.889  1.5353  0.2612  1.8662
 6852TIP3    H241972   6.058   5.608   1.902  1.6631 -0.2117 -1.6282
 6853TIP3   OH241973   1.866   0.443  14.426  0.3707  0.0902  0.7323
 6853TIP3    H141974   1.936   0.423  14.489  0.3006 -2.0888  0.1683
 6853TIP3    H241975   1.869   0.539  14.418  1.3684  0.3153  2.8892
 6854TIP3   OH241976   5.567   3.323  10.919 -0.2727  0.4142 -0.4037
 6854TIP3    H141977   5.494   3.280  10.963 -0.5240  0.0657 -1.1300
 6854TIP3    H241978   5.525   3.386  10.860  0.0830  1.4364  0.4151
 6855TIP3   OH241979   2.004   0.140  16.013  0.0247 -0.2595  0.5265
 6855TIP3    H141980   2.068   0.119  15.944  0.5910  3.1565 -0.1627
 6855TIP3    H241981   1.944   0.065  16.013  1.3381 -1.4643 -2.0514
 6856TIP3   OH241982   2.522   0.541   3.226 -0.1998  0.7674  0.1808
 6856TIP3    H141983   2.516   0.508   3.316 -1.4741  3.0814  1.0316
 6856TIP3    H241984   2.612   0.522   3.199 -0.0688 -0.8026  1.5807
 6857TIP3   OH241985   0.458   4.179   1.204 -0.1760 -0.1539 -0.8296
 6857TIP3    H141986   0.515   4.172   1.281 -1.1247  0.3064 -0.0739
 6857TIP3    H241987   0.505   4.131   1.136  0.3025 -1.2862  0.2534
 6858TIP3   OH241988   1.219   5.959  11.772 -0.0398 -0.3604 -0.0494
 6858TIP3    H141989   1.163   5.928  11.701 -1.7793  2.0930  0.1254
 6858TIP3    H241990   1.166   5.948  11.851  0.9046 -0.6866  0.5709
 6859TIP3   OH241991   3.477   3.282  13.332 -0.2388  0.5129 -0.2006
 6859TIP3    H141992   3.526   3.336  13.394 -0.9805 -0.3929  1.2393
 6859TIP3    H241993   3.517   3.195  13.340  0.0843  0.5230 -1.5168
 6860TIP3   OH241994   0.067   2.331  16.888 -0.4474 -0.4508 -0.1646
 6860TIP3    H141995   0.094   2.294  16.972  0.8358  0.6153 -0.0677
 6860TIP3    H241996   0.070   2.258  16.827 -1.1619 -1.1858  0.6591
 6861TIP3   OH241997   6.171   0.041   1.952  0.5766  0.2926 -0.3540
 6861TIP3    H141998   6.167  -0.012   1.872  1.8913 -1.1819  0.4855
 6861TIP3    H241999   6.264   0.062   1.962  0.5944 -0.3325  1.2183
 6862TIP3   OH242000   3.884   2.793   2.058  0.0197 -0.0719 -0.1441
 6862TIP3    H142001   3.922   2.875   2.089 -0.3375  0.6486 -1.5253
 6862TIP3    H242002   3.958   2.742   2.026  0.1858 -0.1051  0.2827
 6863TIP3   OH242003   5.297   3.504  12.949 -0.2169  0.0192  0.0968
 6863TIP3    H142004   5.313   3.411  12.968 -0.0784 -0.2094 -1.0592
 6863TIP3    H242005   5.209   3.520  12.982 -0.3264 -0.5863  0.1220
 6864TIP3   OH242006   0.220   5.685   3.891 -0.0225  0.6646  0.6147
 6864TIP3    H142007   0.134   5.661   3.926 -0.4812  0.5740 -0.5145
 6864TIP3    H242008   0.276   5.693   3.968 -1.0194  0.6400  1.3692
 6865TIP3   OH242009   2.754   3.158   1.811  0.1349 -0.1529 -0.1510
 6865TIP3    H142010   2.795   3.199   1.888 -2.4419 -1.1110  1.9036
 6865TIP3    H242011   2.664   3.188   1.814  0.0666  0.1733 -3.1983
 6866TIP3   OH242012   5.853   3.095   0.451  0.3587 -0.0548  0.1495
 6866TIP3    H142013   5.803   3.038   0.510 -2.0946  0.7119 -1.0546
 6866TIP3    H242014   5.906   3.034   0.398 -0.4728 -1.0510  0.4313
 6867TIP3   OH242015   4.055   0.831  14.261 -0.7026 -0.2139  0.3226
 6867TIP3    H142016   4.014   0.793  14.339 -1.7693  0.0541 -0.0835
 6867TIP3    H242017   4.108   0.903  14.294 -1.3512  0.0592  0.7863
 6868TIP3   OH242018   1.800   3.152  11.786 -0.1567 -0.4829 -0.3639
 6868TIP3    H142019   1.732   3.102  11.833 -1.9666  1.0368 -1.2313
 6868TIP3    H242020   1.772   3.151  11.695  1.6668 -0.8079 -0.9521
 6869TIP3   OH242021   0.588   3.974   6.147 -0.6303  0.4209  0.5899
 6869TIP3    H142022   0.536   3.987   6.225  0.4498 -0.4418  1.4926
 6869TIP3    H242023   0.668   3.930   6.178  0.1506  0.7178 -0.8785
 6870TIP3   OH242024   2.809   1.197   5.610  0.3251  0.8626  0.0290
 6870TIP3    H142025   2.875   1.174   5.676  0.5358  0.9976 -0.1317
 6870TIP3    H242026   2.858   1.248   5.545 -0.1768  2.0155  0.5227
 6871TIP3   OH242027   3.691   1.572  14.235 -0.1372  0.2917 -0.5754
 6871TIP3    H142028   3.727   1.484  14.225 -1.2968 -0.0846 -1.6614
 6871TIP3    H242029   3.763   1.630  14.214  0.6888 -0.3888  0.3109
 6872TIP3   OH242030   3.131   3.375   1.935  0.4248  0.1473  0.0683
 6872TIP3    H142031   3.195   3.423   1.987  1.2949 -0.3953 -0.4744
 6872TIP3    H242032   3.178   3.350   1.855 -0.6690  0.3231 -0.6472
 6873TIP3   OH242033   4.670   6.489   3.664 -0.2627  0.1193  0.3131
 6873TIP3    H142034   4.697   6.562   3.608 -0.8035 -1.4850 -2.1861
 6873TIP3    H242035   4.742   6.480   3.727 -0.1131  2.6601  0.6048
 6874TIP3   OH242036   6.383   5.110   5.817  0.4195 -0.4356 -0.1014
 6874TIP3    H142037   6.440   5.176   5.777  0.5290 -0.9479 -0.8161
 6874TIP3    H242038   6.379   5.040   5.752 -0.0327 -0.9474  0.4693
 6875TIP3   OH242039   2.818   2.423  14.713 -0.4520  0.7578 -0.2147
 6875TIP3    H142040   2.770   2.454  14.790  0.5392  2.5176 -0.2447
 6875TIP3    H242041   2.883   2.491  14.697 -0.8187  0.6005 -2.7953
 6876TIP3   OH242042   5.533   0.283  12.990  0.6667  0.0326  0.2781
 6876TIP3    H142043   5.513   0.326  13.073 -0.2441  0.2006 -0.0069
 6876TIP3    H242044   5.616   0.321  12.962  0.0675  1.3527  0.2169
 6877TIP3   OH242045   4.613   6.500  16.685 -0.1133 -0.2177  0.6531
 6877TIP3    H142046   4.563   6.423  16.714  0.1032 -0.2824  0.8592
 6877TIP3    H242047   4.668   6.468  16.614 -0.5174 -0.0985  0.2830
 6878TIP3   OH242048   4.570   2.988  14.323  0.3388 -0.1458 -0.2406
 6878TIP3    H142049   4.479   2.998  14.294 -0.4560 -0.2554  1.9962
 6878TIP3    H242050   4.622   2.998  14.243 -1.5823  0.6620 -1.4645
 6879TIP3   OH242051   0.647   1.020   1.031 -0.2367  0.1235  0.5580
 6879TIP3    H142052   0.687   1.090   0.979  0.5712  0.3130  1.4218
 6879TIP3    H242053   0.625   0.952   0.967 -0.5355  0.9269 -0.2186
 6880TIP3   OH242054   4.086   0.005  13.854 -0.1715 -0.2868 -0.1917
 6880TIP3    H142055   4.049  -0.030  13.935 -0.8044 -0.6122 -0.6054
 6880TIP3    H242056   4.120   0.091  13.878 -0.5937 -0.2688  0.3641
 6881TIP3   OH242057   4.233   5.326  15.745 -0.5313  0.6136  0.1726
 6881TIP3    H142058   4.303   5.363  15.799 -1.0807  1.7840  0.1080
 6881TIP3    H242059   4.224   5.236  15.775 -0.7090  1.1925  1.9482
 6882TIP3   OH242060   2.171   0.173   1.411 -0.6413  0.2053  0.4765
 6882TIP3    H142061   2.104   0.242   1.405 -0.5689  0.6743  3.5553
 6882TIP3    H242062   2.157   0.133   1.497  0.7587 -2.1626 -0.3068
 6883TIP3   OH242063   0.744   5.086   2.543 -0.0129  0.2115 -0.7886
 6883TIP3    H142064   0.838   5.103   2.535 -0.1160  2.0130  0.9303
 6883TIP3    H242065   0.738   5.008   2.598  0.5394  1.1629  0.6966
 6884TIP3   OH242066   3.104   4.147  12.364 -0.2307 -0.2623 -0.2508
 6884TIP3    H142067   3.106   4.072  12.423 -1.2330  0.4903  0.7854
 6884TIP3    H242068   3.068   4.218  12.417 -2.0441  0.2247 -1.9901
 6885TIP3   OH242069   1.184   4.958  16.389  0.2509 -0.2044 -0.4498
 6885TIP3    H142070   1.226   4.879  16.355 -0.4505 -0.6415 -0.3202
 6885TIP3    H242071   1.257   5.014  16.416  0.7576 -1.1819  0.2966
 6886TIP3   OH242072   4.540   2.941  14.639 -0.1507 -0.6374 -0.0268
 6886TIP3    H142073   4.619   2.987  14.610 -0.9051  0.0595 -1.0651
 6886TIP3    H242074   4.470   2.978  14.585 -1.2161 -1.1329  0.9819
 6887TIP3   OH242075   1.496   0.968  11.244 -0.1821  0.1079  0.2868
 6887TIP3    H142076   1.550   1.041  11.275 -0.0776  0.1884 -0.0746
 6887TIP3    H242077   1.410   0.985  11.281  0.0638 -0.0826  0.9580
 6888TIP3   OH242078   4.395   2.087   0.452  0.2635 -0.5970 -0.3955
 6888TIP3    H142079   4.419   2.154   0.388 -1.0067  0.8489  0.5822
 6888TIP3    H242080   4.328   2.035   0.408  0.1503 -0.2708 -0.6099
 6889TIP3   OH242081   2.545   3.845  13.572 -0.4238 -0.0090 -0.7675
 6889TIP3    H142082   2.611   3.782  13.603 -1.0794 -0.4084 -0.1506
 6889TIP3    H242083   2.594   3.926  13.557  0.4557 -0.6718 -1.6492
 6890TIP3   OH242084   0.479   1.396  16.345  0.7236  0.4406 -0.8540
 6890TIP3    H142085   0.392   1.380  16.380 -0.0120  1.3251 -2.1721
 6890TIP3    H242086   0.471   1.378  16.251  2.3121 -0.7428 -0.8031
 6891TIP3   OH242087   1.010   1.291   4.423  0.0502 -0.2650 -0.5436
 6891TIP3    H142088   0.950   1.293   4.498 -2.1736 -0.5599 -2.1857
 6891TIP3    H242089   1.069   1.218   4.441 -0.4837 -0.3751  0.8685
 6892TIP3   OH242090   2.075   3.864   1.423  0.3143  0.5220 -0.6736
 6892TIP3    H142091   2.024   3.863   1.342 -1.9272 -1.2080  0.6398
 6892TIP3    H242092   2.135   3.790   1.415  0.8217  0.9601 -1.1051
 6893TIP3   OH242093   3.297   2.005   6.238  0.2865 -0.5182  0.4618
 6893TIP3    H142094   3.375   1.989   6.290 -0.5052  1.6508  2.4986
 6893TIP3    H242095   3.239   1.931   6.258 -0.1233  0.4088  3.0478
 6894TIP3   OH242096   4.056   3.816   0.864  0.4053  0.4618 -0.8079
 6894TIP3    H142097   4.000   3.782   0.934 -0.1535 -2.2459 -2.4402
 6894TIP3    H242098   4.005   3.887   0.825 -1.6920 -1.4505 -1.7703
 6895TIP3   OH242099   4.774   4.081  12.127 -0.0120  0.9495 -0.2202
 6895TIP3    H142100   4.797   4.096  12.219 -1.0145  2.3590 -0.1533
 6895TIP3    H242101   4.823   4.148  12.079  0.3457  0.3530 -0.6940
 6896TIP3   OH242102   0.619   2.743  16.234 -0.7720 -0.5764 -0.3363
 6896TIP3    H142103   0.612   2.706  16.146  0.1269 -0.9259 -0.2765
 6896TIP3    H242104   0.571   2.682  16.290 -0.4913 -0.9076 -0.4476
 6897TIP3   OH242105   1.917   5.969   3.773  0.0452 -0.0047  0.6247
 6897TIP3    H142106   1.912   5.996   3.865 -0.1881  1.2192  0.2709
 6897TIP3    H242107   1.831   5.932   3.755 -1.4790  3.4532 -0.1472
 6898TIP3   OH242108   2.866   3.187   2.841 -0.5822 -0.3031  0.1990
 6898TIP3    H142109   2.869   3.116   2.776 -1.6655  1.7808 -2.2759
 6898TIP3    H242110   2.939   3.244   2.818 -0.9455  0.4467  0.8655
 6899TIP3   OH242111   0.454   4.032   3.792 -0.1076 -0.2261  0.1502
 6899TIP3    H142112   0.429   4.012   3.883 -2.6141  0.4948 -0.3200
 6899TIP3    H242113   0.393   3.982   3.739  0.5388  0.3188 -1.1475
 6900TIP3   OH242114   0.551   5.507  16.200 -0.2484 -0.2190 -0.4024
 6900TIP3    H142115   0.618   5.550  16.148 -0.6426  0.1578 -0.6067
 6900TIP3    H242116   0.593   5.428  16.234 -0.0792 -0.6588 -1.5795
 6901TIP3   OH242117   4.476   2.611   3.531 -0.5165  0.1720  0.1595
 6901TIP3    H142118   4.387   2.580   3.515 -1.5603  3.1914 -0.6412
 6901TIP3    H242119   4.512   2.624   3.443  0.4870 -0.3845  0.4830
 6902TIP3   OH242120   6.560   5.780   5.545 -0.0392  0.5525  0.0682
 6902TIP3    H142121   6.584   5.786   5.638  3.5858 -0.1418 -0.6820
 6902TIP3    H242122   6.599   5.699   5.515  1.1344  1.9796 -2.6341
 6903TIP3   OH242123   6.409   4.511  14.399  0.5734 -0.1701  0.1028
 6903TIP3    H142124   6.384   4.435  14.345  0.0209 -1.2849  1.8369
 6903TIP3    H242125   6.444   4.472  14.479  1.2586  1.4406  0.6162
 6904TIP3   OH242126   5.320   5.962  12.366 -0.0606  0.2237 -0.8023
 6904TIP3    H142127   5.377   5.928  12.297 -0.0182 -2.7939  0.5861
 6904TIP3    H242128   5.350   6.052  12.379  2.3673 -0.2955 -2.1579
 6905TIP3   OH242129   0.003   4.674   1.619 -0.0478 -0.1232  0.1438
 6905TIP3    H142130  -0.010   4.595   1.567 -1.1004  0.4898 -0.5634
 6905TIP3    H242131  -0.024   4.649   1.707 -2.6280  0.0395 -0.5231
 6906TIP3   OH242132   5.870   3.719  14.478 -0.2664 -0.3973  0.3318
 6906TIP3    H142133   5.829   3.774  14.411 -0.3157  0.9299  1.4129
 6906TIP3    H242134   5.832   3.632  14.463 -0.9871  0.0780 -0.7645
 6907TIP3   OH242135   3.593   5.629  16.947 -0.4274 -0.4814  0.1442
 6907TIP3    H142136   3.600   5.678  17.029  1.9137 -1.3132  0.5467
 6907TIP3    H242137   3.632   5.544  16.968  1.4208 -0.2881 -2.1218
 6908TIP3   OH242138   2.932   6.643  14.874 -0.2155 -0.3566  0.0301
 6908TIP3    H142139   2.979   6.697  14.810  0.0261 -0.1836  0.3531
 6908TIP3    H242140   2.968   6.555  14.862 -0.9810 -0.5677 -0.8603
 6909TIP3   OH242141   1.452   3.669  13.965  0.1052  0.2270 -0.0300
 6909TIP3    H142142   1.538   3.700  13.937 -0.0197  0.1422 -0.5213
 6909TIP3    H242143   1.391   3.708  13.902 -0.0754 -0.8445 -0.5356
 6910TIP3   OH242144   2.141   2.678  12.666  0.2866  0.2844 -0.2690
 6910TIP3    H142145   2.104   2.725  12.590  0.8575  1.3882  0.1222
 6910TIP3    H242146   2.223   2.642  12.633  0.1340  0.0528 -0.4028
 6911TIP3   OH242147   3.575   0.056   4.880  0.2709 -0.0813 -0.3687
 6911TIP3    H142148   3.505   0.059   4.945 -0.0580 -1.3332 -0.6399
 6911TIP3    H242149   3.564  -0.028   4.837  1.8777 -0.2657 -0.4852
 6912TIP3   OH242150   5.916   5.794   1.600  0.2897  0.1871 -0.0542
 6912TIP3    H142151   5.853   5.864   1.581  1.3452  0.8731 -1.1910
 6912TIP3    H242152   5.878   5.716   1.560 -1.2979 -0.1568  1.9111
 6913TIP3   OH242153   0.939   2.008  12.334  0.2120  0.6212  0.7547
 6913TIP3    H142154   0.879   2.007  12.408 -1.0802 -0.3475 -0.2506
 6913TIP3    H242155   0.893   2.056  12.266  1.0093  0.7420  0.2830
 6914TIP3   OH242156   4.732   5.229   4.056  0.5899  0.2074 -0.5047
 6914TIP3    H142157   4.705   5.313   4.017 -0.3770  0.6123  0.9774
 6914TIP3    H242158   4.700   5.163   3.995 -4.0670  0.6276  1.1034
 6915TIP3   OH242159   6.781   4.986  16.806  0.0692 -0.0599 -0.2331
 6915TIP3    H142160   6.854   4.949  16.756 -0.7967 -0.9475 -0.8816
 6915TIP3    H242161   6.811   4.982  16.897 -0.0054 -2.5457 -0.2382
 6916TIP3   OH242162   3.009   4.685  11.173 -0.4697 -0.4433  0.3653
 6916TIP3    H142163   3.028   4.759  11.115  0.1381 -0.5423  0.4359
 6916TIP3    H242164   3.019   4.720  11.261 -1.0309 -0.3889  0.4085
 6917TIP3   OH242165   2.422   5.162  13.461 -0.0727 -0.5688  0.5420
 6917TIP3    H142166   2.327   5.156  13.471 -0.2824  2.5584  1.2630
 6917TIP3    H242167   2.457   5.121  13.541 -0.9821  1.2150  1.9297
 6918TIP3   OH242168   0.444   4.982  11.993  0.2407  0.2715 -0.2004
 6918TIP3    H142169   0.375   4.923  12.021  0.0171  1.0567  0.9761
 6918TIP3    H242170   0.525   4.932  12.006 -0.0638 -0.6030 -1.4704
 6919TIP3   OH242171   6.343   1.969   6.071 -0.7954  0.1204 -0.3413
 6919TIP3    H142172   6.295   1.929   6.144 -1.7057  0.8158 -0.5474
 6919TIP3    H242173   6.431   1.982   6.105 -1.0317 -0.1728  0.4089
 6920TIP3   OH242174   5.218   6.358   4.535 -0.9847  0.1669 -0.0936
 6920TIP3    H142175   5.154   6.294   4.567 -0.1028 -0.6838 -0.0133
 6920TIP3    H242176   5.303   6.318   4.550 -0.2898  2.0939  1.6193
 6921TIP3   OH242177   3.299   0.664  14.064 -0.6050 -0.0109 -0.0133
 6921TIP3    H142178   3.342   0.590  14.020 -0.1401 -0.2786  0.8737
 6921TIP3    H242179   3.205   0.651  14.045 -0.4799 -0.5098 -0.3322
 6922TIP3   OH242180   6.381   4.668   5.773  0.0021 -0.4916  0.0401
 6922TIP3    H142181   6.312   4.629   5.718 -1.4623  1.1162  0.6205
 6922TIP3    H242182   6.403   4.599   5.835 -1.2547 -0.9964 -0.0249
 6923TIP3   OH242183   1.848   3.943  16.706  0.0984 -0.2844  0.1237
 6923TIP3    H142184   1.815   3.868  16.658  1.9294 -0.9906 -0.1015
 6923TIP3    H242185   1.814   4.019  16.658 -0.1505 -0.9688 -0.8082
 6924TIP3   OH242186   0.550   1.740  13.205 -0.0437 -0.0030  0.2530
 6924TIP3    H142187   0.529   1.825  13.245  0.1333  0.0518  0.2297
 6924TIP3    H242188   0.465   1.696  13.197 -0.5281  1.1890 -2.0962
 6925TIP3   OH242189   3.208   1.057  12.980  0.7060  0.4200  0.1380
 6925TIP3    H142190   3.252   0.995  12.921  0.9003 -0.0371  0.7476
 6925TIP3    H242191   3.165   1.001  13.045  0.4531  0.9116  0.3944
 6926TIP3   OH242192   1.672   1.455   5.947 -0.2849 -0.3350 -0.1052
 6926TIP3    H142193   1.630   1.535   5.916 -0.7483 -0.8994 -0.9824
 6926TIP3    H242194   1.608   1.416   6.007  0.0149  0.0373  0.4595
 6927TIP3   OH242195   5.500   0.463  16.130 -0.3297 -0.0606 -0.9026
 6927TIP3    H142196   5.572   0.522  16.107 -1.3692  1.1934 -1.0395
 6927TIP3    H242197   5.505   0.393  16.064 -0.3794  1.0045 -2.0720
 6928TIP3   OH242198   6.012   1.928   3.524 -0.2286 -1.1190 -0.2987
 6928TIP3    H142199   6.090   1.976   3.553 -1.0982  0.1256  0.1029
 6928TIP3    H242200   6.021   1.921   3.429 -0.0184 -0.2514 -0.3500
 6929TIP3   OH242201   4.888   2.740  17.048 -0.6614  0.2727  0.3723
 6929TIP3    H142202   4.840   2.758  16.967  1.5115  1.7137 -0.6991
 6929TIP3    H242203   4.921   2.650  17.037 -1.4369 -0.0027  0.2517
 6930TIP3   OH242204   2.138   1.408   5.782 -0.4626 -0.2550  0.3730
 6930TIP3    H142205   2.062   1.450   5.822  0.5400  0.8580  1.1860
 6930TIP3    H242206   2.213   1.442   5.831  0.4771 -2.4749  0.6252
 6931TIP3   OH242207   2.534   2.785  14.287 -0.0966  0.5060  0.0993
 6931TIP3    H142208   2.476   2.710  14.302  1.3585 -0.4183  1.4477
 6931TIP3    H242209   2.622   2.748  14.288  0.5735  1.8482 -2.0286
 6932TIP3   OH242210   3.831   5.890   4.745  0.5308  0.5063 -0.2511
 6932TIP3    H142211   3.760   5.952   4.728 -0.0253 -1.0777 -5.4535
 6932TIP3    H242212   3.788   5.804   4.744  2.1189 -0.3221 -0.3331
 6933TIP3   OH242213   0.021   1.271   2.318 -0.8524 -0.4499 -0.2976
 6933TIP3    H142214  -0.070   1.257   2.291 -0.9673  0.8865 -0.6707
 6933TIP3    H242215   0.052   1.342   2.263 -0.2653  0.5939  1.3014
 6934TIP3   OH242216   4.061   0.656  12.430 -0.6090  0.0262  0.7587
 6934TIP3    H142217   3.991   0.722  12.427 -0.8921 -0.2946 -0.1448
 6934TIP3    H242218   4.121   0.687  12.497  1.8242  3.8313 -2.7090
 6935TIP3   OH242219   1.251   1.179  16.602  0.0153  0.1102  0.1824
 6935TIP3    H142220   1.318   1.112  16.613 -0.8723 -0.6247  1.4137
 6935TIP3    H242221   1.229   1.177  16.509  2.8992  1.6140 -0.6669
 6936TIP3   OH242222   1.973   6.804  14.469 -0.4441 -0.2988  0.7404
 6936TIP3    H142223   2.054   6.784  14.423 -0.3484 -1.0147  1.2208
 6936TIP3    H242224   1.927   6.865  14.410  0.5319  0.2859  0.5721
 6937TIP3   OH242225   0.695   5.755   5.813 -0.5593 -0.0210  0.3043
 6937TIP3    H142226   0.714   5.729   5.723  1.7421 -1.1426  1.0554
 6937TIP3    H242227   0.610   5.801   5.807  0.0101  0.8573 -2.5587
 6938TIP3   OH242228   0.981   5.561  11.409 -0.0230 -0.2010 -0.3777
 6938TIP3    H142229   0.963   5.481  11.458 -0.0053  0.3043  0.4747
 6938TIP3    H242230   1.073   5.581  11.429  0.2738 -0.5169 -1.3995
 6939TIP3   OH242231   2.152   4.264   0.644 -0.8089  0.1410 -0.2526
 6939TIP3    H142232   2.161   4.190   0.584 -1.1476  0.2200 -0.4083
 6939TIP3    H242233   2.150   4.225   0.731 -1.0269 -0.0404 -0.3372
 6940TIP3   OH242234   6.197   6.563  14.692  0.0600  0.0380  0.3388
 6940TIP3    H142235   6.218   6.542  14.601  1.1481 -2.0491  1.0083
 6940TIP3    H242236   6.282   6.573  14.734 -0.4332  0.6303  1.2153
 6941TIP3   OH242237   3.044   3.281   1.548 -0.1654  0.0789  0.1520
 6941TIP3    H142238   2.978   3.233   1.598 -1.1281  1.5036  0.3221
 6941TIP3    H242239   3.106   3.312   1.614  1.4628 -2.3369 -0.1379
 6942TIP3   OH242240   6.031   2.219   1.166  0.5433 -0.2683 -0.3182
 6942TIP3    H142241   6.058   2.220   1.075  0.4094 -2.4601 -0.4366
 6942TIP3    H242242   5.954   2.162   1.168 -0.2319  0.7519  0.9902
 6943TIP3   OH242243   5.235   2.289  15.321 -0.0242  0.5186  0.1443
 6943TIP3    H142244   5.257   2.333  15.239  1.3196  0.3165  0.3677
 6943TIP3    H242245   5.169   2.224  15.297  0.5198  0.3014 -0.8296
 6944TIP3   OH242246   4.573   3.829  16.987  0.4620  0.3551  0.0032
 6944TIP3    H142247   4.588   3.830  17.082  0.7941 -0.5245 -0.0283
 6944TIP3    H242248   4.661   3.827  16.949  0.3212 -0.0068 -0.3070
 6945TIP3   OH242249   4.610   3.616   4.871  0.2299 -0.3377  0.0991
 6945TIP3    H142250   4.622   3.688   4.809 -1.2477 -0.4401 -0.3541
 6945TIP3    H242251   4.537   3.645   4.927  0.7595 -0.7556  1.0325
 6946TIP3   OH242252   4.247   5.831  11.828  0.2765  0.2083 -0.2492
 6946TIP3    H142253   4.246   5.806  11.736 -0.1457  0.1331 -0.2289
 6946TIP3    H242254   4.317   5.780  11.867  0.4276  0.2083 -0.5217
 6947TIP3   OH242255   0.865   6.335   2.024 -0.4243 -0.4910  0.2522
 6947TIP3    H142256   0.951   6.332   1.981 -0.1204 -0.2162  0.8416
 6947TIP3    H242257   0.809   6.383   1.961 -0.1494 -0.6601 -0.1266
 6948TIP3   OH242258   5.170   0.185  12.347  0.2045  0.4224  0.6083
 6948TIP3    H142259   5.159   0.263  12.293  2.0491  0.0210 -0.4783
 6948TIP3    H242260   5.150   0.112  12.287  2.6342 -0.0466  0.2426
 6949TIP3   OH242261   0.905   0.196   5.356 -0.4904 -0.0755 -0.3884
 6949TIP3    H142262   0.928   0.114   5.311 -2.0812 -1.1278  0.6049
 6949TIP3    H242263   0.811   0.205   5.341 -1.3823 -1.1053  3.5589
 6950TIP3   OH242264   1.050   1.587  12.578  0.0907 -0.0568  0.5490
 6950TIP3    H142265   1.059   1.670  12.531  3.1951 -0.2054  0.6724
 6950TIP3    H242266   1.121   1.533  12.544 -0.6689 -1.9904  1.8699
 6951TIP3   OH242267   3.647   1.229   6.481 -0.5036 -0.4751 -0.3974
 6951TIP3    H142268   3.688   1.231   6.394 -0.0094 -0.9695 -0.1837
 6951TIP3    H242269   3.573   1.290   6.474 -1.3317 -1.5704 -1.5924
 6952TIP3   OH242270   2.360   6.474  12.686 -0.2597  0.0788  0.5974
 6952TIP3    H142271   2.324   6.498  12.772 -0.4561  0.1416  0.5000
 6952TIP3    H242272   2.284   6.478  12.627 -0.4449 -1.4889  0.7070
 6953TIP3   OH242273   2.430   4.767  12.055  0.0930  0.8139  0.1831
 6953TIP3    H142274   2.455   4.775  11.963  1.0331  0.9285  0.4380
 6953TIP3    H242275   2.502   4.719  12.095  0.7504  2.6297  1.2812
 6954TIP3   OH242276   1.086   0.692  16.564  0.3568  0.4491 -0.2890
 6954TIP3    H142277   0.993   0.672  16.573  0.4213 -0.2484 -1.0554
 6954TIP3    H242278   1.100   0.704  16.470  1.2488 -0.6576 -0.3272
 6955TIP3   OH242279   0.504   6.174   1.518  0.2952  0.1541  0.4432
 6955TIP3    H142280   0.502   6.221   1.601 -1.5066  0.4172  0.2893
 6955TIP3    H242281   0.458   6.231   1.456 -0.5460 -1.0964 -0.1291
 6956TIP3   OH242282   3.384   2.959  16.109  0.1535  0.2361  0.3767
 6956TIP3    H142283   3.450   2.895  16.134  0.1175 -0.1342 -0.4717
 6956TIP3    H242284   3.300   2.914  16.122  0.0882  0.4422  0.6983
 6957TIP3   OH242285   4.536   5.725  16.783  0.6507 -0.9518  0.1027
 6957TIP3    H142286   4.577   5.806  16.751  1.1674 -1.3189 -0.1914
 6957TIP3    H242287   4.608   5.676  16.822  0.3428 -1.2789  0.2639
 6958TIP3   OH242288   1.305   2.215   0.745  0.0645  0.7083  0.2263
 6958TIP3    H142289   1.328   2.302   0.713 -0.1122  1.5691  2.3173
 6958TIP3    H242290   1.388   2.175   0.769 -0.0919  2.0050  3.3030
 6959TIP3   OH242291   0.358   3.892   1.668  1.0979  0.3243  0.6332
 6959TIP3    H142292   0.315   3.839   1.735 -0.1721 -0.6729 -0.8896
 6959TIP3    H242293   0.436   3.842   1.643 -0.1020 -0.9505 -0.8065
 6960TIP3   OH242294   6.417   5.233  12.901  0.1206  0.0076  0.7104
 6960TIP3    H142295   6.347   5.273  12.850  0.6896 -1.4489 -1.3538
 6960TIP3    H242296   6.374   5.198  12.979 -1.2276  0.2131  0.0747
 6961TIP3   OH242297   2.785   4.790   5.758 -0.1430 -0.3562  0.1177
 6961TIP3    H142298   2.778   4.705   5.803 -2.5704  0.6045  1.7601
 6961TIP3    H242299   2.800   4.853   5.828 -0.5922  0.8220 -0.8095
 6962TIP3   OH242300   3.614   3.904  16.487 -0.1045 -0.0638  0.0923
 6962TIP3    H142301   3.529   3.946  16.473  0.2896  0.0864 -2.2824
 6962TIP3    H242302   3.662   3.966  16.542 -0.7635  0.9316 -0.4132
 6963TIP3   OH242303   2.238   2.230   5.745 -0.2716 -0.6391  0.2725
 6963TIP3    H142304   2.250   2.137   5.725 -0.8738 -0.6165 -0.2099
 6963TIP3    H242305   2.200   2.231   5.833 -0.4934 -0.8584  0.1789
 6964TIP3   OH242306   5.875   3.845   2.366  0.9103 -0.3381 -0.5639
 6964TIP3    H142307   5.898   3.849   2.459  0.6073  0.1578 -0.5034
 6964TIP3    H242308   5.781   3.863   2.364  1.2629  1.8126 -1.1120
 6965TIP3   OH242309   1.594   5.596  11.183 -0.5059  0.3127 -0.1938
 6965TIP3    H142310   1.655   5.528  11.212 -0.3974  0.5327  0.0906
 6965TIP3    H242311   1.555   5.560  11.103  0.7774  0.6199 -0.9819
 6966TIP3   OH242312   3.112   6.691  14.098  0.2580 -0.1074 -0.0624
 6966TIP3    H142313   3.032   6.638  14.103  0.2827 -0.1120  0.4071
 6966TIP3    H242314   3.100   6.756  14.168 -0.0162  0.8395 -0.9622
 6967TIP3   OH242315   5.131   1.881   5.732 -0.0111 -0.1899  0.2986
 6967TIP3    H142316   5.063   1.948   5.739 -0.9780 -1.1631  0.4451
 6967TIP3    H242317   5.125   1.832   5.814  2.0555  0.7693  1.0984
 6968TIP3   OH242318   1.942   1.881   4.321  0.2317  0.2250 -0.0795
 6968TIP3    H142319   1.855   1.857   4.352  0.3057 -0.2947 -0.2668
 6968TIP3    H242320   1.927   1.958   4.266 -0.0978  0.2056 -0.0202
 6969TIP3   OH242321   1.623   0.848  14.937  0.1253 -0.3172 -0.1448
 6969TIP3    H142322   1.541   0.818  14.976 -0.6026  0.2135 -1.2282
 6969TIP3    H242323   1.682   0.859  15.011 -0.5279 -1.4671  0.5728
 6970TIP3   OH242324   4.046   5.989   0.596  0.4218  0.2878 -0.5629
 6970TIP3    H142325   4.106   6.012   0.525  1.1227 -2.2814 -0.8886
 6970TIP3    H242326   3.962   5.974   0.553  0.8957 -1.4718 -0.9321
 6971TIP3   OH242327   4.123   4.069  11.971 -0.0759  0.2961  0.1121
 6971TIP3    H142328   4.139   4.030  11.885  1.1481  1.7788 -0.3770
 6971TIP3    H242329   4.030   4.090  11.971 -1.0766 -3.4739  0.8327
 6972TIP3   OH242330   3.597   2.096   6.065 -0.7285  0.0299 -0.6063
 6972TIP3    H142331   3.614   2.070   6.155  1.0181  2.0911 -0.2490
 6972TIP3    H242332   3.523   2.156   6.071 -1.4260 -0.8077 -0.7321
 6973TIP3   OH242333   4.587   4.744  12.079 -0.4316  0.3944 -0.4509
 6973TIP3    H142334   4.654   4.676  12.084 -0.4242  0.2784 -1.8377
 6973TIP3    H242335   4.603   4.789  11.996  1.5922  4.2443  1.7357
 6974TIP3   OH242336   1.027   0.384  16.414 -0.1678 -0.5919  0.0221
 6974TIP3    H142337   1.054   0.306  16.462 -1.1318 -0.7416  0.3334
 6974TIP3    H242338   1.022   0.356  16.323 -1.0063 -1.0263  0.2006
 6975TIP3   OH242339   4.729   3.434  13.959  0.4174 -0.7364  0.0030
 6975TIP3    H142340   4.786   3.503  13.993 -0.9461 -0.0558  0.9970
 6975TIP3    H242341   4.780   3.393  13.890  1.8685  0.2444  0.4505
 6976TIP3   OH242342   0.575   2.287   4.411  0.0333 -0.3269 -0.2167
 6976TIP3    H142343   0.583   2.194   4.389 -1.6412 -0.6145  0.1944
 6976TIP3    H242344   0.656   2.307   4.458  0.2529 -1.6959  0.0560
 6977TIP3   OH242345   1.127   3.914   2.465 -0.1652 -0.0906 -0.1524
 6977TIP3    H142346   1.207   3.888   2.419 -0.5440 -0.1001 -0.8271
 6977TIP3    H242347   1.111   4.004   2.437  0.3881  0.4200  1.1085
 6978TIP3   OH242348   3.306   4.151  10.981 -0.4560  0.2268 -0.6601
 6978TIP3    H142349   3.291   4.066  10.940 -2.2673  0.8894 -1.5038
 6978TIP3    H242350   3.400   4.154  10.997 -0.4681 -2.4199  0.5401
 6979TIP3   OH242351   1.597   3.178   3.559  0.1005  0.5053 -0.1455
 6979TIP3    H142352   1.600   3.269   3.590  1.2830 -0.0905  1.6840
 6979TIP3    H242353   1.589   3.126   3.639  0.8983 -1.0513 -1.0253
 6980TIP3   OH242354   3.170   2.666  12.292  0.0286 -0.4107 -0.2125
 6980TIP3    H142355   3.262   2.642  12.306  0.2589 -1.0746 -2.3697
 6980TIP3    H242356   3.131   2.664  12.379  1.7237 -1.5504  0.5868
 6981TIP3   OH242357   4.190   2.966   4.918  0.5827  0.5580 -0.1486
 6981TIP3    H142358   4.228   3.038   4.868 -1.1403  2.6332  1.3395
 6981TIP3    H242359   4.103   2.954   4.882  0.4327  0.0002  0.3784
 6982TIP3   OH242360   0.826   3.877   4.076  0.0140 -0.2827  0.0031
 6982TIP3    H142361   0.762   3.948   4.068 -1.4627 -1.3530  1.6436
 6982TIP3    H242362   0.793   3.810   4.017  1.8179  0.5890 -2.1210
 6983TIP3   OH242363   3.208   2.515   1.103  0.1875  0.4928  0.6938
 6983TIP3    H142364   3.212   2.549   1.013  1.4715 -1.3118  0.0059
 6983TIP3    H242365   3.130   2.459   1.104  1.6286 -1.6521 -0.1886
 6984TIP3   OH242366   0.704   0.018  15.089  0.4270  0.7255  0.0470
 6984TIP3    H142367   0.757   0.095  15.110  2.0623 -0.5632  0.8492
 6984TIP3    H242368   0.747  -0.054  15.135 -0.1715 -0.9451 -1.8828
 6985TIP3   OH242369   3.618   6.709   5.811  0.1535  0.0869 -0.8334
 6985TIP3    H142370   3.667   6.791   5.801  0.1122  0.2771  0.4385
 6985TIP3    H242371   3.542   6.733   5.864 -0.2871 -0.6124 -1.1388
 6986TIP3   OH242372   6.396   0.273   6.365  0.0981 -0.2283 -0.1777
 6986TIP3    H142373   6.391   0.344   6.301  1.0549  0.7173  0.7661
 6986TIP3    H242374   6.319   0.285   6.421  0.4019  0.2372  0.1448
 6987TIP3   OH242375   1.386   3.405  15.158  0.1348 -0.2380 -0.2637
 6987TIP3    H142376   1.291   3.394  15.162 -0.1325  1.6697 -0.3681
 6987TIP3    H242377   1.418   3.368  15.240 -0.9990  1.4221  0.9928
 6988TIP3   OH242378   4.399   1.443   5.490 -0.7120 -0.0348 -0.6677
 6988TIP3    H142379   4.469   1.405   5.436 -0.1219 -1.3509  0.9561
 6988TIP3    H242380   4.401   1.393   5.571 -1.1011  2.3314  0.9016
 6989TIP3   OH242381   5.112   5.711   4.345  0.2373  0.3395 -0.6116
 6989TIP3    H142382   5.106   5.786   4.286 -1.2737 -0.3049 -1.3317
 6989TIP3    H242383   5.027   5.667   4.337 -0.0367  0.2067  2.0163
 6990TIP3   OH242384   3.051   6.622   0.508 -0.7115  0.0782 -0.8706
 6990TIP3    H142385   3.054   6.555   0.576 -0.1952  0.9389 -0.0106
 6990TIP3    H242386   3.065   6.704   0.556 -0.8479  0.7482 -1.9585
 6991TIP3   OH242387   2.643   2.701   5.189  0.4162 -0.3680 -0.2439
 6991TIP3    H142388   2.593   2.701   5.107 -0.6886  0.0900  0.4082
 6991TIP3    H242389   2.735   2.698   5.161  0.1433  1.5974 -1.5571
 6992TIP3   OH242390   4.277   0.001   5.617  0.2131 -0.3499 -0.0493
 6992TIP3    H142391   4.370   0.023   5.622  0.1444 -0.3368  1.6746
 6992TIP3    H242392   4.232   0.086   5.624  0.0527 -0.4467  0.0974
 6993TIP3   OH242393   2.842   2.101   3.479 -0.6014 -0.5292  0.2633
 6993TIP3    H142394   2.903   2.045   3.528 -0.6204  0.3148  1.2962
 6993TIP3    H242395   2.890   2.183   3.469 -1.3761 -0.0268  0.6448
 6994TIP3   OH242396   4.898   1.215   4.687 -0.2022 -0.4424 -0.1754
 6994TIP3    H142397   4.985   1.183   4.662  1.0321  0.5610  2.3848
 6994TIP3    H242398   4.881   1.171   4.771 -0.6715  1.7343  0.9455
 6995TIP3   OH242399   2.370   1.890  13.005 -0.2564 -0.1975  0.4535
 6995TIP3    H142400   2.307   1.873  12.935  1.2046 -0.3022 -0.8960
 6995TIP3    H242401   2.424   1.962  12.972 -0.1909  0.4691  1.9462
 6996TIP3   OH242402   3.884   6.280   0.512 -0.6631  0.2909  0.5219
 6996TIP3    H142403   3.930   6.310   0.591  1.1761 -0.1721 -0.3295
 6996TIP3    H242404   3.926   6.326   0.440 -1.8509  0.1818 -0.2676
 6997TIP3   OH242405   1.972   0.600  12.340  0.7645 -0.1665 -0.3953
 6997TIP3    H142406   1.947   0.511  12.364  1.4845 -0.8869 -2.1584
 6997TIP3    H242407   2.062   0.592  12.308  0.8266  1.1867 -0.6269
 6998TIP3   OH242408   0.111   0.128  15.064  0.2309 -0.6330  0.7947
 6998TIP3    H142409   0.167   0.183  15.120  0.0419  1.0368 -0.5771
 6998TIP3    H242410   0.025   0.168  15.069 -0.0820 -1.2329  0.3256
 6999TIP3   OH242411   2.586   0.456   5.006  0.2744 -0.6841 -0.5552
 6999TIP3    H142412   2.664   0.499   5.043 -0.2073 -0.2339 -0.0521
 6999TIP3    H242413   2.532   0.435   5.082  0.8885 -3.0426 -0.6745
 7000TIP3   OH242414   0.601   6.190   2.020  0.1215  0.1690  0.1358
 7000TIP3    H142415   0.606   6.195   2.115  1.2231  0.5014  0.0820
 7000TIP3    H242416   0.676   6.136   1.995  0.8641  1.4774 -0.6188
 7001TIP3   OH242417   6.572   6.592  11.820  0.9098  0.3043 -0.3340
 7001TIP3    H142418   6.609   6.619  11.904  1.7353 -0.1887 -0.5278
 7001TIP3    H242419   6.483   6.626  11.821  0.6610 -0.3286  1.0506
 7002TIP3   OH242420   5.788   0.777  13.982  0.1584  0.0739  0.1421
 7002TIP3    H142421   5.831   0.834  13.919 -0.8593 -0.0478 -0.6939
 7002TIP3    H242422   5.715   0.830  14.016 -0.1301 -0.3467  0.1817
 7003TIP3   OH242423   6.668   4.201  16.734  0.3118 -0.2964  0.3368
 7003TIP3    H142424   6.691   4.287  16.700 -0.5709 -0.5464 -0.9697
 7003TIP3    H242425   6.644   4.216  16.825 -0.9759  1.0656 -0.1788
 7004TIP3   OH242426   0.664   6.334  17.013  0.1696  0.4844 -1.0500
 7004TIP3    H142427   0.577   6.302  17.038  0.5181  0.8761  0.8316
 7004TIP3    H242428   0.647   6.407  16.954 -0.7702  0.3252 -0.9935
 7005TIP3   OH242429   1.389   4.078  15.601 -0.0339  0.5868 -0.2269
 7005TIP3    H142430   1.297   4.099  15.613  0.1515  0.4011  1.8955
 7005TIP3    H242431   1.401   4.076  15.506 -2.2488  0.3699 -0.5492
 7006TIP3   OH242432   0.535   1.964   1.120  0.2382  0.0597 -0.0846
 7006TIP3    H142433   0.535   1.960   1.215 -1.6472 -0.3578 -0.0660
 7006TIP3    H242434   0.552   1.874   1.091 -2.9779 -0.7072 -0.0292
 7007TIP3   OH242435   5.360   0.794   6.349 -0.4391 -0.5951 -0.1483
 7007TIP3    H142436   5.328   0.707   6.373  0.6474 -0.8304  0.5239
 7007TIP3    H242437   5.291   0.853   6.379 -0.8585 -1.1765  0.0606
 7008TIP3   OH242438   1.586   4.835   1.742  0.2675  0.4651 -0.5433
 7008TIP3    H142439   1.507   4.787   1.717  0.4426 -1.4249  2.0821
 7008TIP3    H242440   1.554   4.920   1.773 -0.2547  1.3582 -3.2703
 7009TIP3   OH242441   2.158   4.912   3.694 -0.4518 -0.0058 -0.5367
 7009TIP3    H142442   2.099   4.953   3.630 -0.2673  0.8073 -0.1936
 7009TIP3    H242443   2.133   4.951   3.778  0.1215 -0.1588 -0.2911
 7010TIP3   OH242444   6.025   3.112   4.257 -0.3474  0.1961 -0.3084
 7010TIP3    H142445   6.110   3.110   4.213 -0.6501  0.0340 -0.9019
 7010TIP3    H242446   6.046   3.109   4.350  0.2835 -0.1987 -0.4561
 7011TIP3   OH242447   6.623   6.714  14.991  0.2556 -0.4828 -0.1999
 7011TIP3    H142448   6.627   6.788  15.051  0.2977 -1.4161  0.9802
 7011TIP3    H242449   6.680   6.648  15.030  1.1301 -0.7554 -1.8145
 7012TIP3   OH242450   1.590   2.461  16.217 -0.0203  0.1297  0.7824
 7012TIP3    H142451   1.661   2.501  16.265  1.0951 -0.6081 -0.1825
 7012TIP3    H242452   1.516   2.520  16.228  1.2299  1.8324  0.3575
 7013TIP3   OH242453   0.669   2.191   1.073  0.0425 -0.7122  0.5476
 7013TIP3    H142454   0.650   2.098   1.084 -1.3094 -0.3669  1.3124
 7013TIP3    H242455   0.615   2.218   1.000 -0.0174 -0.3968  0.7078
 7014TIP3   OH242456   3.863   3.272  16.863  0.0210 -0.0515  0.1234
 7014TIP3    H142457   3.803   3.315  16.924 -0.2004 -0.9487  0.5435
 7014TIP3    H242458   3.886   3.190  16.905  0.0337 -0.5886 -0.9050
 7015TIP3   OH242459   0.182   5.107   6.577 -0.2235 -0.0872 -0.6050
 7015TIP3    H142460   0.109   5.158   6.540  0.0500 -0.2185 -1.3368
 7015TIP3    H242461   0.140   5.047   6.639 -0.4697  1.5653  0.8941
 7016TIP3   OH242462   2.621   2.037  13.550  0.4007 -0.2261 -0.0173
 7016TIP3    H142463   2.614   2.132  13.548  0.3958 -0.2196 -2.0352
 7016TIP3    H242464   2.560   2.010  13.618  0.2875  1.2065  0.4781
 7017TIP3   OH242465   4.055   3.294   3.128 -0.0849  0.2571  0.0421
 7017TIP3    H142466   4.138   3.249   3.138 -0.2931  0.0497  0.8822
 7017TIP3    H242467   4.035   3.330   3.215 -0.6133  0.7533 -0.2715
 7018TIP3   OH242468   5.657   5.334   4.536 -0.4763  0.4288 -0.2333
 7018TIP3    H142469   5.709   5.293   4.467 -0.1320  1.1851 -0.4392
 7018TIP3    H242470   5.652   5.268   4.605  0.0339  0.0338 -0.5677
 7019TIP3   OH242471   6.187   5.783  16.035 -0.2642 -0.4626 -0.0470
 7019TIP3    H142472   6.216   5.709  15.981  0.1345  0.0074 -0.4980
 7019TIP3    H242473   6.168   5.852  15.971  2.9055  1.0823  0.4428
 7020TIP3   OH242474   3.500   1.938  16.064  0.3622 -0.4171 -0.1840
 7020TIP3    H142475   3.566   1.896  16.119 -0.8852  0.4816  2.1627
 7020TIP3    H242476   3.509   2.031  16.083 -1.2705 -0.2426 -0.1210
 7021TIP3   OH242477   1.763   1.277  13.628  0.3074  0.3549  0.0849
 7021TIP3    H142478   1.713   1.199  13.604  0.9051  0.4088 -1.4138
 7021TIP3    H242479   1.735   1.296  13.718 -1.2097 -0.5043 -0.1661
 7022TIP3   OH242480   2.455   3.329   4.064  0.3146 -0.1994 -0.2642
 7022TIP3    H142481   2.502   3.275   4.000  1.8600  0.7936 -0.0162
 7022TIP3    H242482   2.390   3.376   4.012 -2.8274 -3.9487 -0.1952
 7023TIP3   OH242483   5.088   1.445   3.259 -0.4851 -0.2684 -0.0069
 7023TIP3    H142484   5.070   1.354   3.234 -1.3521 -0.0973 -0.0454
 7023TIP3    H242485   5.023   1.496   3.211 -0.3783  0.3198  0.4666
 7024TIP3   OH242486   0.235   6.776  10.826  0.6186  0.4975  0.0125
 7024TIP3    H142487   0.256   6.861  10.786 -0.2458  0.9171  0.4202
 7024TIP3    H242488   0.160   6.794  10.882 -0.8186 -0.9181 -1.3539
 7025TIP3   OH242489   4.972   5.330   0.741 -0.2652  0.1079 -0.9253
 7025TIP3    H142490   4.883   5.305   0.716 -0.2350 -0.7987 -0.1645
 7025TIP3    H242491   4.970   5.426   0.742 -1.4444  0.0989 -0.1912
 7026TIP3   OH242492   5.173   2.004   4.089 -0.0637  0.2124  0.4867
 7026TIP3    H142493   5.101   1.946   4.064 -0.6780  1.1110  0.1474
 7026TIP3    H242494   5.213   1.961   4.165 -0.1884 -0.9089 -0.0661
 7027TIP3   OH242495   3.551   3.314   3.742 -0.3037 -0.0161  0.8408
 7027TIP3    H142496   3.600   3.309   3.824  1.2491  0.7083  0.0039
 7027TIP3    H242497   3.618   3.315   3.674 -1.5535 -0.5590 -0.4591
 7028TIP3   OH242498   5.489   3.685   4.662  0.0122 -0.3906 -0.4091
 7028TIP3    H142499   5.554   3.615   4.665  0.1179 -0.2630  0.2797
 7028TIP3    H242500   5.537   3.764   4.686 -0.6524 -0.4892  1.3382
 7029TIP3   OH242501   5.370   5.421  15.220  0.0262  0.0925 -0.5360
 7029TIP3    H142502   5.403   5.417  15.310 -0.5344 -0.8395 -0.3505
 7029TIP3    H242503   5.301   5.488  15.223 -0.1752 -0.1257 -0.2005
 7030TIP3   OH242504   3.758   0.259  13.064 -0.3190  1.2489 -0.4844
 7030TIP3    H142505   3.746   0.322  13.136  1.1616  1.9236 -0.8098
 7030TIP3    H242506   3.752   0.312  12.985  0.7114  0.9439 -0.7688
 7031TIP3   OH242507   1.642   5.549  12.883 -0.2934 -0.5363  0.0753
 7031TIP3    H142508   1.676   5.622  12.935 -2.9055 -0.0389  1.2490
 7031TIP3    H242509   1.633   5.585  12.795  0.4359 -0.1260  0.1621
 7032TIP3   OH242510   6.732   6.127  11.767 -0.7055 -0.9371 -0.4493
 7032TIP3    H142511   6.828   6.131  11.767 -0.6947 -1.1882  0.0647
 7032TIP3    H242512   6.711   6.077  11.688 -0.4384 -0.4438 -0.8474
 7033TIP3   OH242513   4.231   5.468  16.789  0.4630 -0.1044 -0.0211
 7033TIP3    H142514   4.234   5.416  16.869 -0.6511  0.7233  0.5834
 7033TIP3    H242515   4.180   5.546  16.812  0.1273  0.1625 -1.5243
 7034TIP3   OH242516   0.639   4.644  13.474  0.3598  0.0324 -0.0993
 7034TIP3    H142517   0.691   4.566  13.492  1.1499  0.7262  0.6604
 7034TIP3    H242518   0.703   4.715  13.466 -0.3526  0.6287 -0.6926
 7035TIP3   OH242519   4.555   6.776   4.141  0.7096  0.1611 -0.2487
 7035TIP3    H142520   4.524   6.697   4.096  0.7909 -1.0629  1.7443
 7035TIP3    H242521   4.606   6.744   4.215 -0.0519  2.0470  1.1937
 7036TIP3   OH242522   1.598   3.589  14.313  0.1931 -0.4196 -0.1690
 7036TIP3    H142523   1.544   3.582  14.392  0.9927 -0.8604  0.3465
 7036TIP3    H242524   1.587   3.505  14.268  2.1570 -1.4078  1.0711
 7037TIP3   OH242525   1.768   6.787   0.493  0.3559 -0.0186 -0.2362
 7037TIP3    H142526   1.792   6.859   0.433 -2.0747  0.9092 -0.2132
 7037TIP3    H242527   1.720   6.725   0.438 -0.1865 -0.1243  0.3456
 7038TIP3   OH242528   3.627   1.617  10.588  0.1000  0.3964  0.9112
 7038TIP3    H142529   3.670   1.619  10.673 -0.4993 -1.0378  1.2926
 7038TIP3    H242530   3.542   1.575  10.606  0.6054 -1.4258 -0.6280
 7039TIP3   OH242531   0.557   4.947   0.881 -0.2179  0.2623 -0.0102
 7039TIP3    H142532   0.610   4.958   0.960  0.9920  1.0450 -0.8869
 7039TIP3    H242533   0.571   5.028   0.831  0.5868 -0.9526 -1.8862
 7040TIP3   OH242534   0.662   4.430  16.804 -0.5728 -0.0398 -0.4709
 7040TIP3    H142535   0.629   4.340  16.796  0.2148 -0.3237 -0.6782
 7040TIP3    H242536   0.639   4.471  16.720  2.1415 -1.1305 -1.8905
 7041TIP3   OH242537   2.645   1.508  14.279 -0.4129  0.2248 -0.4173
 7041TIP3    H142538   2.727   1.556  14.286 -0.2089 -0.2199  0.3444
 7041TIP3    H242539   2.586   1.567  14.231  0.4861  0.3630 -1.3992
 7042TIP3   OH242540   0.467   4.312  11.069  0.2762  0.3449 -0.2396
 7042TIP3    H142541   0.401   4.248  11.042  0.5350 -0.3088  0.6090
 7042TIP3    H242542   0.419   4.393  11.084  0.0074  0.5144 -1.8016
 7043TIP3   OH242543   4.412   4.954  12.256 -1.1528 -0.1767 -0.0976
 7043TIP3    H142544   4.440   4.871  12.217 -1.3304 -0.1074 -0.3755
 7043TIP3    H242545   4.317   4.957  12.240 -1.2839 -0.2923  0.6133
 7044TIP3   OH242546   4.635   0.629  15.537  0.2557 -0.4337  0.3543
 7044TIP3    H142547   4.575   0.672  15.476 -1.2515 -0.5284  1.6933
 7044TIP3    H242548   4.706   0.597  15.482  0.2684  1.6965 -1.0077
 7045TIP3   OH242549   5.181   2.001   2.369 -0.0430 -0.5201  0.1958
 7045TIP3    H142550   5.220   2.002   2.456  0.1893  0.5811  0.0863
 7045TIP3    H242551   5.088   2.021   2.384  0.3625  1.6505  0.0370
 7046TIP3   OH242552   6.723   1.068  14.545 -0.0239  0.0303 -0.7387
 7046TIP3    H142553   6.681   0.994  14.502  1.4407 -0.7596 -0.8784
 7046TIP3    H242554   6.776   1.029  14.615 -0.2279  1.0684  0.0302
 7047TIP3   OH242555   6.768   0.565  14.645 -0.3228  0.5482 -0.6631
 7047TIP3    H142556   6.769   0.630  14.715  3.8750  2.7085 -2.3880
 7047TIP3    H242557   6.704   0.598  14.582 -1.5443  0.4622  0.4931
 7048TIP3   OH242558   2.379   2.780   4.434 -0.1572 -0.1476  0.4058
 7048TIP3    H142559   2.382   2.838   4.511  1.3663 -0.2690  0.4630
 7048TIP3    H242560   2.470   2.776   4.404 -0.6362 -0.6112 -1.0328
 7049TIP3   OH242561   1.695   5.284   1.358 -0.3567  1.0704  0.0792
 7049TIP3    H142562   1.639   5.208   1.340 -0.4538  1.1510  0.0360
 7049TIP3    H242563   1.664   5.317   1.442  0.4400  0.3822  0.6598
 7050TIP3   OH242564   6.326   2.227   3.064  0.2966  0.1736  0.1036
 7050TIP3    H142565   6.400   2.173   3.091  1.0072  0.2748 -1.4961
 7050TIP3    H242566   6.332   2.305   3.119 -0.3128 -1.0093  1.9360
 7051TIP3   OH242567   5.710   2.582   2.564 -0.1217 -0.5384 -0.1202
 7051TIP3    H142568   5.758   2.664   2.579  1.2324 -1.2781 -0.1986
 7051TIP3    H242569   5.736   2.525   2.637 -0.4438 -1.1562 -0.4772
 7052TIP3   OH242570   5.330   3.892   2.300 -0.2885  0.5121  0.2104
 7052TIP3    H142571   5.375   3.809   2.315  0.4727  1.0625  1.0488
 7052TIP3    H242572   5.273   3.903   2.376 -1.2907  0.1906 -0.4764
 7053TIP3   OH242573   6.439   4.346  13.115 -0.0417  0.0984 -0.0965
 7053TIP3    H142574   6.357   4.386  13.087 -0.0764  0.2709  0.2498
 7053TIP3    H242575   6.481   4.318  13.033 -0.0758  0.7319 -0.3398
 7054TIP3   OH242576   5.082   0.100   3.731  0.0215 -0.2623 -0.4122
 7054TIP3    H142577   5.048   0.052   3.655  0.2980  2.4390 -2.3992
 7054TIP3    H242578   5.176   0.080   3.731  0.1729  0.3947 -1.3463
 7055TIP3   OH242579   3.351   0.395   3.760 -0.2544  0.5714 -0.0265
 7055TIP3    H142580   3.280   0.436   3.809 -0.7360  0.0445 -0.2659
 7055TIP3    H242581   3.419   0.462   3.755  0.1356  0.3772  2.0296
 7056TIP3   OH242582   2.811   1.502   5.033 -0.1587 -0.4534  0.2271
 7056TIP3    H142583   2.791   1.595   5.045  0.3949 -0.2976 -0.0682
 7056TIP3    H242584   2.895   1.490   5.076  0.1574 -0.6443 -0.4367
 7057TIP3   OH242585   4.228   3.277   4.894  0.6398 -0.1029 -0.2759
 7057TIP3    H142586   4.322   3.272   4.875  0.9994 -1.4820  1.5027
 7057TIP3    H242587   4.223   3.332   4.972 -0.1307  0.5501 -0.7764
 7058TIP3   OH242588   5.327   1.426   5.592 -0.6465  0.5209  0.0431
 7058TIP3    H142589   5.364   1.485   5.526 -1.0701 -2.4090 -3.1494
 7058TIP3    H242590   5.403   1.389   5.636 -0.2926  1.7409  0.4869
 7059TIP3   OH242591   6.512   4.054   3.871 -0.2395  0.5005  0.0807
 7059TIP3    H142592   6.422   4.058   3.841 -0.7355  3.2727  1.6025
 7059TIP3    H242593   6.562   4.027   3.794 -2.4810 -3.5990 -0.2252
 7060TIP3   OH242594   4.914   2.542  16.139 -0.3588  0.3700 -0.1838
 7060TIP3    H142595   4.906   2.449  16.160 -2.3533  0.3839 -0.7493
 7060TIP3    H242596   4.918   2.545  16.044  2.9734  0.7040 -0.1501
 7061TIP3   OH242597   2.377   4.051  16.498 -0.1607 -0.3311 -0.4973
 7061TIP3    H142598   2.449   4.114  16.497  0.0026 -0.4784  0.5643
 7061TIP3    H242599   2.383   4.007  16.413  0.8874 -0.2189 -0.5027
 7062TIP3   OH242600   1.784   6.474  12.932  0.3788 -0.4914  0.1132
 7062TIP3    H142601   1.763   6.550  12.987  0.4460  0.7757 -1.5517
 7062TIP3    H242602   1.699   6.444  12.899  0.4898 -0.1747 -0.4629
 7063TIP3   OH242603   0.688   4.116   4.046 -0.6319  0.0964 -0.1265
 7063TIP3    H142604   0.600   4.082   4.064 -0.7938  0.1662 -0.7778
 7063TIP3    H242605   0.674   4.189   3.987 -0.3133  1.5678  1.5309
 7064TIP3   OH242606   3.398   6.318   0.189  0.4211 -0.2078  0.2767
 7064TIP3    H142607   3.460   6.262   0.236  1.4489  0.5334 -0.1607
 7064TIP3    H242608   3.453   6.385   0.148 -0.5608 -0.2677 -1.1739
 7065TIP3   OH242609   4.938   5.714  16.212  0.2918  0.3053 -0.5953
 7065TIP3    H142610   4.861   5.688  16.161 -0.1849 -0.8566  0.6719
 7065TIP3    H242611   4.991   5.765  16.151  0.4299 -2.1864 -2.7131
 7066TIP3   OH242612   6.390   4.450   2.108 -0.3121  0.0061  0.1257
 7066TIP3    H142613   6.376   4.512   2.036  1.3610  1.1571  0.7399
 7066TIP3    H242614   6.332   4.481   2.177  0.8441  1.2196  0.5914
 7067TIP3   OH242615   6.474   1.928   1.268 -0.1558  0.0688  0.2445
 7067TIP3    H142616   6.470   1.976   1.350 -0.2192  1.4164 -0.5059
 7067TIP3    H242617   6.393   1.952   1.222 -0.8354 -1.8242  0.3843
 7068TIP3   OH242618   3.359   4.119  13.571  0.4128 -1.1593 -0.1215
 7068TIP3    H142619   3.319   4.174  13.639  0.4686 -0.9638 -0.2448
 7068TIP3    H242620   3.439   4.086  13.612  1.4462  0.4748 -0.7076
 7069TIP3   OH242621   1.030   3.377   0.992  0.2659  0.2151 -0.2942
 7069TIP3    H142622   0.970   3.304   0.980  0.2394  0.2241 -0.2176
 7069TIP3    H242623   1.115   3.344   0.963  0.1022  0.4005 -0.9871
 7070TIP3   OH242624   2.098   4.246   2.949  0.8629 -0.0015  0.2269
 7070TIP3    H142625   2.045   4.287   2.881  0.0761 -0.7521  0.3620
 7070TIP3    H242626   2.055   4.272   3.031  1.3755  0.3065  0.4016
 7071TIP3   OH242627   4.464   3.361   4.729  0.2248  0.4081 -0.4902
 7071TIP3    H142628   4.490   3.445   4.692  0.8418 -0.2751 -1.6935
 7071TIP3    H242629   4.520   3.348   4.805 -1.9527  2.4504  1.6020
 7072TIP3   OH242630   2.720   1.759   5.043  0.6708  0.0453 -0.0397
 7072TIP3    H142631   2.634   1.786   5.075  0.6163 -0.4105  0.2110
 7072TIP3    H242632   2.742   1.823   4.975  1.0260  1.3729  1.2534
 7073TIP3   OH242633   0.479   0.775   0.177 -0.3529  0.6701  0.1853
 7073TIP3    H142634   0.461   0.770   0.271  0.1820 -0.0629  0.2594
 7073TIP3    H242635   0.446   0.860   0.150 -0.5641  0.8580  1.0300
 7074TIP3   OH242636   5.313   3.815   5.588  0.4747  0.2308  0.1520
 7074TIP3    H142637   5.351   3.796   5.503 -1.6373  1.7346 -1.2146
 7074TIP3    H242638   5.285   3.730   5.622  1.5395 -0.4042 -0.5014
 7075TIP3   OH242639   1.311   4.082  11.811 -0.3864 -0.1995 -0.2002
 7075TIP3    H142640   1.363   4.012  11.851 -1.0927 -0.7623 -0.2534
 7075TIP3    H242641   1.220   4.055  11.823 -0.6988  0.9726  0.2516
 7076TIP3   OH242642   3.402   5.891   4.326  0.3899 -0.2971  0.3013
 7076TIP3    H142643   3.452   5.812   4.347 -1.0226 -1.6846 -1.2395
 7076TIP3    H242644   3.467   5.952   4.293  1.4184 -1.0889  0.7991
 7077TIP3   OH242645   5.414   3.305   1.452  0.0998  0.3487 -0.5417
 7077TIP3    H142646   5.465   3.329   1.375 -0.0758  0.7683 -0.5290
 7077TIP3    H242647   5.405   3.387   1.502 -2.7116  0.9153 -1.7755
 7078TIP3   OH242648   6.486   3.542   1.617 -0.4321  0.0805 -0.1976
 7078TIP3    H142649   6.514   3.453   1.593  0.1953  0.6111 -1.5674
 7078TIP3    H242650   6.453   3.534   1.706 -2.9678 -2.1065 -1.1800
 7079TIP3   OH242651   0.557   4.447  13.786  0.0693  0.0931  0.6099
 7079TIP3    H142652   0.492   4.508  13.822 -0.5532  1.0323 -1.9077
 7079TIP3    H242653   0.531   4.435  13.695  2.4083 -0.9691  0.0032
 7080TIP3   OH242654   0.682   1.497  12.883 -0.1653  0.2674  0.8437
 7080TIP3    H142655   0.724   1.569  12.836 -0.3007  0.5370  1.1324
 7080TIP3    H242656   0.729   1.419  12.855 -0.1064  0.4532  0.4251
 7081TIP3   OH242657   5.312   1.941  10.888 -0.3901 -0.4961  0.0753
 7081TIP3    H142658   5.227   1.976  10.862 -0.7290 -2.5636 -1.9273
 7081TIP3    H242659   5.295   1.897  10.971 -1.2836 -0.7860 -0.2480
 7082TIP3   OH242660   5.428   5.695  13.102  0.1606 -0.0361  0.1370
 7082TIP3    H142661   5.414   5.771  13.158  1.5475 -0.1546  0.6878
 7082TIP3    H242662   5.485   5.637  13.153 -0.4946 -1.2421 -0.4585
 7083TIP3   OH242663   3.326   2.716  11.657 -0.1548 -0.3849 -0.0574
 7083TIP3    H142664   3.300   2.808  11.646 -0.3972 -0.6897 -2.9184
 7083TIP3    H242665   3.400   2.719  11.717 -0.4422  1.6268  0.2731
 7084TIP3   OH242666   2.980   6.052  16.007  0.2463 -0.1130  0.0764
 7084TIP3    H142667   3.020   5.998  16.076 -0.5121 -0.0445  0.5837
 7084TIP3    H242668   2.889   6.063  16.036 -0.0859 -0.0994 -0.9512
 7085TIP3   OH242669   1.520   3.536  14.869  0.7222 -0.3170 -0.5406
 7085TIP3    H142670   1.482   3.448  14.860 -0.4154 -0.1023  1.5544
 7085TIP3    H242671   1.445   3.593  14.885  1.5472  0.8791 -0.8094
 7086TIP3   OH242672   1.220   6.339  16.518  0.1825 -0.3389 -0.4877
 7086TIP3    H142673   1.149   6.355  16.580 -0.2606  0.1336 -1.0949
 7086TIP3    H242674   1.297   6.381  16.557 -0.4119  1.2389 -0.9126
 7087TIP3   OH242675   2.189   5.896  12.920  0.0964  0.0958  0.4250
 7087TIP3    H142676   2.280   5.879  12.892 -0.3364 -0.2680 -0.8565
 7087TIP3    H242677   2.193   5.982  12.962  0.8853  0.5358 -0.4855
 7088TIP3   OH242678   0.444   1.005   4.600  0.1012  0.1807  0.1188
 7088TIP3    H142679   0.493   0.926   4.621 -1.3993 -0.3559  1.8371
 7088TIP3    H242680   0.353   0.976   4.595 -0.2394  1.4021 -1.5541
 7089TIP3   OH242681   0.434   3.049  12.764 -0.0488  0.5161 -0.1014
 7089TIP3    H142682   0.498   3.118  12.746  1.3516 -1.0990 -1.6371
 7089TIP3    H242683   0.369   3.092  12.820  0.5979  3.1465 -1.1870
 7090TIP3   OH242684   4.490   5.627   3.500 -0.0238 -0.0380  0.3500
 7090TIP3    H142685   4.537   5.544   3.510  0.5131  0.3420  1.1076
 7090TIP3    H242686   4.557   5.694   3.515 -1.1056  0.5507  3.3050
 7091TIP3   OH242687   2.573   0.683  13.445  0.0641 -0.1200 -0.6232
 7091TIP3    H142688   2.586   0.653  13.535  1.3719  3.1658  0.4141
 7091TIP3    H242689   2.657   0.670  13.402 -0.3316 -0.9487 -1.1837
 7092TIP3   OH242690   4.451   1.134   4.050 -0.7324 -0.4874 -0.2651
 7092TIP3    H142691   4.443   1.224   4.082 -1.0743  0.2653 -2.3549
 7092TIP3    H242692   4.370   1.118   4.002 -0.9022 -2.1250  0.4898
 7093TIP3   OH242693   6.144   3.647   2.016  0.2112  0.0351  0.0831
 7093TIP3    H142694   6.065   3.661   2.068  1.0695  1.1063  1.1754
 7093TIP3    H242695   6.215   3.670   2.076  1.7116 -4.9944  0.6453
 7094TIP3   OH242696   5.985   3.475  16.347 -0.2279 -0.7595  0.0387
 7094TIP3    H142697   6.000   3.382  16.333 -0.0389 -1.2492  2.8209
 7094TIP3    H242698   5.891   3.486  16.338 -0.6834 -1.9072  2.5647
 7095TIP3   OH242699   1.608   5.689  13.287  0.2146 -0.6748 -0.5369
 7095TIP3    H142700   1.564   5.680  13.372 -1.9499 -1.5449 -1.6637
 7095TIP3    H242701   1.629   5.600  13.261  0.4903 -0.4524 -1.0922
 7096TIP3   OH242702   0.848   5.132   3.553 -0.7415 -0.6206  0.2933
 7096TIP3    H142703   0.867   5.048   3.594 -1.2529 -0.9994 -0.2149
 7096TIP3    H242704   0.896   5.196   3.604  0.3105 -1.3136  0.2025
 7097TIP3   OH242705   3.096   0.114   2.360  0.4120 -0.2259  0.0005
 7097TIP3    H142706   3.048   0.039   2.397 -1.8075  0.8899 -0.5003
 7097TIP3    H242707   3.049   0.191   2.393  0.0540  0.8632 -2.8252
 7098TIP3   OH242708   3.713   1.467   2.419  0.6234 -0.0508  0.1812
 7098TIP3    H142709   3.628   1.510   2.425  0.0367 -0.9030 -1.5061
 7098TIP3    H242710   3.739   1.452   2.510 -0.0292  2.0901  0.7594
 7099TIP3   OH242711   2.027   3.915   5.893 -0.6987 -0.5771  0.3838
 7099TIP3    H142712   2.110   3.961   5.898 -0.2754 -1.0459 -1.5334
 7099TIP3    H242713   2.043   3.843   5.832 -2.5238 -0.6491 -0.0701
 7100TIP3   OH242714   4.533   5.005  15.375  0.8151 -0.2196 -0.1249
 7100TIP3    H142715   4.454   5.016  15.428  0.8454 -1.6229  0.2499
 7100TIP3    H242716   4.599   5.059  15.417 -0.1206  1.6027 -0.8877
 7101TIP3   OH242717   3.486   6.358  17.025  0.7474 -0.1124 -0.6339
 7101TIP3    H142718   3.577   6.375  17.048  0.8892 -0.2319 -1.0914
 7101TIP3    H242719   3.474   6.264  17.039  0.4785  0.0326  0.1471
 7102TIP3   OH242720   1.194   0.440  15.399 -0.4133 -0.2553 -0.2421
 7102TIP3    H142721   1.209   0.351  15.428  2.5642  0.1044 -0.4109
 7102TIP3    H242722   1.187   0.491  15.480  0.9357 -0.2531 -0.1010
 7103TIP3   OH242723   0.149   6.217  15.782 -0.2069 -0.2204 -0.2929
 7103TIP3    H142724   0.099   6.293  15.754 -0.1229 -0.0777 -0.0562
 7103TIP3    H242725   0.086   6.164  15.831 -0.1712 -0.1222 -0.1388
 7104TIP3   OH242726   5.825   3.051   2.699 -0.0262 -0.3039 -0.5059
 7104TIP3    H142727   5.788   3.092   2.778 -1.0302 -0.2029 -1.0157
 7104TIP3    H242728   5.907   3.098   2.685 -1.3078  1.8541 -1.2803
 7105TIP3   OH242729   0.568   4.677  15.238 -0.4166 -0.6142  0.2508
 7105TIP3    H142730   0.568   4.743  15.307  0.1895 -0.5801  0.2249
 7105TIP3    H242731   0.489   4.695  15.188 -0.2230  0.1356  0.2032
 7106TIP3   OH242732   3.094   6.078   0.633  0.3554 -0.0194  0.0695
 7106TIP3    H142733   3.178   6.038   0.658  0.2571 -1.4560 -1.6954
 7106TIP3    H242734   3.118   6.149   0.574  0.3447 -0.9476 -1.0919
 7107TIP3   OH242735   5.215   0.495   2.002  0.2881 -0.1056 -0.6322
 7107TIP3    H142736   5.308   0.517   1.998  0.3535 -0.4932 -2.4505
 7107TIP3    H242737   5.206   0.439   2.078  2.0087 -1.9551 -1.6931
 7108TIP3   OH242738   0.102   4.027   1.853 -0.2127  0.2615 -0.1455
 7108TIP3    H142739   0.192   3.993   1.861  1.1306  2.6927 -3.1872
 7108TIP3    H242740   0.082   4.062   1.940  2.9476  2.1435 -0.0288
 7109TIP3   OH242741   5.367   5.916  13.246 -0.0284  0.0511  0.7399
 7109TIP3    H142742   5.383   5.907  13.339 -0.5818  0.1720  0.8525
 7109TIP3    H242743   5.308   5.991  13.239 -1.2670 -0.9108  0.4361
 7110TIP3   OH242744   0.562   2.889   1.212  0.2245  0.0631 -0.2679
 7110TIP3    H142745   0.568   2.878   1.117 -0.6138 -1.2372 -0.2105
 7110TIP3    H242746   0.510   2.968   1.224  1.9653  1.3488 -0.8447
 7111TIP3   OH242747   0.525   6.656  12.721 -0.2016  0.0274 -0.3482
 7111TIP3    H142748   0.538   6.735  12.773  2.3995 -1.0504  0.7972
 7111TIP3    H242749   0.430   6.652  12.706 -0.5711  2.4656  0.9180
 7112TIP3   OH242750   2.316   6.253   0.063  0.2844 -0.2086  0.7162
 7112TIP3    H142751   2.399   6.235   0.019  0.3150  1.1631  0.1678
 7112TIP3    H242752   2.310   6.348   0.065 -0.1646 -0.2318  2.8849
 7113TIP3   OH242753   0.322   2.544   2.411 -0.3178  0.3600 -0.1938
 7113TIP3    H142754   0.343   2.499   2.329 -1.0806  0.7687 -0.6303
 7113TIP3    H242755   0.226   2.537   2.417 -0.1708 -0.7780  1.3227
 7114TIP3   OH242756   5.452   5.912  10.948  0.2312  0.2170  0.4088
 7114TIP3    H142757   5.460   5.976  10.876  2.1634 -0.7843 -0.3612
 7114TIP3    H242758   5.463   5.827  10.905  1.0806 -0.4307  1.8354
 7115TIP3   OH242759   3.416   4.822   2.965 -0.5639 -0.1244 -0.5994
 7115TIP3    H142760   3.354   4.889   2.937 -2.0686 -1.9065 -1.7005
 7115TIP3    H242761   3.430   4.841   3.058 -0.7245  1.8448 -0.9210
 7116TIP3   OH242762   4.528   5.012   1.843  0.3456  0.1868  0.3095
 7116TIP3    H142763   4.553   4.983   1.931  1.2615 -0.9229 -0.3084
 7116TIP3    H242764   4.470   4.943   1.810 -0.6695  0.9981  0.3351
 7117TIP3   OH242765   6.063   2.130  17.094 -0.0562  0.1061 -1.0481
 7117TIP3    H142766   6.022   2.175  17.168 -1.5052 -2.3355 -0.2396
 7117TIP3    H242767   6.151   2.167  17.089 -0.6790  1.9485  0.4254
 7118TIP3   OH242768   5.829   6.467  15.519  0.0808  0.0464 -0.1380
 7118TIP3    H142769   5.784   6.551  15.511 -1.9088 -1.0364 -1.0990
 7118TIP3    H242770   5.866   6.468  15.607 -0.2802  1.7603  0.0165
 7119TIP3   OH242771   5.934   3.779   3.662  0.1972 -0.2425 -0.9877
 7119TIP3    H142772   5.934   3.776   3.758 -0.2492 -1.4340 -1.0102
 7119TIP3    H242773   5.857   3.832   3.640 -0.0751 -0.5105 -0.6946
 7120TIP3   OH242774   4.914   0.896  15.593 -0.0877  0.1139  0.4079
 7120TIP3    H142775   4.915   0.920  15.500 -0.4803 -0.9211  0.1270
 7120TIP3    H242776   4.988   0.945  15.630  0.4122  0.1288 -0.5564
 7121TIP3   OH242777   1.070   5.650   3.840  0.6536 -0.0531  0.1711
 7121TIP3    H142778   1.099   5.581   3.780  0.9657 -0.8304  1.1790
 7121TIP3    H242779   1.060   5.605   3.924 -0.9828  0.7275  0.4419
 7122TIP3   OH242780   5.670   6.504   4.853  0.2053 -0.1196 -0.1622
 7122TIP3    H142781   5.579   6.520   4.878  0.3835  1.7013 -0.5550
 7122TIP3    H242782   5.719   6.575   4.894  1.5037 -1.1485  0.1675
 7123TIP3   OH242783   4.519   1.487   1.061  0.1710  0.4896  0.5134
 7123TIP3    H142784   4.502   1.412   1.119  0.4596 -0.5427 -0.6856
 7123TIP3    H242785   4.431   1.520   1.040 -0.4886 -2.7690 -3.0047
 7124TIP3   OH242786   4.689   5.231   2.915  0.1048  0.6178 -0.7537
 7124TIP3    H142787   4.617   5.263   2.969  1.4107  2.1404  0.1959
 7124TIP3    H242788   4.654   5.154   2.870 -0.9715 -0.9743  2.5049
 7125TIP3   OH242789   1.367   0.223  16.104  0.5436  0.1891 -0.2573
 7125TIP3    H142790   1.397   0.312  16.085  2.3376 -0.6322 -1.5435
 7125TIP3    H242791   1.277   0.221  16.070 -0.3289  2.0942  1.7420
 7126TIP3   OH242792   3.845   0.240   1.648  0.5450 -0.5134  0.2029
 7126TIP3    H142793   3.750   0.254   1.656  0.6448  1.2937 -1.1944
 7126TIP3    H242794   3.853   0.167   1.585  0.0226  1.5207 -2.4055
 7127TIP3   OH242795   2.127   3.657   4.463  0.4912  0.3183 -0.2797
 7127TIP3    H142796   2.134   3.688   4.553  2.8148 -0.3182 -0.1909
 7127TIP3    H242797   2.215   3.666   4.427  0.2428 -1.8681 -1.6523
 7128TIP3   OH242798   5.923   2.759   5.545  0.3428  0.0066  0.4728
 7128TIP3    H142799   5.949   2.773   5.454  1.7756 -0.6197  0.7550
 7128TIP3    H242800   5.861   2.686   5.541  0.4951 -0.1038  0.0040
 7129TIP3   OH242801   0.204   0.117  15.854  0.1632  0.1524  0.0518
 7129TIP3    H142802   0.135   0.183  15.852  0.0363  0.0126 -0.1283
 7129TIP3    H242803   0.283   0.164  15.826 -0.0252  0.1046 -0.5608
 7130TIP3   OH242804   0.034   3.349   0.696  0.4453 -0.1836 -0.1144
 7130TIP3    H142805   0.041   3.302   0.613  1.3180  1.6320 -1.1345
 7130TIP3    H242806  -0.057   3.377   0.701  0.0860 -1.3521  0.1802
 7131TIP3   OH242807   6.021   0.259  11.711 -0.6396 -0.3251 -0.7448
 7131TIP3    H142808   5.942   0.231  11.757  0.6304 -1.9408  0.5398
 7131TIP3    H242809   6.061   0.324  11.768 -0.6029 -0.1136 -1.0075
 7132TIP3   OH242810   4.799   2.770  12.133 -0.1730  0.8045 -0.4076
 7132TIP3    H142811   4.815   2.843  12.193  1.3658 -0.3135  0.6193
 7132TIP3    H242812   4.715   2.734  12.161  0.4127  0.4399  0.9579
 7133TIP3   OH242813   3.725   1.217   5.550  0.3601  0.5465  0.1669
 7133TIP3    H142814   3.817   1.243   5.542  0.3313  0.3340 -0.9665
 7133TIP3    H242815   3.677   1.279   5.495 -0.3313  1.3440  1.5875
 7134TIP3   OH242816   4.795   1.409   0.102 -0.6648 -0.2789 -0.7791
 7134TIP3    H142817   4.799   1.450   0.016  1.2721  0.0886 -0.5642
 7134TIP3    H242818   4.713   1.441   0.140 -0.0876  2.0340 -1.3139
 7135TIP3   OH242819   3.784   1.471   0.509  0.7082  0.0252 -0.9426
 7135TIP3    H142820   3.692   1.464   0.485 -0.5726  3.3751  2.1209
 7135TIP3    H242821   3.816   1.547   0.459  0.9984  0.5580  0.0327
 7136TIP3   OH242822   3.041   1.728  12.621  0.5813  0.1285 -0.1590
 7136TIP3    H142823   3.126   1.687  12.608  0.9367  1.0800 -0.8647
 7136TIP3    H242824   3.015   1.702  12.710  1.3598 -0.5809 -0.1301
 7137TIP3   OH242825   4.042   2.766   5.290 -0.3706 -0.1525  0.0056
 7137TIP3    H142826   3.999   2.705   5.350 -0.2172 -0.3888 -0.1227
 7137TIP3    H242827   3.993   2.847   5.299  0.7612  0.3997  1.8548
 7138TIP3   OH242828   0.592   4.837  13.213  0.1496 -0.0630  0.5426
 7138TIP3    H142829   0.665   4.823  13.274  0.5240 -0.3627  0.0337
 7138TIP3    H242830   0.565   4.927  13.229  0.0751 -0.2211  1.3330
 7139TIP3   OH242831   5.327   2.872  16.277 -0.8938 -0.1250 -0.0799
 7139TIP3    H142832   5.368   2.937  16.219  0.6019 -0.9738 -0.0168
 7139TIP3    H242833   5.250   2.843  16.229  0.4479 -1.0063 -1.8392
 7140TIP3   OH242834   6.452   1.728  11.362  0.2782  0.4317 -0.1337
 7140TIP3    H142835   6.387   1.664  11.335 -0.2321  0.9403 -0.1400
 7140TIP3    H242836   6.403   1.810  11.369  1.4092  1.4530 -2.8356
 7141TIP3   OH242837   3.962   1.976   3.695  0.4234  0.0743 -0.4807
 7141TIP3    H142838   4.031   1.926   3.651  1.8111  0.3663  1.2472
 7141TIP3    H242839   3.943   1.925   3.775  0.0298  1.0010  0.0337
 7142TIP3   OH242840   0.317   5.503   1.177  0.4531 -0.2531  0.3193
 7142TIP3    H142841   0.378   5.433   1.198  1.8150  0.8483  0.2016
 7142TIP3    H242842   0.352   5.580   1.221 -0.4227  0.5911 -0.3898
 7143TIP3   OH242843   4.338   3.194   0.364 -0.1376  0.4291  0.3008
 7143TIP3    H142844   4.401   3.198   0.436  0.0226 -3.0790  0.5107
 7143TIP3    H242845   4.259   3.158   0.404  0.1090 -2.0393 -1.2760
 7144TIP3   OH242846   0.501   1.384  13.186  0.5517 -0.1530 -0.1124
 7144TIP3    H142847   0.479   1.325  13.114  2.3956  1.1875 -1.9153
 7144TIP3    H242848   0.450   1.463  13.168 -0.0927 -0.3142  0.9313
 7145TIP3   OH242849   5.817   2.842   1.093 -0.2076 -0.2108  0.1741
 7145TIP3    H142850   5.897   2.820   1.045 -1.2150 -0.3243 -1.5607
 7145TIP3    H242851   5.818   2.938   1.097 -1.0099 -0.0586 -1.8467
 7146TIP3   OH242852   6.412   1.049   3.530  0.4830 -0.4787 -0.2701
 7146TIP3    H142853   6.324   1.028   3.561 -0.0666  0.0302 -1.4253
 7146TIP3    H242854   6.466   0.974   3.557 -0.5123 -1.2631 -0.4078
 7147TIP3   OH242855   6.310   4.241  12.246  0.2871  0.3094 -0.1441
 7147TIP3    H142856   6.391   4.211  12.287  1.0326 -0.8742 -2.2986
 7147TIP3    H242857   6.338   4.290  12.169 -1.0334  3.4271  1.1908
 7148TIP3   OH242858   3.939   6.718   5.845  0.8196  0.6837 -0.0946
 7148TIP3    H142859   3.927   6.661   5.769 -0.2894 -0.1424  0.6694
 7148TIP3    H242860   4.023   6.690   5.882 -0.2084 -1.2815  0.9026
 7149TIP3   OH242861   0.809   4.677   0.351 -0.2512  0.1426 -0.2142
 7149TIP3    H142862   0.886   4.676   0.408  0.8376 -1.7305 -1.5596
 7149TIP3    H242863   0.736   4.658   0.409  0.7112 -0.9462  0.6994
 7150TIP3   OH242864   2.184   5.816   0.080  0.0355  0.1421  0.0593
 7150TIP3    H142865   2.154   5.871   0.008  0.1758 -1.4113 -1.2425
 7150TIP3    H242866   2.224   5.877   0.142 -0.1344  1.5329 -1.1519
 7151TIP3   OH242867   3.694   6.018   2.335 -0.0820  0.7431 -0.2003
 7151TIP3    H142868   3.746   6.006   2.255 -0.1346 -0.8060 -0.0277
 7151TIP3    H242869   3.610   6.053   2.303 -0.1274  0.0842 -0.8414
 7152TIP3   OH242870   6.132   5.615   1.573  0.2973 -0.1507 -0.8794
 7152TIP3    H142871   6.154   5.571   1.655  1.9462  0.1304 -1.1356
 7152TIP3    H242872   6.060   5.674   1.596 -2.0207 -2.8929 -0.5324
 7153TIP3   OH242873   2.336   1.796  16.443 -0.2309  0.3172 -0.2658
 7153TIP3    H142874   2.325   1.768  16.534 -0.0424  0.2993 -0.2496
 7153TIP3    H242875   2.417   1.847  16.443 -1.3737  2.2628  0.0454
 7154TIP3   OH242876   3.592   4.385   5.346 -0.4292  0.0699 -0.9037
 7154TIP3    H142877   3.524   4.395   5.412 -0.5035 -0.6776 -0.8582
 7154TIP3    H242878   3.673   4.377   5.396 -0.1104  2.2069 -0.9835
 7155TIP3   OH242879   6.314   1.288   2.215  0.8760  0.1134  0.4922
 7155TIP3    H142880   6.292   1.304   2.123  0.0814  1.5245  0.9047
 7155TIP3    H242881   6.272   1.205   2.235 -0.1916  0.5122 -0.0230
 7156TIP3   OH242882   5.685   0.396   4.940  0.2224 -0.0451  0.8755
 7156TIP3    H142883   5.639   0.333   4.996 -0.0357  1.2617  2.2002
 7156TIP3    H242884   5.666   0.481   4.980  0.1687  0.9286 -1.1452
 7157TIP3   OH242885   2.166   0.607  13.816 -0.3367 -0.9342  0.0916
 7157TIP3    H142886   2.164   0.530  13.759 -0.8359 -0.8039 -0.0825
 7157TIP3    H242887   2.173   0.681  13.755 -3.2907 -0.6314 -0.0243
 7158TIP3   OH242888   5.893   4.283   4.043 -0.8796  0.4102 -0.0460
 7158TIP3    H142889   5.878   4.233   3.964 -2.3971  0.1150  0.4031
 7158TIP3    H242890   5.887   4.219   4.114 -2.2294  1.0769  0.4869
 7159TIP3   OH242891   1.810   4.481  12.357 -0.4311 -0.0064 -0.2861
 7159TIP3    H142892   1.891   4.513  12.318 -0.5074  1.9344  0.9941
 7159TIP3    H242893   1.835   4.452  12.445 -0.9872 -0.1603 -0.1714
 7160TIP3   OH242894   1.977   6.786   6.373  0.1259  0.5090 -0.3390
 7160TIP3    H142895   1.945   6.710   6.323  1.1623  0.4554 -0.9440
 7160TIP3    H242896   1.994   6.752   6.460  0.2788  0.1120 -0.5211
 7161TIP3   OH242897   2.276   2.731  13.351  0.3408 -0.3398 -0.2137
 7161TIP3    H142898   2.329   2.687  13.418  0.7882 -1.2343 -1.1258
 7161TIP3    H242899   2.253   2.661  13.290 -2.2222 -0.0733  0.3370
 7162TIP3   OH242900   3.166   4.542  16.123 -0.2591  0.2655  0.4878
 7162TIP3    H142901   3.257   4.513  16.122 -0.7652 -1.3906  0.0289
 7162TIP3    H242902   3.115   4.463  16.107 -1.8370  1.0138  1.5854
 7163TIP3   OH242903   2.136   6.181   1.534 -0.2378  0.2271  0.0278
 7163TIP3    H142904   2.192   6.240   1.585 -0.2626 -0.8239  1.3285
 7163TIP3    H242905   2.142   6.097   1.579 -3.7265  0.2919  0.9562
 7164TIP3   OH242906   3.446   4.078   4.141 -0.1030 -0.0160 -0.5525
 7164TIP3    H142907   3.449   4.005   4.203  0.7044 -0.4354 -1.0648
 7164TIP3    H242908   3.356   4.078   4.108 -0.4459 -0.0039  0.3505
 7165TIP3   OH242909   5.552   4.182  12.403  0.3730 -0.3508  0.6701
 7165TIP3    H142910   5.563   4.101  12.453 -0.3541 -0.6513  0.3643
 7165TIP3    H242911   5.462   4.209  12.421  0.2078 -0.2880 -0.2101
 7166TIP3   OH242912   0.486   0.574   5.544  0.6365  0.5225 -0.5231
 7166TIP3    H142913   0.432   0.497   5.560 -0.0223  1.0072 -0.3486
 7166TIP3    H242914   0.566   0.540   5.504  1.6414 -0.5771  2.1833
 7167TIP3   OH242915   6.705   3.642   5.078 -0.0714  0.2777 -0.3070
 7167TIP3    H142916   6.760   3.720   5.081 -0.5048  0.6694 -1.9212
 7167TIP3    H242917   6.617   3.673   5.099  0.0959 -0.1676  1.1826
 7168TIP3   OH242918   5.687   5.751  14.735  0.3999  0.0915  0.0724
 7168TIP3    H142919   5.666   5.732  14.826  1.6491 -1.0427  0.1616
 7168TIP3    H242920   5.746   5.827  14.739  0.9245 -0.3161  0.2814
 7169TIP3   OH242921   0.891   2.002  14.168 -0.5184 -0.1688 -0.2399
 7169TIP3    H142922   0.886   2.090  14.204  1.9779 -0.4925  1.1480
 7169TIP3    H242923   0.892   2.015  14.073 -1.0771  1.1971 -0.0830
 7170TIP3   OH242924   3.551   2.229   2.888  0.1003 -0.4627  0.1399
 7170TIP3    H142925   3.489   2.175   2.937 -1.3041  0.1505 -0.8934
 7170TIP3    H242926   3.580   2.295   2.951 -1.5449  0.2081  0.2587
 7171TIP3   OH242927   4.520   4.328   0.057  0.2199 -0.3912 -0.5343
 7171TIP3    H142928   4.584   4.257   0.063  1.0107  0.2562 -1.0564
 7171TIP3    H242929   4.446   4.291   0.009  0.8506 -0.7144 -1.2647
 7172TIP3   OH242930   0.744   6.722  15.639 -0.0459 -0.3371 -0.0950
 7172TIP3    H142931   0.723   6.638  15.599  1.5279 -0.5263 -0.6207
 7172TIP3    H242932   0.732   6.786  15.568 -0.1598 -0.2679 -0.0137
 7173TIP3   OH242933   5.758   0.489   2.458  0.1198 -0.7134  0.0447
 7173TIP3    H142934   5.722   0.483   2.547  1.2335  0.8653  0.6442
 7173TIP3    H242935   5.848   0.456   2.466  0.4475  0.0562 -0.3317
 7174TIP3   OH242936   0.386   5.229  15.754  0.9450 -0.1009 -0.0947
 7174TIP3    H142937   0.454   5.201  15.816  1.8264  1.6948 -0.1830
 7174TIP3    H242938   0.408   5.184  15.672  0.0631 -2.0956  0.6887
 7175TIP3   OH242939   4.269   4.177  14.223  0.8397  0.3918 -0.0499
 7175TIP3    H142940   4.254   4.137  14.137  0.5889  1.3825 -0.4767
 7175TIP3    H242941   4.352   4.224  14.214  0.2814  1.3944 -0.0992
 7176TIP3   OH242942   1.869   3.783   4.053  0.8374  0.6372 -0.3761
 7176TIP3    H142943   1.822   3.807   4.133  3.5993 -0.8953  1.9017
 7176TIP3    H242944   1.820   3.708   4.018  0.1994  0.6175  0.5153
 7177TIP3   OH242945   1.956   2.075  14.485  0.0076  0.0480 -0.0176
 7177TIP3    H142946   1.944   2.059  14.391  1.1189 -1.9386  0.1358
 7177TIP3    H242947   2.035   2.129  14.491 -0.7324  1.1909 -0.2567
 7178TIP3   OH242948   2.258   6.318  11.115  0.9220  0.1241  0.2907
 7178TIP3    H142949   2.220   6.258  11.051  0.7878 -0.4283  0.8829
 7178TIP3    H242950   2.186   6.336  11.177  1.4289 -0.3889  1.0316
 7179TIP3   OH242951   3.821   1.764  13.670 -0.0752  0.4106  0.1405
 7179TIP3    H142952   3.883   1.740  13.600 -0.3977 -0.5906  0.1763
 7179TIP3    H242953   3.826   1.859  13.675  0.3894  0.4522 -0.8497
 7180TIP3   OH242954   5.187   1.320  14.743  0.3989  0.5003  0.1399
 7180TIP3    H142955   5.158   1.229  14.745  0.8299  0.2211 -2.8137
 7180TIP3    H242956   5.279   1.316  14.769  0.9248 -0.1949 -1.7133
 7181TIP3   OH242957   6.181   0.806  11.186  0.0861 -0.3896 -0.1104
 7181TIP3    H142958   6.179   0.741  11.115 -0.1551 -0.6341  0.1180
 7181TIP3    H242959   6.231   0.879  11.150 -0.5274 -0.2686 -0.7463
 7182TIP3   OH242960   4.484   2.603   2.038 -0.2387 -0.5004 -0.0150
 7182TIP3    H142961   4.427   2.527   2.055  1.6372 -2.0242 -0.1862
 7182TIP3    H242962   4.521   2.625   2.123  0.7222 -1.0660 -0.2730
 7183TIP3   OH242963   0.997   0.804   5.709 -0.1017 -0.5545 -0.1918
 7183TIP3    H142964   1.060   0.754   5.761  1.6103  1.2576 -0.3816
 7183TIP3    H242965   0.982   0.884   5.760 -0.7387 -0.0784 -1.0921
 7184TIP3   OH242966   1.768   5.953   2.242 -1.1888  0.0166 -0.1252
 7184TIP3    H142967   1.766   5.914   2.330 -0.5558  0.3370  0.0286
 7184TIP3    H242968   1.756   5.878   2.183 -0.0452 -0.4251  0.1726
 7185TIP3   OH242969   3.325   6.621   0.784 -0.2303 -0.6159 -0.1676
 7185TIP3    H142970   3.265   6.559   0.744 -4.1599  2.8718 -0.3981
 7185TIP3    H242971   3.320   6.604   0.878 -0.9376 -0.8735 -0.2524
 7186TIP3   OH242972   1.739   6.546   4.076 -0.1504 -0.3432 -0.4237
 7186TIP3    H142973   1.655   6.517   4.041 -1.1815  1.7229  0.1955
 7186TIP3    H242974   1.719   6.579   4.164  0.7127  2.7491 -1.2420
 7187TIP3   OH242975   0.403   5.851   0.957 -0.5260  0.5662 -0.2010
 7187TIP3    H142976   0.355   5.837   0.876 -1.4020  1.2026  0.1829
 7187TIP3    H242977   0.335   5.848   1.025  0.3084 -0.9213  0.6275
 7188TIP3   OH242978   1.506   2.105  13.556  0.1129 -0.3658  0.0891
 7188TIP3    H142979   1.537   2.057  13.632 -0.3756 -1.3028 -0.2847
 7188TIP3    H242980   1.429   2.151  13.586 -1.1814 -2.1959 -0.2517
 7189TIP3   OH242981   4.828   6.584   0.601 -0.2957 -0.2029  0.6982
 7189TIP3    H142982   4.825   6.628   0.516  0.6323 -0.7627  0.3582
 7189TIP3    H242983   4.752   6.618   0.649 -0.6833  0.3053 -0.2585
 7190TIP3   OH242984   3.009   1.322  16.860 -0.1109 -0.3954 -0.7289
 7190TIP3    H142985   3.023   1.415  16.842  3.6287 -0.3433  1.3885
 7190TIP3    H242986   2.975   1.320  16.950  0.8814 -1.0507 -0.3518
 7191TIP3   OH242987   2.997   2.364  12.212 -0.3166 -0.1314  0.2670
 7191TIP3    H142988   3.054   2.438  12.189  0.0454 -0.4191  0.2351
 7191TIP3    H242989   2.976   2.323  12.128  1.3113 -1.4084  0.4418
 7192TIP3   OH242990   1.925   1.077  11.964 -0.0234  0.2764 -0.3456
 7192TIP3    H142991   1.842   1.108  12.002 -0.0189  1.4694 -1.2472
 7192TIP3    H242992   1.900   1.043  11.878  0.5916  2.0720 -1.2829
 7193TIP3   OH242993   4.759   6.726  13.109 -0.0693 -0.3230  0.0224
 7193TIP3    H142994   4.792   6.637  13.106 -0.3714 -0.4607  0.6389
 7193TIP3    H242995   4.664   6.717  13.106 -0.1497 -0.0985  1.2133
 7194TIP3   OH242996   6.078   0.997   2.531  0.0678 -0.5107 -0.4926
 7194TIP3    H142997   6.070   1.016   2.437  1.5803 -1.0175 -0.7457
 7194TIP3    H242998   6.164   1.032   2.555 -0.8380  0.8095  1.0212
 7195TIP3   OH242999   3.090   5.112   5.780  0.0024 -0.0008  0.2640
 7195TIP3    H143000   3.163   5.121   5.841 -0.3154 -2.4273  1.0954
 7195TIP3    H243001   3.052   5.200   5.775  1.6413  0.8316  1.4923
 7196TIP3   OH243002   1.108   6.470   5.720 -0.0412 -0.1671  0.3239
 7196TIP3    H143003   1.193   6.492   5.682  0.1522 -0.3151  0.6642
 7196TIP3    H243004   1.047   6.475   5.647 -0.2885  3.0035  0.6250
 7197TIP3   OH243005   5.629   5.332   2.308 -0.1601  0.2113 -0.1474
 7197TIP3    H143006   5.632   5.425   2.285  0.6622  0.4090  0.7251
 7197TIP3    H243007   5.568   5.294   2.244 -1.3473  1.5282  0.1533
 7198TIP3   OH243008   5.305   5.272   0.219 -0.1539 -0.0578 -0.3856
 7198TIP3    H143009   5.255   5.281   0.300 -0.8171 -0.7995 -0.7012
 7198TIP3    H243010   5.244   5.232   0.157 -0.2107  2.0572 -1.7851
 7199TIP3   OH243011   5.459   2.345   2.755 -0.6846 -0.5284 -0.4120
 7199TIP3    H143012   5.501   2.320   2.673  0.0229 -1.2175  0.1361
 7199TIP3    H243013   5.467   2.267   2.811 -1.7090 -0.2902  0.0986
 7200TIP3   OH243014   2.869   3.846  15.598  0.3401  0.2193 -0.5509
 7200TIP3    H143015   2.944   3.799  15.635  1.0344  0.8232 -1.1834
 7200TIP3    H243016   2.804   3.845  15.669  1.9611  2.1319  1.0769
 7201TIP3   OH243017   3.795   1.841   5.404 -0.1974  0.5348  0.8853
 7201TIP3    H143018   3.794   1.862   5.498  1.9974 -0.6384  1.2557
 7201TIP3    H243019   3.852   1.764   5.398 -0.6290  0.3327 -1.3881
 7202TIP3   OH243020   3.674   5.992   4.246  0.1908 -0.1362 -0.1110
 7202TIP3    H143021   3.753   6.012   4.297  0.8364  1.2579 -1.5749
 7202TIP3    H243022   3.707   5.958   4.163 -0.8050 -0.9780 -0.1783
 7203TIP3   OH243023   4.383   6.306   0.558  0.3541  0.1232  0.2531
 7203TIP3    H143024   4.405   6.286   0.467  1.4417  0.7277  0.3526
 7203TIP3    H243025   4.432   6.387   0.576  1.7086 -0.9879  1.9387
 7204TIP3   OH243026   5.100   3.388  12.194  0.1496 -0.0683  0.2766
 7204TIP3    H143027   5.146   3.326  12.250 -0.3771  0.2475  1.0732
 7204TIP3    H243028   5.020   3.342  12.168  1.0481 -0.7531 -1.3995
 7205TIP3   OH243029   0.991   3.323  16.402 -0.0221  0.0191 -0.0309
 7205TIP3    H143030   1.079   3.286  16.405  0.7688  1.7940  0.0164
 7205TIP3    H243031   0.997   3.403  16.455 -2.1074 -0.6648  1.3450
 7206TIP3   OH243032   2.364   5.437  16.510  0.0925  0.3906 -0.2586
 7206TIP3    H143033   2.289   5.412  16.457 -0.1074 -0.7095  0.4983
 7206TIP3    H243034   2.413   5.356  16.523 -1.0013  0.0798  2.9620
 7207TIP3   OH243035   1.897   2.616  11.487  0.2107 -0.2206 -0.2047
 7207TIP3    H143036   1.882   2.564  11.408  0.4470  0.1475 -0.4999
 7207TIP3    H243037   1.843   2.575  11.554 -0.9940  0.2286 -0.8766
 7208TIP3   OH243038   3.796   4.368  13.705 -0.4786 -0.0700 -0.2690
 7208TIP3    H143039   3.700   4.375  13.707 -0.5142 -0.5113 -0.1373
 7208TIP3    H243040   3.812   4.273  13.709 -0.0343  0.0073 -0.2250
 7209TIP3   OH243041   5.747   0.903   4.433  0.8079 -0.3599 -0.3290
 7209TIP3    H143042   5.792   0.832   4.478 -0.3533 -0.9869 -0.0984
 7209TIP3    H243043   5.761   0.980   4.488  1.1246 -0.6703  0.0269
 7210TIP3   OH243044   2.364   2.382  15.229  0.0386 -0.2987  0.2407
 7210TIP3    H143045   2.385   2.326  15.303  0.8660 -0.4426 -0.0818
 7210TIP3    H243046   2.301   2.332  15.177 -1.6966  0.4062  1.5636
 7211TIP3   OH243047   4.429   4.494  11.836  0.2468 -0.3076  0.0365
 7211TIP3    H143048   4.444   4.460  11.748  1.2303  0.5037 -0.1280
 7211TIP3    H243049   4.515   4.490  11.878 -0.2026 -0.6348  0.9543
 7212TIP3   OH243050   6.563   4.084  11.572  0.1813  0.0461 -0.1679
 7212TIP3    H143051   6.645   4.064  11.527  0.1103  0.2655 -0.3991
 7212TIP3    H243052   6.590   4.135  11.649  0.3460 -0.7634  0.3285
 7213TIP3   OH243053   5.984   2.448   5.400 -0.0228  0.3745 -0.0276
 7213TIP3    H143054   5.977   2.473   5.492 -1.1877  1.2622 -0.3319
 7213TIP3    H243055   5.899   2.472   5.362 -0.2006 -1.5541 -0.9641
 7214TIP3   OH243056   5.009   4.836   4.383  0.5226 -0.4493 -0.0327
 7214TIP3    H143057   4.976   4.831   4.474 -0.4108 -1.5594 -0.3947
 7214TIP3    H243058   5.033   4.927   4.371 -0.2359 -0.0792  1.0492
 7215TIP3   OH243059   4.717   1.557   2.665 -0.4120  0.1008 -0.7845
 7215TIP3    H143060   4.664   1.601   2.731 -1.6932 -1.7254 -0.5310
 7215TIP3    H243061   4.662   1.486   2.634  0.7777 -0.0319 -2.7088
 7216TIP3   OH243062   1.755   5.305  15.176 -0.4734  0.4685 -0.3421
 7216TIP3    H143063   1.723   5.237  15.117  0.8507 -1.8916  1.5046
 7216TIP3    H243064   1.822   5.351  15.126 -0.4979 -0.4042 -1.1927
 7217TIP3   OH243065   3.372   0.638  11.540  0.0634  0.0840 -0.2270
 7217TIP3    H143066   3.348   0.550  11.569  1.5499  0.0634  1.0564
 7217TIP3    H243067   3.368   0.691  11.619  0.8039  0.7962 -0.6576
 7218TIP3   OH243068   4.489   5.843  16.021 -0.3868  0.1671  0.3149
 7218TIP3    H143069   4.412   5.832  15.966 -0.0345 -0.9388  0.0136
 7218TIP3    H243070   4.474   5.925  16.068 -1.2890  0.4637 -0.4609
 7219TIP3   OH243071   2.883   3.339   3.693  0.2704 -0.2290  0.2040
 7219TIP3    H143072   2.876   3.251   3.728 -3.1368 -0.5169 -0.8152
 7219TIP3    H243073   2.812   3.388   3.735  0.6322  1.3798 -0.9266
 7220TIP3   OH243074   1.681   5.591  13.636 -0.1407 -0.3911 -0.7683
 7220TIP3    H143075   1.715   5.569  13.723  1.8903  1.8288 -0.8971
 7220TIP3    H243076   1.750   5.563  13.576  0.8616  2.5860 -1.1870
 7221TIP3   OH243077   3.883   4.225   1.209 -0.0698  0.1443 -0.3491
 7221TIP3    H143078   3.823   4.233   1.134 -0.2016  4.6378  0.0064
 7221TIP3    H243079   3.832   4.177   1.275 -2.0985  1.0245 -1.1907
 7222TIP3   OH243080   4.497   2.874  15.652  0.5710  0.2777 -0.0705
 7222TIP3    H143081   4.455   2.788  15.647  0.6956  0.2390 -0.4895
 7222TIP3    H243082   4.426   2.936  15.631  0.6794  0.2210 -0.6304
 7223TIP3   OH243083   0.044   3.077  12.564 -0.2760  0.3426 -0.8936
 7223TIP3    H143084   0.049   3.149  12.628 -1.0051 -1.2013  1.0163
 7223TIP3    H243085   0.130   3.035  12.568 -0.4261  0.0519 -0.6722
 7224TIP3   OH243086   0.996   4.849  16.048  0.1093  0.1335 -0.6516
 7224TIP3    H143087   0.909   4.840  16.087  1.1214  1.6450  2.2753
 7224TIP3    H243088   1.005   4.944  16.033  0.9223 -0.1094 -1.8260
 7225TIP3   OH243089   0.320   2.170   5.633  0.3642  0.2111  0.2533
 7225TIP3    H143090   0.306   2.200   5.723  0.8855 -0.3212  0.5133
 7225TIP3    H243091   0.371   2.241   5.593  0.5039  0.2535  0.5004
 7226TIP3   OH243092   4.056   4.962  13.364  0.0176  0.2612  0.1533
 7226TIP3    H143093   4.071   4.878  13.406 -1.2972 -0.8074 -1.4085
 7226TIP3    H243094   4.067   4.945  13.271 -0.3466  1.8012 -0.2021
 7227TIP3   OH243095   4.065   2.386   1.388  0.2723 -0.2116 -0.0001
 7227TIP3    H143096   4.045   2.293   1.402  0.3310 -0.4287 -1.2612
 7227TIP3    H243097   4.150   2.385   1.342  0.0672  0.4468 -0.4017
 7228TIP3   OH243098   3.488   3.818   2.723  0.6636 -0.0907  0.3230
 7228TIP3    H143099   3.403   3.817   2.766  0.8452 -0.0785  0.6827
 7228TIP3    H243100   3.544   3.762   2.777  0.6865 -0.7276 -0.3266
 7229TIP3   OH243101   5.225   3.268   4.631 -0.2132 -0.1839 -0.1737
 7229TIP3    H143102   5.129   3.258   4.630 -0.2667  0.2503 -0.0844
 7229TIP3    H243103   5.257   3.203   4.570 -0.6046  0.0177 -0.5994
 7230TIP3   OH243104   0.829   0.952   0.163  0.0164  0.6644  0.1384
 7230TIP3    H143105   0.744   0.913   0.180  1.7707 -3.3821  0.7432
 7230TIP3    H243106   0.849   0.928   0.072 -0.1001  3.1717 -0.6484
 7231TIP3   OH243107   4.561   1.051  15.345 -0.5868 -0.1688  0.0824
 7231TIP3    H143108   4.583   1.091  15.261 -1.6629  2.7070  1.0473
 7231TIP3    H243109   4.467   1.064  15.355 -0.4165 -0.0023  1.9174
 7232TIP3   OH243110   2.117   5.496   1.295  0.1643 -0.1668 -0.9319
 7232TIP3    H143111   2.151   5.523   1.210  0.1771  0.9671 -0.5788
 7232TIP3    H243112   2.033   5.454   1.275 -1.1103  2.3667 -1.3611
 7233TIP3   OH243113   1.834   6.756  11.454  0.3315  0.6222  0.0704
 7233TIP3    H143114   1.927   6.744  11.435 -0.0656  1.1090 -2.6427
 7233TIP3    H243115   1.827   6.847  11.483  0.7522  0.3964  0.9180
 7234TIP3   OH243116   5.313   2.924   2.528  0.0778  0.4099 -0.0578
 7234TIP3    H143117   5.323   3.000   2.585 -0.9520 -0.8437  1.9171
 7234TIP3    H243118   5.238   2.945   2.472  1.5501  1.9578 -1.5660
 7235TIP3   OH243119   2.346   2.236  15.458 -0.6088  0.0667  0.3344
 7235TIP3    H143120   2.400   2.161  15.435 -1.9820 -0.7540 -0.3337
 7235TIP3    H243121   2.262   2.198  15.484 -0.7403  1.2701  1.8125
 7236TIP3   OH243122   6.090   0.657   3.658  0.0674 -0.4909 -0.5824
 7236TIP3    H143123   6.165   0.599   3.644  0.6789  0.0318  0.3633
 7236TIP3    H243124   6.119   0.742   3.624 -0.4712 -0.5121 -1.1096
 7237TIP3   OH243125   2.177   5.426  16.263 -0.4669  0.1900 -0.2584
 7237TIP3    H143126   2.265   5.427  16.227  0.2036 -0.1913  1.2975
 7237TIP3    H243127   2.123   5.388  16.194  0.7238 -0.2895 -0.9446
 7238TIP3   OH243128   6.706   2.554  15.664  0.2879  0.2950 -0.5709
 7238TIP3    H143129   6.778   2.605  15.627  0.6593 -0.2601 -0.6293
 7238TIP3    H243130   6.726   2.463  15.640 -0.4299  0.1335 -0.5858
 7239TIP3   OH243131   2.669   1.799   3.539 -0.0268 -0.0288  0.2355
 7239TIP3    H143132   2.599   1.776   3.599 -1.1720 -1.7649 -1.6500
 7239TIP3    H243133   2.629   1.860   3.477  1.1199  1.6891  1.1074
 7240TIP3   OH243134   4.594   3.196   5.859 -0.0592  0.2039  0.6291
 7240TIP3    H143135   4.664   3.164   5.801  0.6408 -0.4780  1.7981
 7240TIP3    H243136   4.595   3.291   5.848 -0.6508  0.0199 -1.2409
 7241TIP3   OH243137   4.350   0.275   1.908 -0.0389  0.5482 -0.1746
 7241TIP3    H143138   4.412   0.211   1.876  1.5718  1.4187  1.0739
 7241TIP3    H243139   4.269   0.257   1.859  0.1580 -2.7236  0.5067
 7242TIP3   OH243140   0.909   3.803   0.357 -0.3466 -0.6944  0.5725
 7242TIP3    H143141   0.851   3.735   0.322  0.1528 -0.3124 -1.1014
 7242TIP3    H243142   0.989   3.756   0.381 -0.2555 -0.8181  0.0547
 7243TIP3   OH243143   6.606   0.884  14.213 -0.1205 -0.0297  0.4513
 7243TIP3    H143144   6.594   0.836  14.295 -0.1198 -1.6091 -0.4404
 7243TIP3    H243145   6.697   0.864  14.187 -0.3995 -0.2816 -0.3705
 7244TIP3   OH243146   5.179   0.808   0.674  0.2276 -0.2155 -0.6885
 7244TIP3    H143147   5.223   0.845   0.750 -3.3873  0.7855  1.1437
 7244TIP3    H243148   5.244   0.814   0.603  3.1297  0.5054  1.8293
 7245TIP3   OH243149   1.455   1.719  11.456  0.3036  0.7744 -0.2168
 7245TIP3    H143150   1.547   1.701  11.474  0.3025 -1.3294 -1.9080
 7245TIP3    H243151   1.409   1.695  11.536  1.0401 -0.2146 -0.0750
 7246TIP3   OH243152   6.099   5.625   4.190  0.4864  0.3922  0.4376
 7246TIP3    H143153   6.004   5.612   4.187  0.8669 -3.3682  0.4471
 7246TIP3    H243154   6.112   5.692   4.257 -2.0854 -0.3170  1.7839
 7247TIP3   OH243155   3.972   4.375  11.325 -0.6211  0.2840  0.0918
 7247TIP3    H143156   4.051   4.349  11.373 -0.9173 -2.2551 -0.6346
 7247TIP3    H243157   3.910   4.400  11.394  0.1366  0.2672  0.7984
 7248TIP3   OH243158   6.373   2.869  16.944  0.4638  0.4482 -0.4933
 7248TIP3    H143159   6.395   2.963  16.945  0.8961  0.3504 -0.6476
 7248TIP3    H243160   6.450   2.826  16.981  0.2021  0.1647 -0.2784
 7249TIP3   OH243161   2.271   3.287  16.073 -0.0884 -0.1249  0.6608
 7249TIP3    H143162   2.317   3.231  16.011  0.4326 -0.5752  1.4302
 7249TIP3    H243163   2.180   3.287  16.043  0.4705  1.1877 -1.1673
 7250TIP3   OH243164   4.933   1.452  14.708 -0.1657  0.3068  0.0994
 7250TIP3    H143165   4.872   1.383  14.681  0.6007 -0.6588  0.7491
 7250TIP3    H243166   5.019   1.410  14.706  0.5727  1.8021 -1.3384
 7251TIP3   OH243167   1.559   3.195  11.319 -0.3881  0.2302 -0.3389
 7251TIP3    H143168   1.632   3.136  11.339 -0.1467  0.2513 -1.1256
 7251TIP3    H243169   1.597   3.282  11.321  0.0225  0.1469 -2.3960
 7252TIP3   OH243170   0.634   2.843   4.615 -0.2658  0.3020  0.0700
 7252TIP3    H143171   0.652   2.750   4.601  0.2372  0.2061  1.1930
 7252TIP3    H243172   0.586   2.846   4.698  0.6005  1.1109  0.5678
 7253TIP3   OH243173   2.592   5.026   1.736  0.4057 -0.7545 -0.1122
 7253TIP3    H143174   2.542   5.063   1.663 -1.3388 -2.2871  0.2291
 7253TIP3    H243175   2.538   5.042   1.813  1.9473  0.3033  0.8046
 7254TIP3   OH243176   1.361   2.112  12.293 -0.4625  0.3850  0.2665
 7254TIP3    H143177   1.383   2.026  12.328 -1.7949 -1.2204 -2.4997
 7254TIP3    H243178   1.266   2.119  12.302 -1.0280 -0.4899 -3.3732
 7255TIP3   OH243179   6.668   0.650  12.884 -0.3300 -0.1674  0.2583
 7255TIP3    H143180   6.651   0.631  12.976 -2.0569 -1.3189 -0.2337
 7255TIP3    H243181   6.582   0.669  12.847  0.5148  1.8141 -0.8280
 7256TIP3   OH243182   0.866   2.552  11.322 -0.4041  0.1044 -0.1185
 7256TIP3    H143183   0.941   2.494  11.304 -0.3193  0.8375 -2.4837
 7256TIP3    H243184   0.804   2.532  11.252 -1.2311  1.4612  0.2056
 7257TIP3   OH243185   4.059   1.103  16.376 -0.4031 -0.3733 -0.2050
 7257TIP3    H143186   4.013   1.048  16.313 -2.1721 -0.9568  1.4963
 7257TIP3    H243187   4.144   1.060  16.389  0.7081  0.6605 -3.3220
 7258TIP3   OH243188   1.304   0.004  13.226 -0.4358 -0.5362  0.3066
 7258TIP3    H143189   1.365  -0.029  13.161 -0.3729  0.0841  0.0430
 7258TIP3    H243190   1.244   0.060  13.177 -0.3390  0.0044  0.7919
 7259TIP3   OH243191   5.746   1.077   5.446 -0.1182 -0.5104 -0.0402
 7259TIP3    H143192   5.786   1.160   5.419 -1.0007  0.3198  1.0950
 7259TIP3    H243193   5.662   1.075   5.401 -0.7700 -0.0197  1.0983
 7260TIP3   OH243194   6.228   2.050  10.998  0.4434  0.9251 -0.5451
 7260TIP3    H143195   6.138   2.054  10.964 -0.4571 -0.2697  1.5267
 7260TIP3    H243196   6.281   2.029  10.921 -1.2261  0.1710 -1.5651
 7261TIP3   OH243197   1.893   2.226  12.357  0.0983 -0.0542  0.2105
 7261TIP3    H143198   1.953   2.155  12.376  0.8815  0.2615 -0.9549
 7261TIP3    H243199   1.808   2.196  12.390  0.3214 -1.7040 -0.6301
 7262TIP3   OH243200   6.415   0.484  11.551  0.3365  0.1294  0.7562
 7262TIP3    H143201   6.484   0.418  11.541 -0.5014 -0.4497 -2.6365
 7262TIP3    H243202   6.446   0.558  11.499  0.3930  1.7666  2.9815
 7263TIP3   OH243203   3.286   0.781   5.026  0.3057  0.1787  0.9318
 7263TIP3    H143204   3.363   0.734   4.993 -1.2807 -2.2443  0.4018
 7263TIP3    H243205   3.285   0.762   5.120 -1.3694 -2.6830  0.4439
 7264TIP3   OH243206   4.060   1.035  13.947 -0.0053 -0.2261 -0.2389
 7264TIP3    H143207   4.147   1.016  13.912 -0.3670 -1.8687 -0.3534
 7264TIP3    H243208   4.021   1.094  13.883  0.5563 -0.5379 -0.8831
 7265TIP3   OH243209   3.007   5.387   6.297  0.3034  0.3938  0.0173
 7265TIP3    H143210   2.917   5.399   6.269  0.3895 -0.4887 -0.6700
 7265TIP3    H243211   3.031   5.471   6.338 -1.2992  0.1220  1.5977
 7266TIP3   OH243212   4.234   6.260  12.174  0.5371 -0.0334  0.0547
 7266TIP3    H143213   4.198   6.331  12.227  0.2588  0.0647 -0.2629
 7266TIP3    H243214   4.318   6.293  12.143  0.3405  0.2207 -0.2165
 7267TIP3   OH243215   2.774   2.066   3.848 -0.5252 -0.1783 -0.0585
 7267TIP3    H143216   2.817   1.980   3.840  1.0069  0.4719  0.7656
 7267TIP3    H243217   2.702   2.062   3.785 -1.6258 -2.7121  1.2262
 7268TIP3   OH243218   3.336   1.264   0.900 -0.3582 -0.2355  0.2450
 7268TIP3    H143219   3.356   1.228   0.986 -2.5964 -2.6561 -0.1137
 7268TIP3    H243220   3.326   1.358   0.914  0.1854 -0.4506  2.4282
 7269TIP3   OH243221   0.649   4.255   3.816  0.0275  0.1260  0.4456
 7269TIP3    H143222   0.733   4.240   3.772 -0.6458 -0.3227 -0.7334
 7269TIP3    H243223   0.601   4.172   3.806 -1.0594  0.7891 -0.0453
 7270TIP3   OH243224   3.592   0.653   5.502 -0.2937 -0.1920  0.7267
 7270TIP3    H143225   3.504   0.649   5.540 -0.5877  1.7189  0.3462
 7270TIP3    H243226   3.623   0.741   5.522  0.8544 -0.2547 -0.6178
 7271TIP3   OH243227   6.041   3.884   0.035  0.3890 -0.5670  0.9164
 7271TIP3    H143228   5.969   3.906   0.095 -1.2512  0.8635 -1.4393
 7271TIP3    H243229   6.017   3.798   0.001  0.3455 -0.5508  0.9061
 7272TIP3   OH243230   0.234   6.765  12.254  0.2117  0.3839  0.6734
 7272TIP3    H143231   0.291   6.820  12.200  0.1282 -1.3453 -1.3131
 7272TIP3    H243232   0.284   6.749  12.334  0.5535  2.6208  0.9638
 7273TIP3   OH243233   4.798   2.677   4.789  0.0477 -0.3554 -0.0068
 7273TIP3    H143234   4.763   2.765   4.801 -0.2124 -0.7152  2.2136
 7273TIP3    H243235   4.735   2.619   4.832  0.8660 -1.5196 -0.3113
 7274TIP3   OH243236   3.465   5.637  15.685  0.3061 -0.2396 -0.3587
 7274TIP3    H143237   3.427   5.696  15.751 -0.2044 -0.3416 -0.5594
 7274TIP3    H243238   3.411   5.559  15.688 -1.2647  0.6526 -2.5606
 7275TIP3   OH243239   0.279   1.835   5.557 -0.1088 -0.0213 -0.1198
 7275TIP3    H143240   0.264   1.763   5.497 -0.7101  0.6890 -0.8483
 7275TIP3    H243241   0.233   1.810   5.637  0.9106 -1.0889  0.1634
 7276TIP3   OH243242   3.579   1.710   3.615 -0.1081 -0.1788  0.2831
 7276TIP3    H143243   3.536   1.792   3.594 -0.4901 -0.2906  0.5936
 7276TIP3    H243244   3.544   1.687   3.702  0.5362 -0.3025  0.5150
 7277TIP3   OH243245   6.703   6.105   6.029 -0.2733 -0.0789 -0.1873
 7277TIP3    H143246   6.647   6.182   6.037 -1.7644 -1.3044  2.5272
 7277TIP3    H243247   6.644   6.031   6.043  1.2675 -1.7340 -1.8231
 7278TIP3   OH243248   0.457   6.725  12.416  0.3956  0.2431  0.6712
 7278TIP3    H143249   0.468   6.819  12.399  1.3334  0.2438  1.2574
 7278TIP3    H243250   0.484   6.713  12.507  0.5862 -0.6509  0.5038
 7279TIP3   OH243251   1.364   3.167  11.103 -0.0908  0.0751 -0.7513
 7279TIP3    H143252   1.415   3.147  11.181  1.2070  0.7413 -1.3868
 7279TIP3    H243253   1.390   3.099  11.040 -0.8748 -0.2596 -0.7280
 7280TIP3   OH243254   0.279   5.515  12.660 -0.0932 -0.3085 -0.1533
 7280TIP3    H143255   0.240   5.585  12.607 -1.7270  0.2312  1.6262
 7280TIP3    H243256   0.320   5.562  12.733  0.6708 -1.1060 -0.0674
 7281TIP3   OH243257   2.551   2.054  15.056 -0.4268 -0.2884 -0.4511
 7281TIP3    H143258   2.584   1.969  15.085  0.7123  0.0325 -0.7288
 7281TIP3    H243259   2.565   2.053  14.961  0.4600  0.5490 -0.3414
 7282TIP3   OH243260   3.980   4.055   0.679  0.4783 -0.0772 -0.2120
 7282TIP3    H143261   3.912   4.011   0.627 -0.0201  0.7178 -0.2438
 7282TIP3    H243262   4.048   4.077   0.616 -0.9194  2.5373 -0.9701
 7283TIP3   OH243263   1.378   2.695  12.549 -0.8644 -0.2304  0.4110
 7283TIP3    H143264   1.365   2.734  12.462  1.2905 -0.2794  0.0220
 7283TIP3    H243265   1.363   2.602  12.536  0.2206 -0.3458 -0.1143
 7284TIP3   OH243266   5.480   4.363  16.880 -0.2804  0.0858  0.3425
 7284TIP3    H143267   5.400   4.322  16.912  0.0706 -1.2330 -0.4249
 7284TIP3    H243268   5.513   4.414  16.955 -0.9130 -0.7306  1.1943
 7285TIP3   OH243269   4.518   3.631   3.826  0.0900  0.1773  0.1768
 7285TIP3    H143270   4.437   3.627   3.878  0.8156  2.1909  1.5674
 7285TIP3    H243271   4.512   3.714   3.779  1.9594  1.1151  1.4656
 7286TIP3   OH243272   6.194   5.523  16.641 -0.3683 -0.7151 -0.0430
 7286TIP3    H143273   6.167   5.459  16.575 -0.4097  0.9047 -1.6743
 7286TIP3    H243274   6.113   5.558  16.677 -0.4312  0.5449 -1.3325
 7287TIP3   OH243275   2.674   1.089  14.367  0.0307  0.0209  0.3080
 7287TIP3    H143276   2.647   1.004  14.402  2.3508 -0.7988  0.2398
 7287TIP3    H243277   2.596   1.144  14.378 -1.3276 -1.8971  0.9668
 7288TIP3   OH243278   2.330   3.469   2.246 -0.2844 -0.5388  0.2976
 7288TIP3    H143279   2.327   3.530   2.172 -1.2660  0.9412  1.5001
 7288TIP3    H243280   2.262   3.405   2.228 -0.5732 -0.1414 -0.0364
 7289TIP3   OH243281   5.337   1.350  15.327 -0.5800  0.1009 -0.1931
 7289TIP3    H143282   5.309   1.411  15.395 -0.5104 -0.0863  0.0044
 7289TIP3    H243283   5.356   1.406  15.251 -1.4612  0.2314 -0.3294
 7290TIP3   OH243284   4.206   3.731   3.149  0.2178  0.5772  0.1137
 7290TIP3    H143285   4.282   3.697   3.197 -1.4718 -1.0719  1.7992
 7290TIP3    H243286   4.213   3.692   3.062 -0.0299 -1.7673  1.0659
 7291TIP3   OH243287   5.853   3.890   0.374 -0.2134 -0.8110 -0.2181
 7291TIP3    H143288   5.766   3.876   0.411 -0.1963  0.6164  0.3918
 7291TIP3    H243289   5.842   3.962   0.312  0.8211  0.5043  1.0559
 7292TIP3   OH243290   3.815   3.135   1.915 -0.1270  0.2412  0.2505
 7292TIP3    H143291   3.763   3.062   1.949 -0.0387 -0.3815 -0.8871
 7292TIP3    H243292   3.750   3.198   1.884 -0.2123  0.0905  0.1179
 7293TIP3   OH243293   1.116   4.716   2.434 -0.1132 -0.1556 -0.3338
 7293TIP3    H143294   1.118   4.653   2.505 -1.1174  1.5925  1.3371
 7293TIP3    H243295   1.180   4.783   2.459 -1.8618  1.4803 -0.0219
 7294TIP3   OH243296   4.729   5.728   0.559  0.0897  0.3638 -0.2955
 7294TIP3    H143297   4.659   5.765   0.612  0.2229 -0.5423  0.5319
 7294TIP3    H243298   4.726   5.778   0.477 -2.4666 -0.5866 -0.8777
 7295TIP3   OH243299   5.675   0.457  14.073  0.6454  0.4791  0.0866
 7295TIP3    H143300   5.727   0.384  14.039  1.5573  1.0713  0.1757
 7295TIP3    H243301   5.622   0.486  13.998  0.5467 -0.0441 -0.0452
 7296TIP3   OH243302   3.650   5.422  16.235 -0.3879  0.2759 -0.1917
 7296TIP3    H143303   3.679   5.498  16.286 -0.5650 -0.2357  0.6857
 7296TIP3    H243304   3.636   5.457  16.147  2.2725  0.6959 -0.5338
 7297TIP3   OH243305   5.844   4.295   2.330 -0.2058 -0.1557  0.2723
 7297TIP3    H143306   5.898   4.256   2.261 -0.6694 -1.1024  0.4325
 7297TIP3    H243307   5.806   4.373   2.289  0.7076  0.1267 -0.0630
 7298TIP3   OH243308   4.887   3.019   5.923 -0.4283 -0.1113  0.3359
 7298TIP3    H143309   4.793   3.005   5.932 -0.7489  0.5396 -1.4626
 7298TIP3    H243310   4.927   2.960   5.987 -2.0440 -0.5637  0.9655
 7299TIP3   OH243311   5.398   3.027  10.700 -0.2934  0.3876  0.0090
 7299TIP3    H143312   5.331   3.092  10.679 -1.9285 -0.8288  1.2261
 7299TIP3    H243313   5.351   2.944  10.701  0.4249 -0.1744  4.1336
 7300TIP3   OH243314   5.897   2.823   2.574 -0.5195 -0.5680  0.2415
 7300TIP3    H143315   5.857   2.901   2.613  1.3827 -0.2907  1.8322
 7300TIP3    H243316   5.980   2.813   2.622 -0.1323 -2.8435 -0.7881
 7301TIP3   OH243317   0.319   3.344  15.780  0.0950  0.3905  0.3615
 7301TIP3    H143318   0.370   3.369  15.703 -1.6835 -0.7181 -1.2744
 7301TIP3    H243319   0.351   3.257  15.803 -1.3963 -0.5966 -1.0813
 7302TIP3   OH243320   2.779   5.649  16.013 -0.5963  0.5129  0.0474
 7302TIP3    H143321   2.718   5.575  16.015 -2.6393  2.0619 -1.1517
 7302TIP3    H243322   2.841   5.627  15.943 -0.8270 -0.2734  0.0753
 7303TIP3   OH243323   6.289   5.674  13.654  0.4671 -0.0221  0.2902
 7303TIP3    H143324   6.285   5.692  13.748  1.0020 -1.2676  0.5682
 7303TIP3    H243325   6.257   5.585  13.645  0.2340  0.1562 -0.7427
 7304TIP3   OH243326   2.957   1.391  14.212 -0.0307  0.0804  0.2780
 7304TIP3    H143327   2.993   1.478  14.231  0.0542 -0.1206  1.0690
 7304TIP3    H243328   2.867   1.395  14.245 -0.0075 -0.1501  0.3678
 7305TIP3   OH243329   3.536   0.734  13.777 -0.3894 -0.2074  0.3750
 7305TIP3    H143330   3.499   0.649  13.802 -1.0895  0.6185  2.3833
 7305TIP3    H243331   3.466   0.776  13.727 -0.1363 -0.6867 -0.4045
 7306TIP3   OH243332   0.363   0.761   3.886  0.0895 -0.1146  0.2619
 7306TIP3    H143333   0.444   0.808   3.864  0.5806 -0.8051  0.5593
 7306TIP3    H243334   0.392   0.673   3.910 -0.7071 -0.2273  0.8438
 7307TIP3   OH243335   5.830   1.838  14.082  0.0738 -0.0645  0.4652
 7307TIP3    H143336   5.912   1.843  14.131  0.5102  0.0764 -0.2709
 7307TIP3    H243337   5.764   1.873  14.143  0.5647 -0.1075  1.0328
 7308TIP3   OH243338   4.221   0.800  15.171  0.4992  0.2295  0.5737
 7308TIP3    H143339   4.279   0.863  15.213  1.1496 -0.1830  0.3142
 7308TIP3    H243340   4.181   0.751  15.243  0.1205  0.8201  0.7686
 7309TIP3   OH243341   2.028   0.369   4.007  0.0594  0.5200 -0.2409
 7309TIP3    H143342   1.966   0.297   4.012 -0.7438  1.0920 -1.4484
 7309TIP3    H243343   2.059   0.381   4.097 -0.9985 -0.2847  0.2474
 7310TIP3   OH243344   1.282   0.578   3.179  0.2856 -0.2546  0.3296
 7310TIP3    H143345   1.319   0.490   3.189 -1.7878 -1.0268  2.1015
 7310TIP3    H243346   1.289   0.596   3.085  2.8773 -1.2785  0.2520
 7311TIP3   OH243347   0.112   0.670   2.081 -0.9384  0.1989  0.3386
 7311TIP3    H143348   0.073   0.616   2.150 -0.7031  0.4799  0.6923
 7311TIP3    H243349   0.051   0.662   2.007 -1.5357  0.4336  0.8008
 7312TIP3   OH243350   5.579   0.155   4.811  0.5691 -0.3069 -0.5872
 7312TIP3    H143351   5.511   0.175   4.747  1.9481 -0.0504 -2.0540
 7312TIP3    H243352   5.638   0.230   4.808  0.9191 -0.5043  0.6673
 7313TIP3   OH243353   4.974   3.079  13.472 -0.2666 -0.1846 -0.1313
 7313TIP3    H143354   4.895   3.057  13.422  0.7398 -0.5841 -1.6346
 7313TIP3    H243355   5.042   3.022  13.435  0.7916  0.3258  0.9491
 7314TIP3   OH243356   0.977   4.298  14.324  0.3233  0.2023  0.2527
 7314TIP3    H143357   0.977   4.352  14.403  0.2488  0.6884 -0.0777
 7314TIP3    H243358   0.889   4.259  14.321 -0.2105  1.3951 -0.4025
 7315TIP3   OH243359   6.711   4.328  16.155  0.0236 -0.2929  0.0431
 7315TIP3    H143360   6.627   4.290  16.132  0.1853 -0.9741  0.5403
 7315TIP3    H243361   6.770   4.253  16.165  0.3674  0.0768  0.9688
 7316TIP3   OH243362   3.289   0.091  16.687  0.0019 -0.0507  1.1632
 7316TIP3    H143363   3.250   0.004  16.685  0.0347 -0.0533  0.6691
 7316TIP3    H243364   3.376   0.078  16.725  1.8490 -0.9779 -2.9032
 7317TIP3   OH243365   1.342   3.107   4.377 -0.3662  0.3299 -0.4412
 7317TIP3    H143366   1.389   3.057   4.444 -4.1363 -0.0496  2.1984
 7317TIP3    H243367   1.335   3.196   4.414 -2.3549  0.1595 -0.3100
 7318TIP3   OH243368   4.950   1.666  10.916  0.2745  0.5929 -0.3311
 7318TIP3    H143369   4.943   1.750  10.871  0.4604 -0.1279 -1.7354
 7318TIP3    H243370   5.044   1.655  10.932  0.2067  0.8599  0.2794
 7319TIP3   OH243371   2.319   0.046  10.361  0.6063 -0.5420  0.2359
 7319TIP3    H143372   2.248   0.102  10.330  1.5831  0.4548 -0.3038
 7319TIP3    H243373   2.394   0.106  10.371  1.3304 -1.5255  0.9291
 7320TIP3   OH243374   3.743   2.893   4.120  0.0422  0.1981 -0.1321
 7320TIP3    H143375   3.811   2.925   4.062  2.2574 -3.1917  0.3686
 7320TIP3    H243376   3.665   2.886   4.065  0.9183  1.0964 -1.5383
 7321TIP3   OH243377   0.202   6.002   5.647  0.2334  0.5851 -0.5163
 7321TIP3    H143378   0.138   5.937   5.616  0.9021  0.5100 -1.7910
 7321TIP3    H243379   0.252   5.956   5.714 -0.8332  0.5441  0.2760
 7322TIP3   OH243380   6.041   0.503   5.239  0.1680  0.2332 -0.7637
 7322TIP3    H143381   6.089   0.440   5.293  0.1234  0.4709 -0.4426
 7322TIP3    H243382   6.091   0.509   5.158  1.2077  1.1687 -0.0788
 7323TIP3   OH243383   2.410   0.945  13.624 -0.3839 -0.1549 -0.0156
 7323TIP3    H143384   2.440   1.003  13.554 -0.9173  1.4812  1.0307
 7323TIP3    H243385   2.486   0.889  13.643  1.1607  2.0164  0.7109
 7324TIP3   OH243386   2.674   0.323   1.600 -0.4990  0.0608  0.3619
 7324TIP3    H143387   2.763   0.353   1.579 -0.6399  0.0704 -0.2430
 7324TIP3    H243388   2.679   0.227   1.594 -0.4476  0.0438  0.6669
 7325TIP3   OH243389   2.411   1.448  11.314  0.3260  0.0307  0.3138
 7325TIP3    H143390   2.504   1.428  11.321  0.2114 -0.0785  1.9566
 7325TIP3    H243391   2.372   1.370  11.273  1.1190  0.6268 -1.6380
 7326TIP3   OH243392   0.522   1.637   0.370  0.3519 -0.1216 -0.1588
 7326TIP3    H143393   0.470   1.677   0.300  1.2357  2.7035  0.6522
 7326TIP3    H243394   0.583   1.578   0.324 -0.7566 -0.2857 -1.4928
 7327TIP3   OH243395   2.675   6.482   4.290 -0.1686  0.2834 -0.1410
 7327TIP3    H143396   2.645   6.448   4.206  2.2104 -0.0152 -0.9382
 7327TIP3    H243397   2.727   6.412   4.328  0.4438  1.1285  0.6350
 7328TIP3   OH243398   2.396   1.003  16.077 -0.6676  0.7079  0.1420
 7328TIP3    H143399   2.319   0.982  16.129 -1.9261  2.0895 -1.0758
 7328TIP3    H243400   2.469   0.960  16.123 -2.1028 -0.4262  1.4539
 7329TIP3   OH243401   0.050   3.506  15.668 -0.0070  0.1346 -0.5260
 7329TIP3    H143402   0.129   3.528  15.717  0.2688 -0.4770 -0.6816
 7329TIP3    H243403   0.001   3.588  15.662  0.4764  0.4514 -0.1747
 7330TIP3   OH243404   3.894   2.655  14.834 -0.0782 -0.2534  0.0110
 7330TIP3    H143405   3.956   2.594  14.873 -0.0518 -0.8671 -0.9465
 7330TIP3    H243406   3.817   2.601  14.814  0.0426 -0.0405 -1.0855
 7331TIP3   OH243407   6.147   0.552   1.247  0.1130 -0.1242  0.6403
 7331TIP3    H143408   6.102   0.469   1.261  0.6003 -0.4523  0.3112
 7331TIP3    H243409   6.134   0.601   1.328 -0.2705 -0.4787  0.7940
 7332TIP3   OH243410   4.434   4.653  12.300 -0.1262 -0.0301  0.2859
 7332TIP3    H143411   4.479   4.664  12.217 -1.4494 -1.8247 -0.7554
 7332TIP3    H243412   4.473   4.573  12.337 -1.3620 -0.7420  0.0877
 7333TIP3   OH243413   4.293   3.068   2.872 -0.0615 -0.1206  0.2410
 7333TIP3    H143414   4.384   3.095   2.862 -0.1219  0.0045  0.0239
 7333TIP3    H243415   4.290   2.978   2.840  0.8186 -1.6320  3.8989
 7334TIP3   OH243416   5.924   3.131   3.522 -0.3873  0.6140 -0.0639
 7334TIP3    H143417   5.928   3.226   3.528 -0.6672  0.5784  0.7649
 7334TIP3    H243418   5.848   3.106   3.575 -0.9887  0.0001 -1.1683
 7335TIP3   OH243419   3.605   1.342  11.623  0.3216  0.0871  0.1977
 7335TIP3    H143420   3.533   1.284  11.647 -0.6558  1.4187  0.6628
 7335TIP3    H243421   3.683   1.297  11.655 -0.4538 -0.6925  1.0924
 7336TIP3   OH243422   5.629   3.113  12.636  0.2420  0.6462  0.1967
 7336TIP3    H143423   5.606   3.035  12.687  1.5714  1.1739  1.7068
 7336TIP3    H243424   5.575   3.183  12.674  0.8531  0.9377  0.5450
 7337TIP3   OH243425   5.134   0.371  13.097  0.0836 -0.0754  0.3129
 7337TIP3    H143426   5.040   0.367  13.084  0.0842  0.1194  0.2552
 7337TIP3    H243427   5.147   0.337  13.186 -0.0503  0.0174  0.3681
 7338TIP3   OH243428   3.805   0.583   5.301 -0.2967  0.5162 -0.4937
 7338TIP3    H143429   3.736   0.587   5.367  0.3767 -1.5542  0.3988
 7338TIP3    H243430   3.795   0.665   5.251 -1.4812  1.6470  1.4764
 7339TIP3   OH243431   6.261   4.734   4.685  0.5124  0.4835  0.1794
 7339TIP3    H143432   6.254   4.653   4.634 -1.9303  0.6966  0.1035
 7339TIP3    H243433   6.243   4.804   4.622 -1.3728  0.8195  1.0483
 7340TIP3   OH243434   3.457   1.625   1.536  0.3020  0.2967 -0.1082
 7340TIP3    H143435   3.406   1.639   1.456 -0.7798  1.0507  0.6650
 7340TIP3    H243436   3.486   1.534   1.531 -0.6281  0.0190 -0.8751
 7341TIP3   OH243437   5.237   2.707   0.106 -0.0258  0.7946 -0.1811
 7341TIP3    H143438   5.324   2.671   0.123  0.5471  1.8651 -0.7226
 7341TIP3    H243439   5.248   2.802   0.118 -1.1327  0.9331 -0.1932
 7342TIP3   OH243440   5.242   1.735   5.219 -0.3143  0.6311 -0.2761
 7342TIP3    H143441   5.316   1.795   5.214  0.6263 -0.4650  0.0194
 7342TIP3    H243442   5.218   1.720   5.128  1.5804 -1.0508 -0.5719
 7343TIP3   OH243443   5.100   2.916   5.750 -0.0870 -0.0664  0.0338
 7343TIP3    H143444   5.036   2.921   5.679  0.1673  3.4373 -0.1415
 7343TIP3    H243445   5.055   2.957   5.825  0.7959 -0.7298  0.9541
 7344TIP3   OH243446   4.938   3.306   5.870  0.4610 -0.3676  0.5717
 7344TIP3    H143447   5.028   3.334   5.855  0.3638 -0.2334  0.2201
 7344TIP3    H243448   4.944   3.211   5.882  0.4740 -0.5882 -1.0156
 7345TIP3   OH243449   1.612   0.815   2.423  0.5818 -0.0996  0.2608
 7345TIP3    H143450   1.548   0.745   2.414  0.3430  0.0944  0.4137
 7345TIP3    H243451   1.576   0.886   2.370  0.4696  0.1456  0.6575
 7346TIP3   OH243452   3.847   3.395  11.340 -0.3660 -0.7206  0.3565
 7346TIP3    H143453   3.937   3.380  11.308  0.0713 -1.1703  1.7522
 7346TIP3    H243454   3.792   3.372  11.265  0.6782  0.0250 -0.7024
 7347TIP3   OH243455   6.390   1.653  14.524  0.5391  0.0806  0.7902
 7347TIP3    H143456   6.420   1.711  14.594 -2.3467  2.0704  0.5396
 7347TIP3    H243457   6.470   1.632  14.475  1.9659  2.4353  1.9175
 7348TIP3   OH243458   0.060   0.514  13.151 -0.8786 -0.6760  0.1849
 7348TIP3    H143459   0.080   0.607  13.163  0.1858 -0.7453 -0.8199
 7348TIP3    H243460  -0.034   0.507  13.169 -0.8749  0.4993  0.7550
 7349TIP3   OH243461   1.732   1.622   4.034  0.1310 -0.4023 -0.5876
 7349TIP3    H143462   1.740   1.527   4.038 -1.4541 -0.5262  0.6252
 7349TIP3    H243463   1.656   1.642   4.089 -1.5094  1.2887 -3.2555
 7350TIP3   OH243464   6.627   3.066   4.064 -0.0506 -0.0338 -0.7301
 7350TIP3    H143465   6.659   3.155   4.049  1.4471 -0.8139 -2.5607
 7350TIP3    H243466   6.682   3.033   4.135  1.5360 -0.4702 -2.0943
 7351TIP3   OH243467   0.821   3.821  16.993  0.1282 -0.3893 -0.3540
 7351TIP3    H143468   0.842   3.911  16.968  2.8505 -1.0037 -0.5692
 7351TIP3    H243469   0.786   3.781  16.913 -1.5541  0.5379 -0.1345
 7352TIP3   OH243470   3.883   0.504   2.806  0.2986 -0.5950 -0.2619
 7352TIP3    H143471   3.919   0.516   2.894 -1.8224  1.1545  0.4654
 7352TIP3    H243472   3.794   0.471   2.821  0.2087 -1.1361 -1.7974
 7353TIP3   OH243473   1.276   6.159   5.562  0.0331  0.0692 -0.2131
 7353TIP3    H143474   1.185   6.177   5.537 -0.3879 -0.1105  1.0784
 7353TIP3    H243475   1.328   6.221   5.511 -0.6651 -0.8010 -2.0814
 7354TIP3   OH243476   4.035   3.963  12.214  0.3865 -0.1665  0.2009
 7354TIP3    H143477   3.960   3.936  12.162  0.5464 -0.4456  0.1164
 7354TIP3    H243478   4.108   3.967  12.152  0.5115 -0.2066  0.3445
 7355TIP3   OH243479   6.267   2.975   4.277 -0.5966 -0.4365  0.2612
 7355TIP3    H143480   6.258   2.938   4.365  0.5833  1.6618  1.3277
 7355TIP3    H243481   6.359   3.001   4.271 -0.6825 -0.4118 -1.5646
 7356TIP3   OH243482   0.612   2.809   0.950 -0.1916  0.3892 -0.2335
 7356TIP3    H143483   0.627   2.839   0.860  0.1624 -2.6147 -1.2785
 7356TIP3    H243484   0.575   2.722   0.941  2.0999 -1.0555  2.4944
 7357TIP3   OH243485   2.414   4.289   1.953  0.0835  0.5348 -0.5251
 7357TIP3    H143486   2.321   4.293   1.931  0.2598  0.5099 -1.2872
 7357TIP3    H243487   2.449   4.219   1.898  0.3914 -0.0430  0.3839
 7358TIP3   OH243488   0.197   5.504   2.710  0.7147  0.2511  0.2985
 7358TIP3    H143489   0.276   5.449   2.713 -0.3647 -1.3965 -0.3059
 7358TIP3    H243490   0.143   5.473   2.782 -0.0362  0.3497 -0.2149
 7359TIP3   OH243491   1.016   1.708   0.007  0.2118  0.3376 -0.2318
 7359TIP3    H143492   1.101   1.726  -0.034  0.9714  0.2464  1.2626
 7359TIP3    H243493   1.010   1.612   0.008  0.9484  0.2792  1.3016
 7360TIP3   OH243494   5.577   3.882   0.383  0.1592  0.6485  0.3933
 7360TIP3    H143495   5.528   3.938   0.443 -0.3616  0.1640  0.4244
 7360TIP3    H243496   5.513   3.820   0.349  0.8486 -0.3305  0.8373
 7361TIP3   OH243497   4.441   6.287  15.913  0.0295  0.5235  0.3081
 7361TIP3    H143498   4.351   6.275  15.942 -0.2679 -0.0411 -0.8190
 7361TIP3    H243499   4.493   6.268  15.991 -0.7577 -0.9026  0.5204
 7362TIP3   OH243500   1.128   6.348   1.927  0.1587 -0.5115  0.4826
 7362TIP3    H143501   1.169   6.413   1.870 -0.3635 -0.1606  0.5031
 7362TIP3    H243502   1.088   6.286   1.866  0.7310 -0.8728  0.4618
 7363TIP3   OH243503   5.557   2.691  11.931 -0.0472  0.3203  0.3107
 7363TIP3    H143504   5.514   2.702  11.846 -0.9165  1.0300  0.8202
 7363TIP3    H243505   5.616   2.617  11.919  1.1506  1.4740 -1.4288
 7364TIP3   OH243506   4.758   0.541  13.696 -0.2427 -0.0847  0.3179
 7364TIP3    H143507   4.820   0.579  13.759 -0.0740 -0.0590  0.1393
 7364TIP3    H243508   4.806   0.466  13.659 -1.5472 -2.2251  2.6591
 7365TIP3   OH243509   5.110   3.807   3.686 -0.1150 -0.4595  0.1770
 7365TIP3    H143510   5.165   3.730   3.688 -1.8170 -1.7593 -0.3034
 7365TIP3    H243511   5.031   3.782   3.735 -1.1032  0.6176 -0.7767
 7366TIP3   OH243512   2.316   5.418  15.509 -0.0849 -0.2705  0.0941
 7366TIP3    H143513   2.317   5.503  15.465  0.3278 -0.4885 -0.3253
 7366TIP3    H243514   2.255   5.365  15.458 -0.0448 -0.3470  0.1259
 7367TIP3   OH243515   4.947   3.653   4.844 -0.3070  0.0770  0.0953
 7367TIP3    H143516   5.025   3.705   4.822 -0.5629  0.8947  1.0405
 7367TIP3    H243517   4.982   3.569   4.874  0.1694  0.1639 -0.2053
 7368TIP3   OH243518   3.362   0.636   1.428 -0.4633  0.2037  0.2581
 7368TIP3    H143519   3.442   0.667   1.470 -0.3552 -0.7311  0.7708
 7368TIP3    H243520   3.341   0.555   1.475 -1.8271  0.5514  0.2782
 7369TIP3   OH243521   3.745   6.428   5.863  0.0946  0.2451 -0.5652
 7369TIP3    H143522   3.704   6.512   5.842  2.3917  1.7632  0.6279
 7369TIP3    H243523   3.703   6.399   5.943 -2.0781 -0.8225 -1.9948
 7370TIP3   OH243524   6.790   1.492   0.609  0.2884  0.3776  0.0282
 7370TIP3    H143525   6.759   1.549   0.679  1.0354  0.3658  0.3735
 7370TIP3    H243526   6.874   1.458   0.640 -0.5351 -1.6325  0.2511
 7371TIP3   OH243527   4.591   4.407  12.536  0.3076 -0.3938  0.2179
 7371TIP3    H143528   4.516   4.356  12.566 -0.8843  1.1050 -0.1036
 7371TIP3    H243529   4.616   4.366  12.453 -0.5291 -0.5586  0.0414
 7372TIP3   OH243530   1.265   5.359   2.649 -0.2670 -0.5874 -0.6320
 7372TIP3    H143531   1.276   5.265   2.631 -0.9567 -0.6503 -0.7521
 7372TIP3    H243532   1.201   5.388   2.584 -0.4167 -0.1390 -0.2836
 7373TIP3   OH243533   2.205   3.027  13.493  0.2501  0.1675 -0.2483
 7373TIP3    H143534   2.145   3.006  13.564  0.7634 -1.0465 -0.1496
 7373TIP3    H243535   2.257   2.947  13.480  0.7109  0.6252 -1.4469
 7374TIP3   OH243536   3.152   4.948   4.345  0.6020 -0.3741 -0.3010
 7374TIP3    H143537   3.236   4.903   4.349  1.4483  0.9910 -1.5615
 7374TIP3    H243538   3.089   4.880   4.324  1.4709 -1.3365  0.1333
 7375TIP3   OH243539   2.936   6.510  10.931 -0.5122 -0.0612  0.0229
 7375TIP3    H143540   2.993   6.541  10.861 -1.4397 -0.4143 -0.9100
 7375TIP3    H243541   2.960   6.418  10.942 -0.9746 -0.2467 -0.4640
 7376TIP3   OH243542   3.101   3.627   3.312  0.0276  0.2483 -0.4009
 7376TIP3    H143543   3.139   3.706   3.274 -0.8669  0.9803  0.1741
 7376TIP3    H243544   3.175   3.581   3.352  0.1820  2.3588  1.9477
 7377TIP3   OH243545   6.794   4.070  14.697  0.7312 -0.1186  0.2900
 7377TIP3    H143546   6.708   4.039  14.670  0.0619 -0.2838  2.4432
 7377TIP3    H243547   6.823   4.007  14.762  2.7279 -0.3232 -0.7338
 7378TIP3   OH243548   4.858   3.919   2.120  0.1256 -0.5255 -0.1628
 7378TIP3    H143549   4.880   3.828   2.138 -1.0626 -0.6543  0.7886
 7378TIP3    H243550   4.764   3.925   2.137  0.5195  1.3219  1.7768
 7379TIP3   OH243551   3.257   4.834   6.445  0.2626  0.1439  0.1432
 7379TIP3    H143552   3.336   4.872   6.407  1.9657 -2.5078  0.6856
 7379TIP3    H243553   3.191   4.841   6.377  1.6385  0.4235 -1.2179
 7380TIP3   OH243554   3.731   3.877  12.966 -0.0378 -0.1032  0.5476
 7380TIP3    H143555   3.803   3.851  12.909 -0.5776  1.4791 -0.9564
 7380TIP3    H243556   3.773   3.905  13.048  0.9584 -0.1846  0.0734
 7381TIP3   OH243557   5.707   2.621   0.411 -0.0471  0.8361  0.4667
 7381TIP3    H143558   5.613   2.639   0.403  0.2996  2.1540 -1.2779
 7381TIP3    H243559   5.723   2.550   0.349 -0.0719 -0.2938  1.7086
 7382TIP3   OH243560   5.127   3.328  17.053  0.0383  0.5735  0.5451
 7382TIP3    H143561   5.128   3.365  17.141 -0.5180  1.1281  0.3168
 7382TIP3    H243562   5.045   3.357  17.014  0.6461  1.0204 -0.4513
 7383TIP3   OH243563   1.038   5.767  13.699 -0.1463  0.2291  0.3384
 7383TIP3    H143564   1.119   5.719  13.683 -0.2216  1.0767 -3.5063
 7383TIP3    H243565   0.970   5.718  13.653 -1.3744  0.8698  1.3808
 7384TIP3   OH243566   4.649   4.419   0.391 -0.1725  0.0436  0.3372
 7384TIP3    H143567   4.573   4.477   0.393 -1.2043 -1.2196  3.5923
 7384TIP3    H243568   4.723   4.478   0.377 -1.5299  1.5067 -1.1558
 7385TIP3   OH243569   1.669   3.677   6.116  0.0436 -0.8536  0.3666
 7385TIP3    H143570   1.626   3.630   6.187  1.8500 -2.2873  0.5623
 7385TIP3    H243571   1.762   3.670   6.134  0.4887  0.1561 -1.2846
 7386TIP3   OH243572   5.455   2.138  11.116  0.0746 -0.1662 -0.5160
 7386TIP3    H143573   5.410   2.157  11.034  0.8901  0.7426 -0.7803
 7386TIP3    H243574   5.386   2.112  11.176 -0.6449  0.0397 -1.2330
 7387TIP3   OH243575   0.706   4.174   2.909 -0.1528  0.1608 -0.3926
 7387TIP3    H143576   0.634   4.154   2.848 -0.1620  0.9986 -0.6634
 7387TIP3    H243577   0.779   4.121   2.877 -0.6353 -0.6822 -0.1261
 7388TIP3   OH243578   5.414   6.494   0.710 -0.4768  0.4527  0.3792
 7388TIP3    H143579   5.421   6.418   0.767  1.4017 -0.6971 -1.2614
 7388TIP3    H243580   5.425   6.570   0.768  0.1965 -0.6066  1.6748
 7389TIP3   OH243581   4.800   1.872   3.083  0.7520 -0.2542 -0.0529
 7389TIP3    H143582   4.732   1.813   3.052  1.3680 -0.4450 -1.0929
 7389TIP3    H243583   4.760   1.917   3.158 -0.4767 -0.4419 -0.5584
 7390TIP3   OH243584   6.321   6.361  16.388  0.1675 -0.6087 -0.6931
 7390TIP3    H143585   6.284   6.404  16.465  0.3131 -4.5117  1.7971
 7390TIP3    H243586   6.413   6.390  16.386  0.1632 -0.4644  0.6298
 7391TIP3   OH243587   3.887   0.355   3.353 -0.0304  0.2570  0.3002
 7391TIP3    H143588   3.875   0.417   3.424 -0.8024 -0.7290  1.0738
 7391TIP3    H243589   3.904   0.271   3.396 -0.9098 -0.4457 -0.6474
 7392TIP3   OH243590   0.875   6.300   0.095  0.6737  0.4826  0.3877
 7392TIP3    H143591   0.799   6.327   0.043  1.3852  1.7093 -0.0732
 7392TIP3    H243592   0.888   6.208   0.073  0.9037  0.9367 -1.5655
 7393TIP3   OH243593   0.391   0.827  13.401 -0.5004 -0.2689  0.5568
 7393TIP3    H143594   0.316   0.865  13.447 -0.3324  0.1615  0.4833
 7393TIP3    H243595   0.440   0.903  13.368 -1.2756 -0.5407 -1.3965
 7394TIP3   OH243596   5.133   6.441   5.855 -0.5105  0.2415  0.0969
 7394TIP3    H143597   5.145   6.462   5.762 -0.0687  2.1015  0.5502
 7394TIP3    H243598   5.063   6.500   5.884 -0.0658  0.2693  1.1419
 7395TIP3   OH243599   5.402   0.868   0.484 -0.4591 -0.7638 -0.0065
 7395TIP3    H143600   5.385   0.948   0.435  0.5202 -0.9173 -0.6098
 7395TIP3    H243601   5.497   0.862   0.489 -0.5153 -0.9731  1.5613
 7396TIP3   OH243602   0.233   2.284   1.595  0.5728  0.4537 -0.6164
 7396TIP3    H143603   0.192   2.368   1.577  1.1835  1.1696  1.1266
 7396TIP3    H243604   0.194   2.224   1.531 -2.0013  1.4322 -0.1000
 7397TIP3   OH243605   2.271   0.013   5.292  0.0646  0.4050 -0.6713
 7397TIP3    H143606   2.272  -0.071   5.339  1.8711  0.4746 -0.5219
 7397TIP3    H243607   2.282   0.079   5.361 -1.6890  0.8338 -0.7459
 7398TIP3   OH243608   3.906   0.995  16.964 -0.2805  0.5273  0.2617
 7398TIP3    H143609   3.821   0.956  16.985  0.6753 -1.6299  0.4136
 7398TIP3    H243610   3.907   1.077  17.012 -1.0984 -0.8436  2.8276
 7399TIP3   OH243611   5.474   6.764  15.435 -0.1743 -0.0013 -0.3749
 7399TIP3    H143612   5.494   6.780  15.342  2.5477 -1.5738 -0.1654
 7399TIP3    H243613   5.483   6.669  15.445  1.5775  0.3148  1.8637
 7400TIP3   OH243614   4.154   5.158  11.408 -0.4237 -0.1136  0.1561
 7400TIP3    H143615   4.093   5.184  11.338 -0.1269 -0.2291 -0.1484
 7400TIP3    H243616   4.131   5.068  11.427 -1.0380  0.1652  0.7733
 7401TIP3   OH243617   6.651   2.289  11.563  0.4220 -0.1240  0.2497
 7401TIP3    H143618   6.664   2.319  11.473  0.4591  1.0039  0.6210
 7401TIP3    H243619   6.562   2.255  11.565  0.5426 -0.4842 -0.2962
 7402TIP3   OH243620   0.760   3.839   0.849 -0.6426 -0.0995 -0.2186
 7402TIP3    H143621   0.748   3.837   0.754  0.2205 -1.6448 -0.3336
 7402TIP3    H243622   0.799   3.924   0.868 -1.3381  0.4462 -1.1678
 7403TIP3   OH243623   0.837   5.552  14.864 -0.3079  0.0971 -0.0535
 7403TIP3    H143624   0.874   5.476  14.820  3.1188  1.6965 -0.2141
 7403TIP3    H243625   0.750   5.563  14.824  0.8058 -1.2273 -3.1169
 7404TIP3   OH243626   5.525   0.378  10.977  0.5060  0.1018  0.3408
 7404TIP3    H143627   5.435   0.385  11.009  0.2770 -0.5167 -0.1253
 7404TIP3    H243628   5.566   0.313  11.034  0.4749 -0.0500  0.1949
 7405TIP3   OH243629   5.466   3.805   3.553 -0.0379 -0.2830  0.1529
 7405TIP3    H143630   5.413   3.775   3.627  1.2054 -1.9748  0.4238
 7405TIP3    H243631   5.412   3.790   3.476 -0.7154 -0.0616  0.5825
 7406TIP3   OH243632   5.288   5.422  17.045 -0.2788  0.0782  0.5025
 7406TIP3    H143633   5.361   5.365  17.020 -0.0523  0.7890 -0.5242
 7406TIP3    H243634   5.223   5.363  17.084 -0.9454 -1.2436 -2.3855
 7407TIP3   OH243635   5.328   3.707   1.889  0.3944 -0.0501  0.7948
 7407TIP3    H143636   5.260   3.665   1.837  0.6466  1.1423 -0.5423
 7407TIP3    H243637   5.401   3.645   1.889  0.3289 -0.1316 -0.1456
 7408TIP3   OH243638   3.169   5.075  15.938  0.6705 -0.0588  0.1697
 7408TIP3    H143639   3.157   4.985  15.909  0.4871  0.1059 -0.2784
 7408TIP3    H243640   3.248   5.105  15.892 -0.7361  0.8601 -1.8279
 7409TIP3   OH243641   6.362   4.994  10.988 -0.3562  0.1792 -0.1246
 7409TIP3    H143642   6.304   4.974  10.914 -1.1658  0.1563  0.5107
 7409TIP3    H243643   6.349   5.087  11.004 -1.4995 -0.1683  1.0904
 7410TIP3   OH243644   5.525   4.810   1.526 -0.3334 -0.4350  0.1950
 7410TIP3    H143645   5.509   4.717   1.543 -2.5689 -0.3919 -1.3574
 7410TIP3    H243646   5.542   4.815   1.432 -0.3758  0.7509  0.2361
 7411TIP3   OH243647   5.642   6.040   2.330  0.5364  0.0936  0.3229
 7411TIP3    H143648   5.687   5.957   2.346  1.7652  0.3639 -1.4092
 7411TIP3    H243649   5.584   6.022   2.256 -0.7706  0.2664  1.2804
 7412TIP3   OH243650   1.993   0.468  14.135 -0.2624  0.3560 -0.4866
 7412TIP3    H143651   2.004   0.539  14.198 -1.5878  0.2160 -0.0602
 7412TIP3    H243652   1.911   0.490  14.090 -1.2651 -1.4145  0.3738
 7413TIP3   OH243653   4.309   5.246  14.991  0.2921  0.2963  0.2616
 7413TIP3    H143654   4.347   5.230  14.905 -3.0371 -1.3171 -1.1221
 7413TIP3    H243655   4.334   5.169  15.043 -0.3368 -0.3733 -0.3904
 7414TIP3   OH243656   1.628   6.391  15.043 -0.3786  0.4564  0.9504
 7414TIP3    H143657   1.580   6.400  14.961  3.0761  2.1129 -1.0705
 7414TIP3    H243658   1.589   6.313  15.084 -0.5404 -2.1690 -3.5343
 7415TIP3   OH243659   2.838   4.609   4.632  0.1640  0.2464 -0.2631
 7415TIP3    H143660   2.806   4.607   4.722 -0.0833 -0.2185 -0.3569
 7415TIP3    H243661   2.903   4.679   4.630 -0.3074  0.6954  0.1167
 7416TIP3   OH243662   5.496   5.714   4.868 -0.2010  0.0729  0.0336
 7416TIP3    H143663   5.518   5.641   4.810  0.2061 -2.2524  2.8724
 7416TIP3    H243664   5.560   5.782   4.847 -0.6549 -0.2522 -2.7747
 7417TIP3   OH243665   0.298   3.015  12.543 -0.2531  0.0969 -0.3128
 7417TIP3    H143666   0.354   3.011  12.621  1.4566 -1.9636 -1.5367
 7417TIP3    H243667   0.358   3.005  12.470 -1.9900  0.3813 -1.8409
 7418TIP3   OH243668   3.084   3.240  13.198 -0.1778  0.4105 -0.5364
 7418TIP3    H143669   3.061   3.178  13.267 -0.7833  0.8413 -0.3509
 7418TIP3    H243670   3.023   3.220  13.126 -0.5164  0.9249 -0.3980
 7419TIP3   OH243671   0.123   6.614   3.463 -0.5365 -0.8960  0.5898
 7419TIP3    H143672   0.058   6.628   3.395  1.5869  0.5643 -1.2787
 7419TIP3    H243673   0.093   6.536   3.509 -3.0288 -0.8616 -0.7951
 7420TIP3   OH243674   0.070   1.398   1.402 -0.0389  0.8198  0.2355
 7420TIP3    H143675   0.142   1.370   1.346  0.6385  1.2826  0.8449
 7420TIP3    H243676   0.014   1.451   1.345 -0.1639  0.0434 -0.3649
 7421TIP3   OH243677   4.366   2.221  14.130  0.0645 -0.3973  0.4425
 7421TIP3    H143678   4.385   2.274  14.207 -1.0751  0.1589  0.3572
 7421TIP3    H243679   4.452   2.201  14.093  0.7268 -1.7056  2.5183
 7422TIP3   OH243680   1.429   6.066  16.205  0.3092 -0.4581 -0.2717
 7422TIP3    H143681   1.472   5.993  16.249 -0.1655 -0.9430 -0.6087
 7422TIP3    H243682   1.365   6.098  16.269 -0.6831 -1.4366 -0.7378
 7423TIP3   OH243683   3.327   2.658  15.342  0.1909 -0.3534 -0.2088
 7423TIP3    H143684   3.245   2.651  15.294 -0.1741  0.8127  0.2320
 7423TIP3    H243685   3.395   2.646  15.275 -0.2683  2.5885 -1.3510
 7424TIP3   OH243686   4.182   2.852  11.520 -0.0693 -0.2815 -0.1359
 7424TIP3    H143687   4.094   2.837  11.553 -0.6134  2.7580  0.1228
 7424TIP3    H243688   4.170   2.872  11.428  0.0323  1.9791  0.2849
 7425TIP3   OH243689   5.405   6.583   2.714  0.4244 -0.0665  0.0163
 7425TIP3    H143690   5.496   6.556   2.731  1.1037  2.3040  0.4762
 7425TIP3    H243691   5.404   6.603   2.620  0.1364 -0.8359 -0.1544
 7426TIP3   OH243692   0.398   5.303   3.022 -0.5251 -0.0673 -0.5819
 7426TIP3    H143693   0.463   5.238   3.049 -0.3010  0.1377 -0.6240
 7426TIP3    H243694   0.430   5.334   2.936  0.3540  1.4021  0.2245
 7427TIP3   OH243695   0.881   3.455   0.533  0.3841 -0.0689  0.3050
 7427TIP3    H143696   0.942   3.383   0.549 -0.6354 -0.7321  1.4024
 7427TIP3    H243697   0.898   3.481   0.443  0.8399 -1.6380 -0.1037
 7428TIP3   OH243698   2.381   0.443   2.821 -0.4955 -0.0972  0.0128
 7428TIP3    H143699   2.474   0.430   2.836 -0.3724 -1.0721 -1.3440
 7428TIP3    H243700   2.347   0.474   2.904  0.6916 -1.6814  1.1585
 7429TIP3   OH243701   0.108   4.617   5.538  0.6189 -0.5904  0.5062
 7429TIP3    H143702   0.079   4.641   5.626  1.6808  1.7704  0.2829
 7429TIP3    H243703   0.164   4.690   5.511 -0.3003 -0.8697 -2.4283
 7430TIP3   OH243704   2.805   4.829  15.031  0.2491 -0.1336 -0.2646
 7430TIP3    H143705   2.771   4.842  14.942  1.2078  0.2565 -0.5895
 7430TIP3    H243706   2.767   4.747  15.060 -1.4109  0.5543 -0.3877
 7431TIP3   OH243707   1.572   4.812   4.796 -0.4568 -0.7263  0.0129
 7431TIP3    H143708   1.477   4.821   4.784 -0.5897  0.2093  1.5022
 7431TIP3    H243709   1.587   4.839   4.887  1.0455 -2.4503  0.3330
 7432TIP3   OH243710   3.903   5.144  13.692  0.8342 -0.0587  0.3008
 7432TIP3    H143711   3.944   5.086  13.757 -0.2380 -0.4135  0.6801
 7432TIP3    H243712   3.811   5.146  13.717  0.7140  1.2192 -0.1621
 7433TIP3   OH243713   0.505   4.904  14.244 -0.4953 -0.7190 -0.2356
 7433TIP3    H143714   0.485   4.995  14.222 -0.0121 -0.2468  1.1564
 7433TIP3    H243715   0.549   4.869  14.166 -0.4816  0.3070 -0.7009
 7434TIP3   OH243716   4.165   2.029   3.301 -0.1916  0.2845 -0.2673
 7434TIP3    H143717   4.166   2.083   3.222  1.1920  0.3549 -0.2345
 7434TIP3    H243718   4.090   2.060   3.351 -1.3489 -0.0408 -1.7211
 7435TIP3   OH243719   0.242   1.543   1.568 -0.5962  0.1934  0.2798
 7435TIP3    H143720   0.287   1.530   1.485 -0.7403 -0.7742  0.3456
 7435TIP3    H243721   0.157   1.499   1.557 -0.0343 -1.2716  1.4457
 7436TIP3   OH243722   4.692   0.778  12.373 -0.0512 -0.3479 -0.0225
 7436TIP3    H143723   4.677   0.695  12.418  1.8162 -0.7152 -0.0040
 7436TIP3    H243724   4.686   0.844  12.442 -3.2657 -0.2060 -0.3112
 7437TIP3   OH243725   3.896   2.396   1.985 -0.2750 -0.2613 -0.6158
 7437TIP3    H143726   3.804   2.420   1.975  0.2535  1.2896 -2.2856
 7437TIP3    H243727   3.941   2.479   1.994  1.0472 -0.9721 -0.4743
 7438TIP3   OH243728   1.405   1.187   1.111 -0.2806 -0.2347 -0.5981
 7438TIP3    H143729   1.467   1.116   1.129 -0.9502 -0.7036 -0.0316
 7438TIP3    H243730   1.333   1.171   1.173 -0.8185  0.4683 -1.0274
 7439TIP3   OH243731   0.351   6.405   3.483 -0.2642  0.1398  0.2603
 7439TIP3    H143732   0.352   6.473   3.415 -0.5573 -1.2006 -1.1433
 7439TIP3    H243733   0.414   6.339   3.451 -2.3789 -1.8096 -0.1412
 7440TIP3   OH243734   3.184   2.613   4.740  0.9503  0.2486  0.0012
 7440TIP3    H143735   3.275   2.611   4.768  0.8724 -1.0077  0.2119
 7440TIP3    H243736   3.137   2.561   4.806 -0.0734  1.6164  0.4024
 7441TIP3   OH243737   2.190   0.081   0.759 -0.1219 -0.2517 -0.6262
 7441TIP3    H143738   2.240   0.041   0.688  0.7744  0.3452 -0.3465
 7441TIP3    H243739   2.114   0.120   0.717  1.0039  1.1293 -1.4302
 7442TIP3   OH243740   2.054   3.574  17.050  0.1935  0.3558  0.2580
 7442TIP3    H143741   2.068   3.638  16.980 -0.2699  0.0056 -0.1553
 7442TIP3    H243742   2.091   3.616  17.128  1.7288  0.2994 -0.3985
 7443TIP3   OH243743   1.530   4.924   3.403 -0.2282  0.3259 -0.3774
 7443TIP3    H143744   1.545   5.016   3.380  0.1400  0.6396  1.0060
 7443TIP3    H243745   1.530   4.878   3.319  1.2765  1.3558 -0.9946
 7444TIP3   OH243746   5.109   0.953   1.259 -0.6697 -0.9500  0.4930
 7444TIP3    H143747   5.092   0.972   1.167 -1.8670 -1.6188  0.5463
 7444TIP3    H243748   5.066   1.024   1.306  0.0640 -0.5306  0.5425
 7445TIP3   OH243749   4.126   5.267  13.137 -0.3170  0.4202  0.2064
 7445TIP3    H143750   4.096   5.302  13.221  0.6869  0.8786  0.3827
 7445TIP3    H243751   4.052   5.214  13.106 -1.0107  0.8982  0.9862
 7446TIP3   OH243752   6.351   3.824   2.391 -0.6455 -0.4540  0.2579
 7446TIP3    H143753   6.264   3.851   2.361 -1.9180 -3.6126  0.7161
 7446TIP3    H243754   6.409   3.845   2.318 -1.8573  1.3110 -0.2493
 7447TIP3   OH243755   1.460   0.893  16.902 -0.9739 -0.2672  0.2233
 7447TIP3    H143756   1.472   0.882  16.996 -1.6379  0.2012  0.3741
 7447TIP3    H243757   1.375   0.851  16.884 -1.0632  0.0398 -0.0813
 7448TIP3   OH243758   1.423   4.747  16.069  0.3486 -0.0398  0.2766
 7448TIP3    H143759   1.333   4.719  16.051  0.3555 -0.1926  0.4836
 7448TIP3    H243760   1.465   4.671  16.110  0.4052  0.2209  0.7073
 7449TIP3   OH243761   4.647   1.605   3.004  0.1383  0.7601  0.3139
 7449TIP3    H143762   4.567   1.606   2.952  0.9284  2.0326 -0.9515
 7449TIP3    H243763   4.617   1.613   3.094 -1.1892  0.4602 -0.0772
 7450TIP3   OH243764   4.129   2.111   0.011  0.1464  0.8778 -0.0198
 7450TIP3    H143765   4.174   2.187  -0.024  0.6256  0.6548  0.1005
 7450TIP3    H243766   4.036   2.127  -0.008  0.3321  1.0412 -0.8497
 7451TIP3   OH243767   3.073   0.391  11.083 -0.6306  0.3229  0.4243
 7451TIP3    H143768   3.124   0.325  11.130 -1.8237 -0.2735  0.9215
 7451TIP3    H243769   3.033   0.342  11.011  0.6213  1.0825 -0.8348
 7452TIP3   OH243770   5.460   3.689   0.226 -0.5036 -0.0504  0.1062
 7452TIP3    H143771   5.420   3.603   0.236  0.1773 -0.2731  0.9744
 7452TIP3    H243772   5.516   3.681   0.149 -4.0212  1.0135 -2.8430
 7453TIP3   OH243773   4.869   6.777  12.822 -0.0357 -0.6510  0.1415
 7453TIP3    H143774   4.902   6.864  12.801 -0.5899 -0.7346 -1.2195
 7453TIP3    H243775   4.853   6.779  12.916 -0.9561  1.0501 -0.0173
 7454TIP3   OH243776   4.886   4.439   4.920  0.1524  0.5855  0.0291
 7454TIP3    H143777   4.944   4.386   4.866  0.4389  0.7684  0.1552
 7454TIP3    H243778   4.906   4.413   5.010  0.7471  1.3524  0.1304
 7455TIP3   OH243779   5.906   3.502   4.281  0.3853  0.4022 -0.2888
 7455TIP3    H143780   5.878   3.589   4.254 -0.5106  0.2145  0.0338
 7455TIP3    H243781   5.904   3.450   4.200  1.0701  0.7093 -0.5114
 7456TIP3   OH243782   5.291   0.850   5.320 -0.1983 -0.3632  0.0306
 7456TIP3    H143783   5.241   0.792   5.377  0.9846  0.1563  1.6601
 7456TIP3    H243784   5.361   0.796   5.285 -0.6990 -0.5846 -0.6483
 7457TIP3   OH243785   0.889   1.638  10.672  0.4987 -0.3655 -0.1703
 7457TIP3    H143786   0.976   1.672  10.649  0.5485 -0.2697  0.1495
 7457TIP3    H243787   0.829   1.694  10.623  0.6623 -2.0343 -2.4496
 7458TIP3   OH243788   6.565   5.924   1.038  0.2056  0.1731  0.3861
 7458TIP3    H143789   6.586   5.887   1.124  1.6674  1.4348  0.6201
 7458TIP3    H243790   6.521   6.007   1.058 -0.6327 -0.1335 -0.1176
 7459TIP3   OH243791   2.313   6.550  15.323  0.9302  0.5381 -0.6383
 7459TIP3    H143792   2.258   6.626  15.304 -0.9776 -0.3326  0.9728
 7459TIP3    H243793   2.253   6.487  15.364  2.1633 -2.2927 -2.8165
 7460TIP3   OH243794   4.143   3.731  15.667  0.4423 -0.1951  0.4626
 7460TIP3    H143795   4.184   3.773  15.591  0.6476 -0.0126  0.6746
 7460TIP3    H243796   4.096   3.657  15.630 -0.0492  0.3026  0.0614
 7461TIP3   OH243797   5.097   5.337  16.226 -0.5022  0.1931  0.0499
 7461TIP3    H143798   5.145   5.414  16.254  1.1951 -0.4408 -0.9644
 7461TIP3    H243799   5.061   5.301  16.307  0.9359  0.5778  0.9023
 7462TIP3   OH243800   4.859   5.794   1.505  0.3115  0.3473  0.0899
 7462TIP3    H143801   4.776   5.842   1.508  0.0924 -0.0471  0.4050
 7462TIP3    H243802   4.852   5.738   1.428  0.5133  0.7120 -0.2005
 7463TIP3   OH243803   5.898   4.780  16.060 -0.1096 -0.0700 -0.5159
 7463TIP3    H143804   5.823   4.836  16.079  2.5957  3.0743  2.0716
 7463TIP3    H243805   5.941   4.821  15.985 -0.4549 -1.3835 -1.4777
 7464TIP3   OH243806   1.148   1.844  15.164 -0.1038  0.4996  0.4428
 7464TIP3    H143807   1.064   1.862  15.206 -0.3572 -0.7845  0.5355
 7464TIP3    H243808   1.177   1.929  15.131 -0.9295  1.1512  1.3263
 7465TIP3   OH243809   5.888   1.231  14.400 -0.1868 -0.2204  0.2466
 7465TIP3    H143810   5.880   1.248  14.494 -0.4218 -0.0492  0.1957
 7465TIP3    H243811   5.955   1.162  14.394 -1.7707 -1.8637  0.6876
 7466TIP3   OH243812   3.151   5.125  13.604 -0.1094 -0.2145  0.4818
 7466TIP3    H143813   3.090   5.052  13.599 -0.4390  0.1149 -0.5146
 7466TIP3    H243814   3.097   5.199  13.633 -0.3700  0.2576 -1.1360
 7467TIP3   OH243815   1.994   1.767   0.612  0.3218 -0.0797 -0.7074
 7467TIP3    H143816   1.949   1.848   0.634 -2.4310 -2.1652  2.3916
 7467TIP3    H243817   1.957   1.742   0.527 -0.4220  0.8820 -0.6897
 7468TIP3   OH243818   5.369   1.457  11.440  0.4508 -0.3580 -0.2068
 7468TIP3    H143819   5.373   1.364  11.419  0.1617 -0.7476  1.3061
 7468TIP3    H243820   5.295   1.490  11.389  0.2166 -1.0754 -0.3398
 7469TIP3   OH243821   5.707   0.195  12.671  0.4152  0.2787  0.3689
 7469TIP3    H143822   5.619   0.216  12.704  0.1749  0.4313 -0.3474
 7469TIP3    H243823   5.710   0.100  12.668 -0.2305  0.2735 -0.8769
 7470TIP3   OH243824   6.024   1.772   2.104 -0.1193  0.2579 -0.2417
 7470TIP3    H143825   6.116   1.768   2.080  0.1421  0.1365  0.7333
 7470TIP3    H243826   5.985   1.695   2.062  0.4194 -0.2167  0.1040
 7471TIP3   OH243827   3.704   0.397   5.883 -0.0654 -0.2729 -0.0961
 7471TIP3    H143828   3.635   0.452   5.922 -1.2395 -2.8773  1.7272
 7471TIP3    H243829   3.742   0.453   5.815 -0.4933  3.1429  2.2326
 7472TIP3   OH243830   0.812   1.819   0.870 -0.1603  0.1293 -0.4193
 7472TIP3    H143831   0.849   1.803   0.957 -0.4570 -0.3600 -0.3802
 7472TIP3    H243832   0.754   1.745   0.854  0.9159 -0.4983 -1.5975
 7473TIP3   OH243833   3.223   1.535  14.684  0.2734 -1.0630  0.7004
 7473TIP3    H143834   3.135   1.499  14.684 -1.0024  1.7367  1.6604
 7473TIP3    H243835   3.237   1.561  14.593 -0.9342  0.5956  0.9354
 7474TIP3   OH243836   0.159   6.704   0.944 -0.0543  0.1249 -0.5450
 7474TIP3    H143837   0.239   6.692   0.995  0.5811 -0.9832 -1.7532
 7474TIP3    H243838   0.103   6.757   1.000  0.8127 -0.6055  1.0849
 7475TIP3   OH243839   0.137   2.179  14.910  0.3009 -0.1558  0.1803
 7475TIP3    H143840   0.052   2.193  14.953  0.1016  2.3758 -0.9136
 7475TIP3    H243841   0.194   2.150  14.981 -1.2211 -0.9563  1.1360
 7476TIP3   OH243842   6.013   6.752  16.276 -0.0122  0.3245 -0.3393
 7476TIP3    H143843   5.956   6.725  16.348  0.7684  0.6089  0.4066
 7476TIP3    H243844   6.018   6.847  16.284 -0.7922  0.4779 -1.4525
 7477TIP3   OH243845   1.104   4.634  14.237 -0.1077  0.0919  0.3643
 7477TIP3    H143846   1.120   4.617  14.144 -0.7454  1.1786  0.0387
 7477TIP3    H243847   1.192   4.645  14.274  0.1438 -0.1615 -0.1412
 7478TIP3   OH243848   4.696   2.260   4.560  0.3457 -0.2574  0.8998
 7478TIP3    H143849   4.678   2.353   4.551 -2.8815 -0.5619  2.7531
 7478TIP3    H243850   4.704   2.227   4.471 -2.3837  1.1858  0.0474
 7479TIP3   OH243851   3.897   4.847   6.375 -0.2585  0.2391  0.2151
 7479TIP3    H143852   3.869   4.925   6.328 -2.1488 -0.3458  0.2831
 7479TIP3    H243853   3.968   4.877   6.432 -0.1144  1.6221 -0.6499
 7480TIP3   OH243854   6.243   6.031  13.070 -0.5131  0.1861  0.1849
 7480TIP3    H143855   6.155   6.046  13.105 -0.4839 -1.7640  1.2475
 7480TIP3    H243856   6.238   5.944  13.030  0.6212  0.5738 -0.8286
 7481TIP3   OH243857   0.657   3.694   5.955 -0.0915  0.1990  0.7996
 7481TIP3    H143858   0.751   3.701   5.936 -0.1877 -0.3137  0.0875
 7481TIP3    H243859   0.647   3.604   5.987 -0.2887  0.3651  1.2108
 7482TIP3   OH243860   3.739   2.422   0.110  0.0887 -0.2407 -0.1012
 7482TIP3    H143861   3.813   2.464   0.154  0.7852 -0.8587 -0.6548
 7482TIP3    H243862   3.711   2.352   0.170 -0.6217  0.5335  0.5009
 7483TIP3   OH243863   0.659   5.927  16.626  0.2869  0.3133  0.2435
 7483TIP3    H143864   0.706   5.921  16.543  0.8958 -2.3768  0.7087
 7483TIP3    H243865   0.719   5.973  16.684  0.8968  0.0155 -0.1388
 7484TIP3   OH243866   4.113   0.811   4.592  0.3275 -0.5012 -0.2360
 7484TIP3    H143867   4.153   0.896   4.575  0.5764 -0.2453  1.4512
 7484TIP3    H243868   4.173   0.748   4.552 -0.4079  0.1134 -2.4617
 7485TIP3   OH243869   3.392   4.386  12.463 -0.5605 -0.5689  0.4707
 7485TIP3    H143870   3.447   4.384  12.540 -0.9633 -1.9573  0.7533
 7485TIP3    H243871   3.316   4.439  12.488 -0.2000 -0.1376  0.6604
 7486TIP3   OH243872   3.102   1.677  15.687  0.3664  0.3139 -0.1766
 7486TIP3    H143873   3.131   1.634  15.607 -2.9778  1.4097 -2.1932
 7486TIP3    H243874   3.074   1.606  15.745  0.4266 -0.4335 -1.0511
 7487TIP3   OH243875   3.843   4.069  11.985  0.3666  0.2201 -0.6663
 7487TIP3    H143876   3.843   3.976  11.960 -2.3227 -0.3983  1.1359
 7487TIP3    H243877   3.790   4.072  12.065 -0.0992  3.3984 -0.9659
 7488TIP3   OH243878   1.340   5.914   5.403 -0.2892  0.4975 -0.4885
 7488TIP3    H143879   1.341   6.008   5.419 -1.2513  0.5962 -0.9453
 7488TIP3    H243880   1.326   5.905   5.308  0.6421 -0.0989 -0.5801
 7489TIP3   OH243881   5.845   6.111   1.582 -0.3558  0.3143 -1.0711
 7489TIP3    H143882   5.940   6.119   1.572 -0.2285 -1.8451 -2.0534
 7489TIP3    H243883   5.809   6.182   1.528  0.6588  1.8517  0.1823
 7490TIP3   OH243884   1.884   0.284   1.746  0.7126 -0.6019  0.1141
 7490TIP3    H143885   1.905   0.377   1.759 -1.6714  0.1241 -0.7974
 7490TIP3    H243886   1.874   0.249   1.835  0.9895  0.1649  0.4580
 7491TIP3   OH243887   4.092   1.508  13.622  0.0924  0.2551  0.3341
 7491TIP3    H143888   4.108   1.584  13.678  0.2250  0.4514  0.0301
 7491TIP3    H243889   3.998   1.492  13.630 -0.0724  0.9214 -0.2011
 7492TIP3   OH243890   4.603   0.165  16.070 -0.0157  0.3548 -0.6010
 7492TIP3    H143891   4.545   0.120  16.131  0.0756 -0.1822 -0.9025
 7492TIP3    H243892   4.549   0.177  15.991  0.0973  0.3882 -0.6723
 7493TIP3   OH243893   5.471   0.040   1.584  0.3030 -0.1340  0.1908
 7493TIP3    H143894   5.564   0.063   1.575 -0.3102  2.8402  0.1816
 7493TIP3    H243895   5.430   0.079   1.506 -1.0112 -1.1307  0.3562
 7494TIP3   OH243896   6.085   1.693  11.189 -0.0530 -0.0102 -0.0681
 7494TIP3    H143897   6.065   1.783  11.215  0.3820 -0.7379  3.1957
 7494TIP3    H243898   5.999   1.653  11.175 -0.4072  0.1770  1.4040
 7495TIP3   OH243899   1.476   1.494  16.858 -0.0526  0.1043  0.5129
 7495TIP3    H143900   1.507   1.583  16.874 -2.0518  0.9689 -0.0579
 7495TIP3    H243901   1.525   1.465  16.781 -1.6125  2.0330 -1.3505
 7496TIP3   OH243902   5.779   1.164   1.274  0.1309 -0.3350  0.0754
 7496TIP3    H143903   5.788   1.257   1.296 -1.0348  0.0362 -0.8502
 7496TIP3    H243904   5.841   1.119   1.331  0.3872  0.9708  0.8735
 7497TIP3   OH243905   2.190   2.259  14.785 -0.3175  0.2249  0.5632
 7497TIP3    H143906   2.196   2.229  14.876 -0.6902  0.2419  0.5929
 7497TIP3    H243907   2.161   2.350  14.791 -0.9404  0.0406  0.4074
 7498TIP3   OH243908   3.767   3.889   5.040  0.0291 -0.2227 -0.4990
 7498TIP3    H143909   3.832   3.921   4.977 -0.1344  2.9744  0.7940
 7498TIP3    H243910   3.686   3.935   5.017  0.2446  2.0120  2.6461
 7499TIP3   OH243911   5.971   6.041  12.823  0.1521  0.1400 -0.0427
 7499TIP3    H143912   5.892   6.012  12.777 -1.1911  1.3715  1.3415
 7499TIP3    H243913   5.943   6.047  12.915  1.2129  2.6282  0.1986
 7500TIP3   OH243914   1.963   5.935   5.147 -0.2431  0.1735 -0.2472
 7500TIP3    H143915   1.986   5.845   5.124 -1.8599 -0.4845  0.5506
 7500TIP3    H243916   2.026   5.959   5.215 -0.1079 -0.5525 -0.1081
 7501TIP3   OH243917   1.136   0.146   3.553 -0.0468  1.0776  0.6491
 7501TIP3    H143918   1.043   0.160   3.535  0.1046 -0.6008 -1.8066
 7501TIP3    H243919   1.182   0.190   3.481  0.8596 -1.2950 -0.3017
 7502TIP3   OH243920   6.643   1.090   5.833  0.2361  0.2982  0.2634
 7502TIP3    H143921   6.667   1.001   5.809  0.1769  0.3151  0.1442
 7502TIP3    H243922   6.659   1.094   5.928 -1.0435 -0.2669  0.5315
 7503TIP3   OH243923   0.417   2.445   4.678 -0.0326  0.2433 -0.3913
 7503TIP3    H143924   0.369   2.506   4.734  0.0432 -0.1593  0.1216
 7503TIP3    H243925   0.349   2.402   4.626 -0.1582  0.2191 -0.2077
 7504TIP3   OH243926   0.910   6.252  11.748 -0.2497 -0.5688 -0.0942
 7504TIP3    H143927   0.983   6.251  11.686  0.9998 -0.6402  1.3213
 7504TIP3    H243928   0.850   6.186  11.715  0.0778 -0.1904 -1.5471
 7505TIP3   OH243929   5.600   3.300  15.964  0.2464  0.0104  0.2622
 7505TIP3    H143930   5.684   3.344  15.951 -1.0196  1.7757 -3.5820
 7505TIP3    H243931   5.546   3.365  16.008 -0.3130  0.6903 -1.3441
 7506TIP3   OH243932   6.092   1.722  10.891 -0.0324 -0.1605  1.0008
 7506TIP3    H143933   6.070   1.814  10.907  1.6480  0.8218 -1.6846
 7506TIP3    H243934   6.011   1.682  10.861 -0.3039  1.0773 -0.0055
 7507TIP3   OH243935   5.762   1.318  15.968 -0.3496  0.6099  0.0326
 7507TIP3    H143936   5.819   1.241  15.974  0.5135  1.2558  0.3113
 7507TIP3    H243937   5.674   1.282  15.964  0.0123 -0.3873  0.6284
 7508TIP3   OH243938   2.598   6.065  13.573 -0.6966 -0.0137 -0.7590
 7508TIP3    H143939   2.530   6.125  13.544  0.0324  0.8893 -0.6639
 7508TIP3    H243940   2.564   5.978  13.553 -2.2095  0.3649  0.0256
 7509TIP3   OH243941   4.900   5.566   4.233  0.4773  0.7420 -0.3948
 7509TIP3    H143942   4.931   5.475   4.230 -0.6466  0.3061  0.4943
 7509TIP3    H243943   4.884   5.589   4.141 -0.4369 -0.3946 -0.5371
 7510TIP3   OH243944   4.840   3.985  15.558  0.6819 -0.2314  0.1189
 7510TIP3    H143945   4.873   4.028  15.636  0.3819  0.6595 -0.2328
 7510TIP3    H243946   4.746   3.974  15.574  0.4917  0.5497 -0.3604
 7511TIP3   OH243947   6.147   6.682   5.821 -0.0324  0.2825  0.4795
 7511TIP3    H143948   6.081   6.614   5.834  1.2129 -1.2710 -0.7278
 7511TIP3    H243949   6.194   6.686   5.904 -0.4922  0.0663  0.7504
 7512TIP3   OH243950   6.508   6.277  11.392  0.7527  0.0264 -0.0374
 7512TIP3    H143951   6.455   6.329  11.453 -0.4568  1.8424 -2.4485
 7512TIP3    H243952   6.593   6.320  11.392  0.8621 -0.1822  0.5890
 7513TIP3   OH243953   5.536   3.197   3.955 -0.4683  0.3828  0.0920
 7513TIP3    H143954   5.620   3.241   3.942  0.5297 -1.0148  1.3940
 7513TIP3    H243955   5.544   3.115   3.906 -0.9459  0.1199  0.4481
 7514TIP3   OH243956   5.916   6.324  11.394  0.2776 -0.4666  0.4685
 7514TIP3    H143957   5.934   6.360  11.307 -0.7648 -1.7836 -0.3251
 7514TIP3    H243958   5.849   6.382  11.430  0.1815 -0.3374  0.0921
 7515TIP3   OH243959   6.256   3.424   5.052  0.3694  0.3255  0.3374
 7515TIP3    H143960   6.325   3.467   5.103  2.2082 -1.2110 -0.7304
 7515TIP3    H243961   6.178   3.434   5.106  1.7155  0.8544  2.3234
 7516TIP3   OH243962   3.627   0.863  15.211 -0.3293  0.2924  0.0362
 7516TIP3    H143963   3.710   0.906  15.192  0.6353 -1.4463  0.1496
 7516TIP3    H243964   3.617   0.872  15.306  0.2643 -0.3890  0.1705
 7517TIP3   OH243965   4.322   3.355   5.368  0.3967  0.2731 -0.1284
 7517TIP3    H143966   4.387   3.294   5.404  0.0602  0.3894  0.7033
 7517TIP3    H243967   4.298   3.411   5.442 -0.6263  0.2476 -0.4239
 7518TIP3   OH243968   0.315   5.249  16.284  0.7107  0.6508 -0.0337
 7518TIP3    H143969   0.309   5.287  16.197  0.5131  1.3923  0.2967
 7518TIP3    H243970   0.400   5.206  16.286  0.7569  0.7168 -0.5591
 7519TIP3   OH243971   2.651   0.211   5.441 -0.4774  0.0880 -0.3190
 7519TIP3    H143972   2.683   0.122   5.453  0.7836  0.4273 -0.9576
 7519TIP3    H243973   2.709   0.265   5.496  0.3604  0.7666 -1.8095
 7520TIP3   OH243974   0.855   5.633   3.154  0.2189  0.2910 -0.2719
 7520TIP3    H143975   0.882   5.565   3.092 -0.6947 -0.0651 -0.2892
 7520TIP3    H243976   0.776   5.670   3.116  1.4283  2.3259 -0.9576
 7521TIP3   OH243977   6.577   6.459  16.733  0.0153 -0.1993  0.5532
 7521TIP3    H143978   6.554   6.534  16.788 -1.4248  0.1002 -0.4265
 7521TIP3    H243979   6.667   6.439  16.758  1.1076  2.9337 -0.3304
 7522TIP3   OH243980   2.305   6.331  11.764 -0.7067 -0.1130  0.4904
 7522TIP3    H143981   2.312   6.424  11.741  2.8961 -0.8173 -2.1287
 7522TIP3    H243982   2.372   6.318  11.830  0.4103 -1.1821 -0.7897
 7523TIP3   OH243983   3.362   5.883   3.336  0.1555  0.0637  0.2156
 7523TIP3    H143984   3.293   5.946   3.315 -0.1152  0.1234  1.1881
 7523TIP3    H243985   3.415   5.876   3.257  0.4002  1.7779  0.2004
 7524TIP3   OH243986   6.441   2.823  12.325  0.3235  0.5389 -0.4877
 7524TIP3    H143987   6.478   2.896  12.374  0.3867  0.2195 -0.0501
 7524TIP3    H243988   6.510   2.798  12.264  0.7748  0.0683  0.1967
 7525TIP3   OH243989   4.349   1.830  14.658  0.1495  0.2563 -0.4284
 7525TIP3    H143990   4.381   1.901  14.603 -0.0906 -0.4075 -1.4722
 7525TIP3    H243991   4.417   1.818  14.724 -0.0060  1.7094  0.0266
 7526TIP3   OH243992   0.168   0.549   2.464 -0.2402  0.0060  0.2847
 7526TIP3    H143993   0.224   0.616   2.504 -1.6520  0.7783  1.0203
 7526TIP3    H243994   0.227   0.501   2.405  0.9990  1.3217  0.3986
 7527TIP3   OH243995   0.275   0.992  12.043  0.0055 -0.1715 -0.0925
 7527TIP3    H143996   0.205   1.013  11.981  0.8147  0.8581 -0.6876
 7527TIP3    H243997   0.347   0.961  11.988  0.2325 -0.6631  0.4672
 7528TIP3   OH243998   6.727   5.936   4.292 -0.3492 -0.2132 -0.0444
 7528TIP3    H143999   6.667   5.921   4.218  1.3860  2.2511 -2.1558
 7528TIP3    H244000   6.807   5.970   4.251  2.0208 -1.9353  2.7522
 7529TIP3   OH244001   0.308   3.303   3.362  0.2221  0.3201 -0.1896
 7529TIP3    H144002   0.240   3.366   3.339 -1.0662 -0.7048  0.6987
 7529TIP3    H244003   0.316   3.247   3.285 -1.0808 -0.5176  0.2621
 7530TIP3   OH244004   5.948   6.568   0.492 -0.0679  0.0070  0.5579
 7530TIP3    H144005   5.976   6.479   0.468 -1.5963 -0.9290  1.9673
 7530TIP3    H244006   5.857   6.557   0.519 -1.1866  2.5218 -1.8079
 7531TIP3   OH244007   2.887   3.158  14.798 -0.2935 -0.3500  0.2833
 7531TIP3    H144008   2.960   3.200  14.843  0.4221 -1.1401 -0.1099
 7531TIP3    H244009   2.834   3.121  14.868  0.8958 -1.7119  0.5298
 7532TIP3   OH244010   5.652   6.033  14.494 -0.0545  0.4618 -0.2125
 7532TIP3    H144011   5.688   6.101  14.437  1.9465 -0.2090  0.1586
 7532TIP3    H244012   5.706   6.038  14.574 -1.4279 -0.0025  0.7754
 7533TIP3   OH244013   6.101   2.361  16.385 -0.1222 -0.2710 -0.3309
 7533TIP3    H144014   6.022   2.308  16.373 -0.0317 -0.4707 -0.0516
 7533TIP3    H244015   6.079   2.446  16.347 -0.4909 -0.3094 -0.2086
 7534TIP3   OH244016   0.125   6.312   4.788 -0.9524 -0.4401 -0.3797
 7534TIP3    H144017   0.191   6.293   4.855 -1.1115  0.8298  0.1610
 7534TIP3    H244018   0.093   6.226   4.761  1.1169 -1.1236 -0.8690
 7535TIP3   OH244019   5.164   4.260   2.520 -0.2036  0.3549 -0.3269
 7535TIP3    H144020   5.181   4.181   2.572  1.6932  1.1105  0.3078
 7535TIP3    H244021   5.226   4.255   2.447 -0.5200  0.9369 -0.6459
 7536TIP3   OH244022   0.954   3.657  15.957 -0.1327 -0.1226 -1.0924
 7536TIP3    H144023   0.966   3.563  15.967 -0.3899 -0.0029  0.6231
 7536TIP3    H244024   0.959   3.672  15.863 -0.3702 -1.8862 -1.4173
 7537TIP3   OH244025   6.207   6.594  10.673 -0.3019  0.3926 -0.1871
 7537TIP3    H144026   6.274   6.618  10.609 -0.3241  0.5232 -0.1627
 7537TIP3    H244027   6.241   6.627  10.756 -2.1071  3.9806 -0.6747
 7538TIP3   OH244028   5.960   5.606   1.087  0.1503  0.0403  0.7196
 7538TIP3    H144029   6.051   5.575   1.085  0.8593  1.9832  0.7556
 7538TIP3    H244030   5.938   5.610   1.180 -0.3250 -1.2848  0.6916
 7539TIP3   OH244031   5.910   4.269   2.053 -0.3792  0.2724 -0.3609
 7539TIP3    H144032   5.978   4.337   2.054 -0.2425  0.1362  0.1310
 7539TIP3    H244033   5.843   4.303   1.995 -0.7459  1.2576  0.6025
 7540TIP3   OH244034   3.062   4.944  15.168  0.3060  0.2947 -0.0890
 7540TIP3    H144035   3.149   4.941  15.128  0.5340  0.2307  0.4037
 7540TIP3    H244036   3.002   4.924  15.096  0.7728 -0.8462 -0.1972
 7541TIP3   OH244037   3.034   6.298  11.654 -0.1788  0.2070  0.2312
 7541TIP3    H144038   2.950   6.310  11.697  0.5803  0.7329  1.6369
 7541TIP3    H244039   3.047   6.203  11.652 -0.5273  0.1497  0.5607
 7542TIP3   OH244040   3.998   6.390   4.419  0.0126  0.2481 -0.4531
 7542TIP3    H144041   4.030   6.368   4.507 -0.0052 -0.5512 -0.6305
 7542TIP3    H244042   3.908   6.418   4.433  0.5634  1.8702 -0.0258
 7543TIP3   OH244043   5.679   2.805   2.382  0.1456 -0.1202  0.1917
 7543TIP3    H144044   5.762   2.770   2.414  0.0891 -1.1142 -0.6802
 7543TIP3    H244045   5.667   2.887   2.430  0.5639 -1.0128  1.9189
 7544TIP3   OH244046   2.611   1.400   4.465 -0.5919 -0.1879 -0.2221
 7544TIP3    H144047   2.607   1.322   4.411  0.4561 -0.5494  0.1980
 7544TIP3    H244048   2.606   1.473   4.403  0.5912 -0.5947 -0.8122
 7545TIP3   OH244049   5.275   2.517   1.438 -0.0553 -0.2262  0.5589
 7545TIP3    H144050   5.186   2.531   1.406 -0.0989 -1.5861 -0.0140
 7545TIP3    H244051   5.310   2.450   1.379  0.7113 -1.0274  1.8889
 7546TIP3   OH244052   5.077   3.093  10.636 -0.2546 -0.0421 -0.3733
 7546TIP3    H144053   5.024   3.018  10.661  0.3119 -0.4191 -0.2728
 7546TIP3    H244054   5.032   3.169  10.674  0.2506 -0.5420  1.3063
 7547TIP3   OH244055   2.101   0.472   3.282  0.3443  0.5290 -0.5572
 7547TIP3    H144056   2.081   0.556   3.323  1.5971  0.4281  0.3218
 7547TIP3    H244057   2.062   0.407   3.341  0.1875  0.4628 -0.7343
 7548TIP3   OH244058   6.255   4.728  10.869 -0.3849  0.4194 -0.0374
 7548TIP3    H144059   6.290   4.769  10.790 -0.4296 -0.8019 -0.7199
 7548TIP3    H244060   6.286   4.638  10.865 -1.6608 -0.0725  0.5400
 7549TIP3   OH244061   3.090   2.612   3.705 -0.5258  0.0710  0.2085
 7549TIP3    H144062   3.007   2.574   3.734 -0.4018  0.7551  1.5253
 7549TIP3    H244063   3.140   2.537   3.672 -1.8425 -0.2758 -1.1191
 7550TIP3   OH244064   4.311   1.501  17.055 -0.0016  0.0825  0.9761
 7550TIP3    H144065   4.392   1.467  17.016  0.3003  0.8931  0.8876
 7550TIP3    H244066   4.248   1.502  16.983 -0.4933 -1.7612  1.3212
 7551TIP3   OH244067   1.277   3.504   5.272 -0.3696 -0.4591  0.3790
 7551TIP3    H144068   1.192   3.520   5.312 -0.6272  5.9026 -1.5269
 7551TIP3    H244069   1.341   3.525   5.341 -0.2072 -3.3368  1.2281
 7552TIP3   OH244070   1.279   5.814   5.144 -0.2859  0.2755  0.3732
 7552TIP3    H144071   1.191   5.850   5.139 -0.1322  0.7141  0.7633
 7552TIP3    H244072   1.291   5.769   5.060 -1.2671 -0.7105  0.7502
 7553TIP3   OH244073   6.241   1.603  11.845 -0.2498 -0.0921 -0.4224
 7553TIP3    H144074   6.330   1.571  11.859 -0.4850 -1.1630 -1.2747
 7553TIP3    H244075   6.227   1.597  11.750 -1.0431  0.5886 -0.3657
 7554TIP3   OH244076   1.415   4.870  11.657  0.2378 -0.7309 -0.1081
 7554TIP3    H144077   1.388   4.794  11.606  0.5677  0.5033 -2.2596
 7554TIP3    H244078   1.339   4.928  11.656 -0.2861 -1.2842  2.1731
 7555TIP3   OH244079   4.898   6.262  14.053  0.5105  0.6043  0.4888
 7555TIP3    H144080   4.875   6.352  14.076 -1.8316  0.3934 -0.7179
 7555TIP3    H244081   4.936   6.269  13.965  0.1243  0.3880  0.3055
 7556TIP3   OH244082   4.595   2.757  13.309 -0.2391 -0.0195 -0.3515
 7556TIP3    H144083   4.579   2.686  13.246  0.2545 -1.6908  1.3059
 7556TIP3    H244084   4.508   2.791  13.329 -0.4573  0.0704 -1.3782
 7557TIP3   OH244085   5.203   5.167  10.573  0.6189 -0.6867  0.4181
 7557TIP3    H144086   5.204   5.151  10.668 -0.4582  1.2099  0.8009
 7557TIP3    H244087   5.248   5.250  10.563 -0.7435 -0.0265 -0.5273
 7558TIP3   OH244088   6.492   6.236   1.622 -0.2262  0.3918  0.5905
 7558TIP3    H144089   6.449   6.198   1.698 -1.2597 -0.8292 -0.5496
 7558TIP3    H244090   6.487   6.168   1.555 -0.4779  1.8552 -0.9604
 7559TIP3   OH244091   2.515   5.917   4.248  0.3466 -0.3211  0.1653
 7559TIP3    H144092   2.449   5.928   4.179  0.8247 -0.6309 -0.3451
 7559TIP3    H244093   2.540   5.824   4.243 -1.9001 -1.2429  2.8396
 7560TIP3   OH244094   1.747   0.080   0.022 -0.6700  0.4689 -0.3265
 7560TIP3    H144095   1.672   0.138   0.004 -0.0035  0.7645 -2.3977
 7560TIP3    H244096   1.754   0.025  -0.056  2.2201  1.5401 -0.9596
 7561TIP3   OH244097   0.928   3.802  10.955 -0.5194  0.1717  0.2145
 7561TIP3    H144098   1.023   3.798  10.961 -0.4708  1.8504  1.5161
 7561TIP3    H244099   0.910   3.851  10.875 -0.2472  0.8035  0.5386
 7562TIP3   OH244100   2.085   5.935  11.876  0.6564  0.1314  0.0596
 7562TIP3    H144101   2.018   5.866  11.871  0.1761  0.6077 -0.1016
 7562TIP3    H244102   2.112   5.948  11.785  0.7312  0.1772  0.0886
 7563TIP3   OH244103   6.811   5.563  15.928  1.1394  0.0552 -0.2931
 7563TIP3    H144104   6.717   5.554  15.912  1.0639 -0.9579  0.5774
 7563TIP3    H244105   6.818   5.583  16.022  1.8161 -0.6408 -0.1834
 7564TIP3   OH244106   0.912   0.144   3.929  0.7336  0.2063 -0.3312
 7564TIP3    H144107   0.880   0.197   3.857 -0.4446  0.5231  0.4065
 7564TIP3    H244108   1.007   0.138   3.914  0.6382  1.0386 -1.3728
 7565TIP3   OH244109   4.807   1.382   2.906  0.3611  0.3331 -0.5312
 7565TIP3    H144110   4.835   1.414   2.820  0.2968 -1.5507 -1.2903
 7565TIP3    H244111   4.779   1.461   2.952 -0.5716  1.2886 -2.6017
 7566TIP3   OH244112   4.310   1.506  12.831 -0.5209  0.2685  0.3769
 7566TIP3    H144113   4.285   1.511  12.924  0.1809 -0.6415  0.6291
 7566TIP3    H244114   4.319   1.597  12.804 -2.0504  0.5887  0.8313
 7567TIP3   OH244115   4.903   6.423  12.551 -0.0712 -0.2605  0.1934
 7567TIP3    H144116   4.990   6.423  12.592  0.1284  1.2950 -0.1763
 7567TIP3    H244117   4.847   6.468  12.614 -0.5175 -0.8409  0.2168
 7568TIP3   OH244118   1.585   2.511   6.487 -0.0788 -0.4161  0.1339
 7568TIP3    H144119   1.497   2.544   6.508 -0.4951 -0.3937 -1.5385
 7568TIP3    H244120   1.644   2.581   6.515 -0.8046  0.8397 -1.2947
 7569TIP3   OH244121   5.571   5.485  13.651  0.2204 -0.5622  0.4486
 7569TIP3    H144122   5.499   5.442  13.605 -0.6598  0.2780  1.0034
 7569TIP3    H244123   5.534   5.567  13.682  1.6874  0.3086 -0.0313
 7570TIP3   OH244124   0.098   4.507   4.720  0.0234  0.1040 -0.2641
 7570TIP3    H144125   0.093   4.601   4.706  0.6403  0.3921  1.2700
 7570TIP3    H244126   0.185   4.493   4.758 -0.7469 -0.8302  1.2598
 7571TIP3   OH244127   4.673   1.371   5.746 -0.1482  0.1566  0.2401
 7571TIP3    H144128   4.632   1.374   5.832  0.0587 -0.5485  0.3708
 7571TIP3    H244129   4.690   1.463   5.724  0.0095  0.3287  1.0472
 7572TIP3   OH244130   5.326   4.144  16.386 -0.2717 -0.3977 -0.6493
 7572TIP3    H144131   5.232   4.147  16.403  0.0201 -1.0586  1.2322
 7572TIP3    H244132   5.362   4.090  16.455  1.5686  0.2151 -1.0658
 7573TIP3   OH244133   2.220   2.867  15.583  0.3606  0.1067 -0.0374
 7573TIP3    H144134   2.222   2.950  15.632 -0.4172  0.9071 -1.2954
 7573TIP3    H244135   2.290   2.876  15.519 -1.1324  0.7992 -1.6626
 7574TIP3   OH244136   4.964   4.901  12.422 -0.0266 -0.1640 -0.5969
 7574TIP3    H144137   4.972   4.993  12.395  0.3041  0.3441  1.1201
 7574TIP3    H244138   4.877   4.896  12.462  0.7338 -0.0599  1.1543
 7575TIP3   OH244139   3.330   2.566  15.052 -0.0543  0.0041 -0.7988
 7575TIP3    H144140   3.259   2.533  14.997 -0.3522  2.0171 -1.7281
 7575TIP3    H244141   3.329   2.661  15.038  0.3529  0.5430  2.0994
 7576TIP3   OH244142   0.327   6.127   5.911  0.0434  0.1336  0.1947
 7576TIP3    H144143   0.280   6.078   5.979  0.0153 -1.3575 -0.8378
 7576TIP3    H244144   0.264   6.193   5.880 -0.4091 -0.0604  0.6958
 7577TIP3   OH244145   2.426   6.717   3.683  0.1313  0.4497  0.1033
 7577TIP3    H144146   2.411   6.626   3.707 -1.0899  0.7476  0.5405
 7577TIP3    H244147   2.408   6.766   3.763 -0.4746  1.1633 -0.4584
 7578TIP3   OH244148   4.170   4.898  16.202  0.4435 -0.7613  0.4842
 7578TIP3    H144149   4.217   4.858  16.128  0.3715 -0.5592  0.3305
 7578TIP3    H244150   4.227   4.969  16.231 -0.1004 -0.0262 -0.1816
 7579TIP3   OH244151   6.297   1.551  11.596 -0.3249  0.1438  0.1592
 7579TIP3    H144152   6.218   1.498  11.587  0.1788 -0.4997 -0.6159
 7579TIP3    H244153   6.317   1.579  11.507 -0.0720  0.9029  0.4431
 7580TIP3   OH244154   0.500   6.010   6.482  0.6827  0.2067 -0.5762
 7580TIP3    H144155   0.537   5.927   6.452  0.1902 -0.0741 -0.4146
 7580TIP3    H244156   0.519   6.012   6.575 -0.1155 -0.1583 -0.4015
 7581TIP3   OH244157   5.549   5.840  16.515  0.0396  0.0135  0.2724
 7581TIP3    H144158   5.562   5.808  16.605 -0.7278  0.0786  0.4144
 7581TIP3    H244159   5.634   5.830  16.474  1.1470  2.4140  1.7595
 7582TIP3   OH244160   4.550   2.860   3.200  0.0845 -0.7341 -0.4837
 7582TIP3    H144161   4.522   2.825   3.115 -1.8617 -1.1386  0.2847
 7582TIP3    H244162   4.563   2.783   3.255  1.5891 -0.4834 -0.4542
 7583TIP3   OH244163   1.106   1.775  10.624 -0.2631 -0.4269  0.0955
 7583TIP3    H144164   1.070   1.826  10.551  2.6822  1.1965 -0.3645
 7583TIP3    H244165   1.152   1.840  10.678 -1.1858 -1.8080  2.6924
 7584TIP3   OH244166   6.306   3.506  13.368  0.0502  0.0467 -0.2306
 7584TIP3    H144167   6.350   3.584  13.333 -1.7633  1.4807  0.4969
 7584TIP3    H244168   6.376   3.452  13.402  1.3628  1.4747 -0.5548
 7585TIP3   OH244169   6.199   5.037  12.799  0.1679  0.3513 -0.7005
 7585TIP3    H144170   6.114   5.058  12.839  0.8593  0.8112  0.5909
 7585TIP3    H244171   6.222   4.951  12.835  0.3506  0.3290 -0.8675
 7586TIP3   OH244172   4.894   2.141  12.778  0.2448 -0.0027 -0.1099
 7586TIP3    H144173   4.905   2.234  12.798 -0.7322  0.0767  0.0822
 7586TIP3    H244174   4.966   2.098  12.825 -0.5982  0.4238  1.6736
 7587TIP3   OH244175   1.486   6.204  11.523 -0.4171 -0.5663 -0.4690
 7587TIP3    H144176   1.513   6.129  11.576 -0.0504  0.9421  1.5940
 7587TIP3    H244177   1.409   6.239  11.568  0.0171  0.8705 -0.7962
 7588TIP3   OH244178   0.651   3.249  11.214  0.1362 -0.0727 -0.4767
 7588TIP3    H144179   0.676   3.338  11.237 -0.0673 -0.5249  1.7259
 7588TIP3    H244180   0.581   3.259  11.150  1.1488  1.2903 -1.4438
 7589TIP3   OH244181   5.027   1.076  13.591  0.1537  0.0410  0.3006
 7589TIP3    H144182   5.028   1.071  13.496 -1.8344  2.2270  0.0570
 7589TIP3    H244183   5.045   1.168  13.611 -1.6183  0.1252  1.8663
 7590TIP3   OH244184   1.063   5.021   1.352  0.5768  0.6162  0.3204
 7590TIP3    H144185   1.001   5.087   1.383  2.6917  2.3749  1.0507
 7590TIP3    H244186   1.064   5.032   1.257 -2.9289 -2.0406 -0.1974
 7591TIP3   OH244187   3.145   4.993   0.825  0.0593  0.3193  0.5068
 7591TIP3    H144188   3.118   5.083   0.844  1.0078  1.0215 -1.2673
 7591TIP3    H244189   3.062   4.946   0.812 -0.4533  0.8880  1.5699
 7592TIP3   OH244190   1.187   5.151   1.119  0.4873 -0.3279 -0.1790
 7592TIP3    H144191   1.256   5.173   1.182  1.7685  1.5554 -2.0980
 7592TIP3    H244192   1.207   5.204   1.042 -2.2769 -0.8570 -1.3899
 7593TIP3   OH244193   5.541   0.706   4.017  0.0456 -0.1669  0.1164
 7593TIP3    H144194   5.587   0.642   3.962  1.6323  0.3724  0.7689
 7593TIP3    H244195   5.511   0.656   4.092  0.2264 -0.3860  0.0450
 7594TIP3   OH244196   0.081   4.233   0.697 -0.2405 -0.4722  0.3709
 7594TIP3    H144197   0.009   4.171   0.713 -0.2664 -0.0845  1.9215
 7594TIP3    H244198   0.055   4.279   0.617 -0.3087 -2.3009 -0.7186
 7595TIP3   OH244199   4.719   2.256  12.501 -0.0128  0.6056  0.2125
 7595TIP3    H144200   4.656   2.250  12.429  1.8320 -2.2412 -1.3772
 7595TIP3    H244201   4.771   2.334  12.481  0.4477 -0.1061 -1.6108
 7596TIP3   OH244202   6.326   0.409  13.577 -0.0397  0.0251  0.1471
 7596TIP3    H144203   6.309   0.329  13.528  0.2911  0.0669 -0.0420
 7596TIP3    H244204   6.364   0.379  13.660 -1.8902 -0.1175  0.9780
 7597TIP3   OH244205   5.086   5.545   4.858 -0.0014  0.0371  0.5101
 7597TIP3    H144206   5.129   5.596   4.789  2.9200 -1.4382  1.0697
 7597TIP3    H244207   5.074   5.608   4.929 -0.9975  1.0492 -0.5142
 7598TIP3   OH244208   3.625   1.380   5.338  0.3704 -0.1587 -0.5580
 7598TIP3    H144209   3.685   1.350   5.270  1.9338 -1.7523  1.3835
 7598TIP3    H244210   3.628   1.476   5.332  2.6955 -0.1943 -0.9501
 7599TIP3   OH244211   4.578   3.869   5.881  0.4967  1.1151 -0.1002
 7599TIP3    H144212   4.525   3.812   5.825  0.3929 -1.9706  2.8370
 7599TIP3    H244213   4.514   3.914   5.937  0.7638  0.5000  0.7166
 7600TIP3   OH244214   6.021   5.795  15.573 -0.1312  0.1727  0.7634
 7600TIP3    H144215   5.962   5.853  15.525 -0.5859 -0.6007  0.3801
 7600TIP3    H244216   6.026   5.834  15.660  0.3791  1.3575  0.2232
 7601TIP3   OH244217   5.419   1.975   5.277  0.1862 -0.8494 -0.3177
 7601TIP3    H144218   5.354   1.987   5.346 -1.8160  0.4912 -2.3028
 7601TIP3    H244219   5.425   2.060   5.234  0.3263 -1.9399 -2.6154
 7602TIP3   OH244220   1.549   0.268  11.405 -0.8089  0.3217 -0.2918
 7602TIP3    H144221   1.554   0.283  11.311 -1.1567  1.7577 -0.1132
 7602TIP3    H244222   1.505   0.183  11.414  0.2494 -0.3670 -1.4186
 7603TIP3   OH244223   5.892   4.849   2.269  0.1373 -0.1525 -0.0456
 7603TIP3    H144224   5.855   4.833   2.182  0.9075 -1.8784 -0.0943
 7603TIP3    H244225   5.964   4.910   2.253  0.1294 -0.2732 -0.5820
 7604TIP3   OH244226   6.662   1.166  12.625 -0.6577  0.2186 -0.1127
 7604TIP3    H144227   6.672   1.147  12.531  2.9824 -2.5985  0.6348
 7604TIP3    H244228   6.673   1.082  12.668  0.2358  1.7710  2.9544
 7605TIP3   OH244229   2.761   5.047   2.462  0.0511 -0.3967 -0.0231
 7605TIP3    H144230   2.676   5.046   2.418 -0.4165 -1.0432  0.8597
 7605TIP3    H244231   2.793   4.957   2.452  0.2929 -0.3440  0.2903
 7606TIP3   OH244232   0.392   3.597  10.750 -0.1054 -0.5853 -0.3412
 7606TIP3    H144233   0.484   3.608  10.775 -0.4260 -0.5904  0.9012
 7606TIP3    H244234   0.374   3.670  10.691  1.1955 -1.6312 -2.1299
 7607TIP3   OH244235   6.138   4.627  12.195 -0.7000  0.6978  1.2295
 7607TIP3    H144236   6.144   4.678  12.276 -0.3327 -1.0987  2.3885
 7607TIP3    H244237   6.146   4.536  12.223  2.2972  0.0902 -1.1153
 7608TIP3   OH244238   6.134   3.706   0.709  0.0169  0.1141 -0.3703
 7608TIP3    H144239   6.114   3.745   0.624  2.1140  1.7646 -0.2039
 7608TIP3    H244240   6.090   3.763   0.772 -2.4486 -1.7353 -0.3172
 7609TIP3   OH244241   4.195   4.264   5.920 -0.4810  1.1593 -0.1287
 7609TIP3    H144242   4.157   4.177   5.926 -1.2005  1.4885  0.1108
 7609TIP3    H244243   4.154   4.303   5.843  0.7871  0.8424 -1.0166
 7610TIP3   OH244244   1.315   0.286  12.677  0.4368 -0.3606 -0.3125
 7610TIP3    H144245   1.328   0.290  12.772 -0.4448 -0.5530 -0.1782
 7610TIP3    H244246   1.302   0.378  12.651  1.1588 -0.2570 -0.3241
 7611TIP3   OH244247   4.829   6.449  12.289 -0.0520  0.2031  0.4775
 7611TIP3    H144248   4.739   6.475  12.308 -0.5241 -1.2113  0.3158
 7611TIP3    H244249   4.866   6.427  12.374 -0.5883 -1.3458  0.3412
 7612TIP3   OH244250   2.551   5.166   1.980 -0.5291  0.8567 -0.1570
 7612TIP3    H144251   2.597   5.118   2.049 -1.3060 -1.7506 -1.3181
 7612TIP3    H244252   2.472   5.200   2.023 -1.0777 -0.8649  0.2925
 7613TIP3   OH244253   6.609   5.987  15.141  0.2674  0.1996 -0.2252
 7613TIP3    H144254   6.665   5.924  15.186  0.4494  0.5368  0.0278
 7613TIP3    H244255   6.591   5.947  15.056 -0.0428 -0.4212  0.1280
 7614TIP3   OH244256   5.002   4.725   0.924 -0.3666  0.0455 -0.0391
 7614TIP3    H144257   5.031   4.645   0.969  0.0528 -0.2436 -0.8106
 7614TIP3    H244258   5.015   4.707   0.831  1.4036  1.6364 -0.1601
 7615TIP3   OH244259   0.302   3.652   1.572  0.5181 -0.1787  0.3628
 7615TIP3    H144260   0.285   3.579   1.632 -0.2440 -0.6849 -0.4548
 7615TIP3    H244261   0.219   3.701   1.570  0.1559 -0.8193 -1.1475
 7616TIP3   OH244262   1.824   2.873  16.429  0.0183 -0.8131 -0.1652
 7616TIP3    H144263   1.734   2.839  16.428  0.8002 -2.9958 -0.5535
 7616TIP3    H244264   1.842   2.891  16.521 -1.4259  1.5246 -0.2522
 7617TIP3   OH244265   5.292   6.165  12.075 -0.0113  0.0638 -0.3473
 7617TIP3    H144266   5.330   6.171  12.163 -0.8725 -0.0773  0.0407
 7617TIP3    H244267   5.327   6.083  12.040 -0.6333 -0.5101  0.3436
 7618TIP3   OH244268   6.569   2.082  12.320 -0.2530  0.4854  0.5659
 7618TIP3    H144269   6.600   2.080  12.230 -2.2064 -0.6746 -0.1354
 7618TIP3    H244270   6.622   2.017  12.365 -0.3400 -0.0769 -0.1292
 7619TIP3   OH244271   1.570   1.042   3.424 -0.3005  0.0105 -0.4488
 7619TIP3    H144272   1.651   1.010   3.383  0.3111  2.0111 -0.9449
 7619TIP3    H244273   1.501   0.990   3.384  0.5334  0.0113 -2.0014
 7620TIP3   OH244274   4.601   4.735  15.649  0.6781 -0.3621 -0.4139
 7620TIP3    H144275   4.618   4.825  15.676  1.0486 -0.4373 -0.3908
 7620TIP3    H244276   4.583   4.741  15.555 -0.6967 -0.0886 -0.1598
 7621TIP3   OH244277   5.529   1.075  15.226 -0.0549  0.1334 -0.0788
 7621TIP3    H144278   5.485   1.106  15.306 -0.0292  0.6362 -0.2578
 7621TIP3    H244279   5.597   1.017  15.258 -1.1105 -1.0031  0.1931
 7622TIP3   OH244280   0.819   1.847  16.363 -0.4650 -0.3489  0.1244
 7622TIP3    H144281   0.854   1.781  16.423 -2.2459  0.0267  1.6794
 7622TIP3    H244282   0.767   1.798  16.300 -1.1067 -0.5338  0.7783
 7623TIP3   OH244283   4.431   4.207  13.245  0.5830 -0.1226 -0.1592
 7623TIP3    H144284   4.377   4.141  13.289 -0.8029  1.5774  0.8500
 7623TIP3    H244285   4.500   4.157  13.202 -1.0079 -2.3106 -0.3671
 7624TIP3   OH244286   4.258   3.973  15.022  0.8725 -0.2598  0.6375
 7624TIP3    H144287   4.321   3.905  15.047  0.9896 -0.6350 -0.6286
 7624TIP3    H244288   4.206   3.934  14.953  0.2195  0.5762  0.6384
 7625TIP3   OH244289   3.724   5.584  11.181  0.0362  0.2242 -0.1982
 7625TIP3    H144290   3.714   5.614  11.091 -0.3290  0.8374  0.0388
 7625TIP3    H244291   3.667   5.508  11.188 -0.0128  0.2379 -0.4577
 7626TIP3   OH244292   3.522   2.653   2.598  0.2997 -0.1609 -0.1242
 7626TIP3    H144293   3.571   2.661   2.679  0.0320  0.5618 -0.0357
 7626TIP3    H244294   3.532   2.560   2.574  2.3597  0.1146 -0.5175
 7627TIP3   OH244295   4.817   6.745  11.680 -0.4443  0.1938 -0.6193
 7627TIP3    H144296   4.770   6.810  11.733 -1.3447  0.2453 -1.4480
 7627TIP3    H244297   4.760   6.731  11.604  0.0059 -1.1379 -0.7372
 7628TIP3   OH244298   6.102   5.652  14.398  0.1634  0.2400 -0.4203
 7628TIP3    H144299   6.027   5.604  14.364  0.4184 -1.1828  0.9416
 7628TIP3    H244300   6.176   5.593  14.385  0.8404  1.1132 -0.5881
 7629TIP3   OH244301   1.467   2.887  11.483  0.4448  0.1281  0.0206
 7629TIP3    H144302   1.383   2.894  11.437 -0.2795  0.0834  1.2879
 7629TIP3    H244303   1.451   2.823  11.552  1.9356 -0.9129 -0.5533
 7630TIP3   OH244304   0.903   3.777  14.939 -0.0398  0.3103 -0.3538
 7630TIP3    H144305   0.970   3.755  15.004 -1.0264 -1.0720  0.2639
 7630TIP3    H244306   0.829   3.808  14.991 -0.6638 -0.3382 -0.8366
 7631TIP3   OH244307   6.018   0.974  11.544 -0.0306 -0.3000 -0.0992
 7631TIP3    H144308   5.928   0.972  11.575 -0.1030 -1.3948 -0.3358
 7631TIP3    H244309   6.034   0.886  11.510  1.6144 -0.6014  1.3411
 7632TIP3   OH244310   4.765   3.146   4.571  0.6398 -0.4362  0.5022
 7632TIP3    H144311   4.709   3.076   4.603  0.7888 -0.2413  1.1990
 7632TIP3    H244312   4.764   3.136   4.476  0.6709 -1.3892  0.5952
 7633TIP3   OH244313   4.012   2.593   1.084 -0.9589  0.7268 -0.1183
 7633TIP3    H144314   4.089   2.608   1.138 -1.4203  2.0165  0.2157
 7633TIP3    H244315   4.037   2.522   1.025  0.9061  1.8911 -0.8130
 7634TIP3   OH244316   1.374   2.964  15.423 -0.2605 -0.0802  0.3385
 7634TIP3    H144317   1.417   2.963  15.508 -2.0394  1.9767  1.3723
 7634TIP3    H244318   1.281   2.950  15.443 -0.6055 -0.4663 -1.3744
 7635TIP3   OH244319   1.355   4.821  13.329  0.5222 -0.0988 -0.0149
 7635TIP3    H144320   1.430   4.878  13.312  0.7223 -0.7036 -1.2632
 7635TIP3    H244321   1.394   4.735  13.348  0.1523 -0.5240 -1.1183
 7636TIP3   OH244322   2.190   2.091   5.139 -0.2675 -0.5082  0.1046
 7636TIP3    H144323   2.248   2.156   5.100  2.0530 -1.4914  1.6696
 7636TIP3    H244324   2.164   2.035   5.067 -1.5074  1.4639 -1.0985
 7637TIP3   OH244325   1.286   3.848   5.561 -0.6810  0.2640  0.3052
 7637TIP3    H144326   1.368   3.836   5.610  0.6238  1.4865 -1.4882
 7637TIP3    H244327   1.242   3.763   5.567  1.1553 -0.7028  0.5384
 7638TIP3   OH244328   2.302   4.258   5.386 -0.6471 -0.2021 -0.0219
 7638TIP3    H144329   2.297   4.163   5.395 -0.6249 -0.5005 -2.4741
 7638TIP3    H244330   2.378   4.283   5.438 -1.6515 -1.2612  2.0692
 7639TIP3   OH244331   3.492   6.362  14.476  0.1001  0.0390  0.6710
 7639TIP3    H144332   3.413   6.355  14.531 -0.9307 -0.1355 -0.7797
 7639TIP3    H244333   3.533   6.276  14.482 -0.2304 -0.1114  0.8230
 7640TIP3   OH244334   5.372   2.619   5.432 -0.0939  0.6679  0.2993
 7640TIP3    H144335   5.438   2.646   5.496 -1.8421  2.6946  1.3869
 7640TIP3    H244336   5.337   2.701   5.398 -2.1967 -0.2995 -0.0467
 7641TIP3   OH244337   4.322   3.390  14.552 -0.2188  0.0583  0.3336
 7641TIP3    H144338   4.324   3.443  14.632  0.3950 -1.7468  1.5941
 7641TIP3    H244339   4.336   3.452  14.481  1.6795  1.4283  1.8069
 7642TIP3   OH244340   1.856   5.245   1.912 -0.1515 -0.1331 -0.0810
 7642TIP3    H144341   1.852   5.153   1.884 -1.8112 -0.3204  0.6695
 7642TIP3    H244342   1.764   5.270   1.925  0.3376  1.2918  0.8272
 7643TIP3   OH244343   0.748   4.282   1.662 -0.0200 -0.1875  0.1721
 7643TIP3    H144344   0.765   4.375   1.680 -0.0997  0.5174 -2.8175
 7643TIP3    H244345   0.692   4.253   1.735 -1.1651  2.4953  0.4935
 7644TIP3   OH244346   4.696   5.684   4.754 -0.4655 -0.7698  0.0991
 7644TIP3    H144347   4.717   5.752   4.690 -1.0909 -0.5092  0.1677
 7644TIP3    H244348   4.699   5.602   4.704 -0.1338 -0.6557 -0.0740
 7645TIP3   OH244349   0.896   3.786   1.785 -0.6716 -0.2089  0.3173
 7645TIP3    H144350   0.828   3.843   1.749 -1.0416 -0.3634  0.7672
 7645TIP3    H244351   0.890   3.798   1.880  0.5400  0.4861  0.3327
 7646TIP3   OH244352   4.622   6.648  12.167  1.1168  0.4587  0.0292
 7646TIP3    H144353   4.536   6.686  12.181 -0.4598 -2.6544 -0.2838
 7646TIP3    H244354   4.643   6.666  12.076  0.9453  1.4790  0.1863
 7647TIP3   OH244355   0.396   0.249   1.095  0.3515 -0.2810  0.0591
 7647TIP3    H144356   0.346   0.240   1.176 -1.8581  1.7181 -0.9545
 7647TIP3    H244357   0.387   0.163   1.052  2.4156 -1.7109  2.2698
 7648TIP3   OH244358   5.104   5.417  11.961  0.0473  0.1461 -0.2365
 7648TIP3    H144359   5.134   5.504  11.989  0.8103 -0.0061 -0.5879
 7648TIP3    H244360   5.010   5.430  11.944  0.1725  0.9320 -0.4029
 7649TIP3   OH244361   2.553   5.439  13.974 -0.2999  1.0055  0.7670
 7649TIP3    H144362   2.505   5.402  13.900  0.2915  1.3281  0.2075
 7649TIP3    H244363   2.490   5.494  14.019 -0.5466  1.1752  0.2283
 7650TIP3   OH244364   6.728   4.929   2.637  0.7475 -0.1997  0.4456
 7650TIP3    H144365   6.791   4.901   2.570  0.2472 -1.4951  0.4987
 7650TIP3    H244366   6.766   4.901   2.720  0.8472  0.4374  0.6206
 7651TIP3   OH244367   4.392   0.456   1.199 -1.0155 -0.3489  0.1904
 7651TIP3    H144368   4.477   0.418   1.175 -2.4651 -3.7793 -0.2037
 7651TIP3    H244369   4.356   0.489   1.117 -0.9436 -0.8726 -0.0561
 7652TIP3   OH244370   4.115   5.041  12.558  0.5076 -0.9766 -0.8103
 7652TIP3    H144371   4.116   5.095  12.478 -0.9460  2.2961  1.1636
 7652TIP3    H244372   4.027   5.005  12.562  1.1128 -2.6435 -1.4915
 7653TIP3   OH244373   4.249   2.287  13.663 -0.1638  0.1993 -0.0338
 7653TIP3    H144374   4.164   2.323  13.638 -1.0582  0.2533  2.7161
 7653TIP3    H244375   4.243   2.276  13.758  2.2025 -1.6851 -0.0064
 7654TIP3   OH244376   4.419   1.967   1.731  0.2743 -0.6161  0.2295
 7654TIP3    H144377   4.449   1.880   1.704  0.0530 -0.1353 -1.7406
 7654TIP3    H244378   4.499   2.020   1.735  0.2273 -0.5015 -0.2806
 7655TIP3   OH244379   2.196   2.895  14.879 -0.0190 -0.2950 -0.7438
 7655TIP3    H144380   2.102   2.893  14.861 -0.4339  1.4340  0.8339
 7655TIP3    H244381   2.233   2.950  14.810  0.0516 -1.8490 -1.9967
 7656TIP3   OH244382   3.063   0.071   3.436  0.2183  0.0951 -0.0233
 7656TIP3    H144383   3.129   0.006   3.460  1.8841 -0.0354 -4.0516
 7656TIP3    H244384   3.094   0.153   3.473  0.1758 -0.7026  1.8609
 7657TIP3   OH244385   5.608   3.102  13.686  0.0603  0.0977  0.0860
 7657TIP3    H144386   5.688   3.087  13.737 -0.7833  0.2963  1.5247
 7657TIP3    H244387   5.624   3.185  13.641  0.5855  0.2588  0.5487
 7658TIP3   OH244388   1.919   6.520   4.430  0.1865  0.2196 -0.4538
 7658TIP3    H144389   1.986   6.588   4.428  0.9258 -0.4221  1.2074
 7658TIP3    H244390   1.965   6.441   4.459 -1.1033 -0.4558 -0.1685
 7659TIP3   OH244391   5.871   1.023   0.242  0.0762  0.6847 -0.4091
 7659TIP3    H144392   5.840   1.105   0.205  2.1304  1.1020 -1.3583
 7659TIP3    H244393   5.910   1.047   0.326 -0.8812  0.3774  0.1394
 7660TIP3   OH244394   2.761   6.208   2.932  0.0567 -0.1980  0.7974
 7660TIP3    H144395   2.841   6.240   2.973 -0.1229  0.4059  0.6888
 7660TIP3    H244396   2.690   6.255   2.976 -0.0276  2.7132 -2.0761
 7661TIP3   OH244397   2.112   2.467   0.061 -0.5828 -0.0107  0.3518
 7661TIP3    H144398   2.101   2.384   0.014  0.3141 -0.1472  0.3742
 7661TIP3    H244399   2.194   2.457   0.109 -1.3648  0.2111  1.7808
 7662TIP3   OH244400   5.395   1.659   2.977  0.3542  0.1416 -0.0092
 7662TIP3    H144401   5.313   1.633   2.936  0.2362  0.0514  0.2881
 7662TIP3    H244402   5.444   1.701   2.906  0.6470 -1.0786 -0.5610
 7663TIP3   OH244403   4.322   4.296  16.835 -0.8234  0.0904  0.5604
 7663TIP3    H144404   4.325   4.234  16.762 -1.4870  0.4013  0.2655
 7663TIP3    H244405   4.403   4.279  16.883 -0.1199  0.2370 -0.5372
 7664TIP3   OH244406   2.873   6.554  16.957 -0.0411  0.4554  0.0919
 7664TIP3    H144407   2.829   6.609  16.892  3.0695  1.1101 -1.6334
 7664TIP3    H244408   2.952   6.523  16.913  1.4573 -0.3325  3.0901
 7665TIP3   OH244409   4.554   5.149   5.194  0.1431 -0.3399 -0.0621
 7665TIP3    H144410   4.542   5.054   5.191 -1.0475 -0.2017  0.0242
 7665TIP3    H244411   4.609   5.169   5.118 -0.9052 -0.9184 -0.9873
 7666TIP3   OH244412   2.492   3.263  12.544 -0.4254  0.2130 -0.0562
 7666TIP3    H144413   2.558   3.313  12.593  0.2532  0.4611 -1.1913
 7666TIP3    H244414   2.535   3.180  12.525 -0.3627  0.4398 -0.9496
 7667TIP3   OH244415   4.795   2.311   2.966 -0.0007 -0.0261  0.8209
 7667TIP3    H144416   4.734   2.308   3.040  0.8478 -2.1961  1.4974
 7667TIP3    H244417   4.747   2.268   2.895  0.3337 -0.7859  1.0476
 7668TIP3   OH244418   4.044   4.915  15.483  0.5262 -0.4551  0.0029
 7668TIP3    H144419   4.008   4.935  15.397  0.4936 -0.1414  0.0882
 7668TIP3    H244420   4.103   4.988  15.503  0.7061 -0.6403  0.1467
 7669TIP3   OH244421   1.102   0.829  13.317  0.1475 -0.3961  0.4189
 7669TIP3    H144422   1.103   0.734  13.322 -0.7661 -0.4615 -0.3210
 7669TIP3    H244423   1.192   0.854  13.300  0.0293 -1.2731 -1.6948
 7670TIP3   OH244424   5.139   6.023  10.862  0.4333  0.1324 -0.2738
 7670TIP3    H144425   5.166   5.935  10.886  0.2208 -0.2458 -1.3687
 7670TIP3    H244426   5.207   6.053  10.801  1.1670  1.2136  1.0168
 7671TIP3   OH244427   2.008   0.364  12.502  0.0190 -0.1442  0.0168
 7671TIP3    H144428   1.939   0.300  12.519 -0.4024  0.4581  0.6238
 7671TIP3    H244429   2.077   0.314  12.459 -0.6513 -0.8267 -0.2830
 7672TIP3   OH244430   5.367   5.488  10.897  0.6185 -0.1740 -0.6709
 7672TIP3    H144431   5.337   5.444  10.818  0.9539 -0.2889 -0.7351
 7672TIP3    H244432   5.402   5.571  10.867 -1.6844  0.9978 -0.3721
 7673TIP3   OH244433   4.315   3.609   3.513 -0.1927  0.3672  0.2674
 7673TIP3    H144434   4.361   3.551   3.573 -0.9334  0.4724  0.9528
 7673TIP3    H244435   4.379   3.628   3.444  0.3446 -0.5340  0.5050
 7674TIP3   OH244436   4.920   2.782   3.956 -0.6160 -0.5511 -0.3158
 7674TIP3    H144437   4.994   2.753   3.902 -0.1306  1.2021 -0.6307
 7674TIP3    H244438   4.868   2.837   3.898 -0.1446  1.2862  0.9433
 7675TIP3   OH244439   4.428   2.678   3.847 -0.3258  0.0677 -0.3823
 7675TIP3    H144440   4.336   2.703   3.848 -0.0722  1.0600  1.4773
 7675TIP3    H244441   4.476   2.760   3.858  0.8638 -0.3087 -2.1368
 7676TIP3   OH244442   2.496   0.387  12.207  0.5749  0.4173 -1.1324
 7676TIP3    H144443   2.410   0.356  12.237  0.6485  0.1626 -1.1837
 7676TIP3    H244444   2.497   0.367  12.114  0.6136  0.5967 -1.1699
 7677TIP3   OH244445   5.844   6.766   3.860  0.4040 -0.3790 -0.2644
 7677TIP3    H144446   5.759   6.802   3.886  1.2927  3.6486 -2.1823
 7677TIP3    H244447   5.829   6.730   3.772  0.5131 -0.4452 -0.2558
 7678TIP3   OH244448   5.226   3.149  15.140 -0.7310  0.4317  0.1391
 7678TIP3    H144449   5.243   3.172  15.232 -0.1232 -1.4278  0.5341
 7678TIP3    H244450   5.132   3.165  15.128 -1.0363 -0.2989  1.4066
 7679TIP3   OH244451   1.374   1.536  15.555 -0.2637 -0.2422  0.3772
 7679TIP3    H144452   1.293   1.489  15.536  0.2401 -0.7043 -0.6352
 7679TIP3    H244453   1.391   1.517  15.647 -0.9362 -0.6958  0.4154
 7680TIP3   OH244454   1.457   4.401  14.550  0.0497 -0.1649 -0.5073
 7680TIP3    H144455   1.402   4.386  14.474  1.3332 -1.6965 -1.1973
 7680TIP3    H244456   1.413   4.354  14.621 -1.4814  1.7880 -0.0982
 7681TIP3   OH244457   2.514   5.748   2.547 -0.2389  0.4205 -0.3859
 7681TIP3    H144458   2.575   5.674   2.551  0.7557  1.2662  0.6271
 7681TIP3    H244459   2.459   5.729   2.471  1.6644 -0.0840 -1.7028
 7682TIP3   OH244460   4.827   5.174  14.156 -0.3307 -0.0402 -0.2172
 7682TIP3    H144461   4.732   5.176  14.166 -0.3195 -2.4516  1.2380
 7682TIP3    H244462   4.854   5.093  14.200  2.3826  0.4486 -0.7942
 7683TIP3   OH244463   2.650   0.544  14.565 -0.5131 -0.7695  0.6120
 7683TIP3    H144464   2.742   0.519  14.563  0.1240  1.3575 -1.0100
 7683TIP3    H244465   2.611   0.500  14.489 -0.5105 -0.5787  0.4994
 7684TIP3   OH244466   3.023   0.876   5.871 -0.1282 -0.0776  0.6076
 7684TIP3    H144467   3.118   0.890   5.865 -0.1353 -0.1618  0.2756
 7684TIP3    H244468   2.987   0.963   5.888  0.0126 -0.0536  0.7851
 7685TIP3   OH244469   2.121   1.159   4.496 -0.6155  0.2865 -0.2863
 7685TIP3    H144470   2.097   1.178   4.405 -0.5909  1.3193 -0.0871
 7685TIP3    H244471   2.037   1.148   4.541 -0.7870  3.1949  0.2610
 7686TIP3   OH244472   0.892   0.302  11.369 -0.1322  0.7015 -0.4494
 7686TIP3    H144473   0.950   0.336  11.438  0.5280  1.8347 -1.5393
 7686TIP3    H244474   0.937   0.321  11.287 -1.1015 -0.2574 -1.2376
 7687TIP3   OH244475   1.504   4.855  11.001  0.1320  0.3045  0.4943
 7687TIP3    H144476   1.540   4.867  11.089  0.3829 -2.5758  0.8744
 7687TIP3    H244477   1.536   4.930  10.951  0.8507  1.4495  2.5837
 7688TIP3   OH244478   2.429   2.271   0.442  0.3104  0.4469  0.2483
 7688TIP3    H144479   2.507   2.230   0.479 -0.3530  1.2574  2.7259
 7688TIP3    H244480   2.455   2.361   0.424 -0.0816  0.7612  1.2266
 7689TIP3   OH244481   1.285   6.038   6.138  0.2537 -0.3576 -0.1869
 7689TIP3    H144482   1.269   6.118   6.189  0.5173  0.2474 -1.0271
 7689TIP3    H244483   1.371   6.007   6.168  0.5401  0.1568 -0.4770
 7690TIP3   OH244484   3.831   4.561   3.384 -0.3640 -1.0590  0.5056
 7690TIP3    H144485   3.742   4.538   3.412 -0.4712 -2.5055 -0.9052
 7690TIP3    H244486   3.827   4.655   3.367 -1.5297 -1.0358  0.7815
 7691TIP3   OH244487   5.115   5.051  16.656  0.4189  0.5799  0.1995
 7691TIP3    H144488   5.191   5.080  16.706 -0.0101 -0.9937  1.8756
 7691TIP3    H244489   5.116   4.955  16.664 -0.8467  0.4319 -1.0885
 7692TIP3   OH244490   5.970   5.615   2.493 -0.0269 -0.2029 -0.1162
 7692TIP3    H144491   5.898   5.642   2.551  0.0883  0.1252 -0.1222
 7692TIP3    H244492   5.945   5.647   2.407  1.4288  2.5030  0.3437
 7693TIP3   OH244493   0.341   6.072  16.353 -0.0530 -0.0700  0.5360
 7693TIP3    H144494   0.271   6.033  16.301  0.4176 -0.3917  0.1358
 7693TIP3    H244495   0.328   6.036  16.441  0.5050 -1.3399  0.1269
 7694TIP3   OH244496   0.577   1.024   5.090 -0.0470  0.0291  0.1814
 7694TIP3    H144497   0.558   0.948   5.034 -0.7516 -0.0949  0.5792
 7694TIP3    H244498   0.651   0.997   5.143  0.5528  0.1014 -0.6041
 7695TIP3   OH244499   4.658   0.233  12.102  0.3688  0.3710 -0.4909
 7695TIP3    H144500   4.729   0.180  12.138 -0.4313 -0.0795  0.5020
 7695TIP3    H244501   4.619   0.275  12.178 -0.6449  0.3282 -0.9636
 7696TIP3   OH244502   0.978   1.261   2.513  0.6369 -0.5289 -0.0843
 7696TIP3    H144503   0.976   1.188   2.451 -0.7314 -0.3547 -0.2789
 7696TIP3    H244504   1.063   1.254   2.556  1.2694 -1.1426 -1.3886
 7697TIP3   OH244505   0.145   6.402   1.283  0.2750  1.0783 -1.0109
 7697TIP3    H144506   0.119   6.326   1.335 -1.2246  1.8844 -0.5271
 7697TIP3    H244507   0.171   6.468   1.347  0.0198  1.5201 -1.3564
 7698TIP3   OH244508   3.404   5.133   2.553 -0.1834 -0.5869  0.2125
 7698TIP3    H144509   3.336   5.095   2.609 -0.2659 -1.7478 -0.6318
 7698TIP3    H244510   3.446   5.199   2.607 -1.1926 -0.6982  1.1568
 7699TIP3   OH244511   3.536   2.909   6.397  0.5576 -0.3071  0.2599
 7699TIP3    H144512   3.555   2.911   6.303 -3.1336 -1.0220 -0.6733
 7699TIP3    H244513   3.471   2.979   6.409 -0.1849 -1.2347  1.9476
 7700TIP3   OH244514   0.142   1.707  15.713 -0.6837  0.0097  0.1135
 7700TIP3    H144515   0.127   1.613  15.718 -0.2468 -0.0486  0.3276
 7700TIP3    H244516   0.057   1.743  15.685 -0.7301 -0.4865 -0.4200
 7701TIP3   OH244517   0.647   2.906   0.705  0.0004 -0.3370 -0.4496
 7701TIP3    H144518   0.641   2.996   0.673  1.0467 -0.2766 -0.5324
 7701TIP3    H244519   0.656   2.853   0.625 -0.7785 -0.5421 -0.4108
 7702TIP3   OH244520   5.828   0.601  16.071  0.4053  0.0801  0.1193
 7702TIP3    H144521   5.797   0.512  16.055 -0.7519  0.2705  1.1101
 7702TIP3    H244522   5.907   0.609  16.019  1.0358 -1.8303  0.6945
 7703TIP3   OH244523   2.209   5.733  15.649  0.3956 -0.8479  0.2849
 7703TIP3    H144524   2.214   5.811  15.594  2.2211  0.1574  1.7677
 7703TIP3    H244525   2.138   5.681  15.611  0.7966  0.3298 -2.2628
 7704TIP3   OH244526   2.930   6.241  13.359  0.0127 -0.0507  0.3428
 7704TIP3    H144527   2.958   6.154  13.331  1.9308 -0.1739  2.4404
 7704TIP3    H244528   2.907   6.231  13.451 -0.8727  1.4429  0.3244
 7705TIP3   OH244529   6.044   4.956  16.452  0.3826  0.6763 -0.5636
 7705TIP3    H144530   6.060   4.917  16.538 -0.7716  0.1027 -0.5796
 7705TIP3    H244531   6.002   4.886  16.402  0.1786  1.3015 -1.2873
 7706TIP3   OH244532   4.656   2.073   0.752  0.4341 -0.2543 -0.0841
 7706TIP3    H144533   4.717   2.024   0.808  1.5582  0.3616 -0.7367
 7706TIP3    H244534   4.617   2.006   0.695 -0.9448 -0.9378  1.5531
 7707TIP3   OH244535   6.230   5.640  11.566  0.2252  0.7636  0.1908
 7707TIP3    H144536   6.289   5.698  11.613  0.4693  0.5288  0.1764
 7707TIP3    H244537   6.155   5.695  11.542  0.6953  1.2010 -0.2881
 7708TIP3   OH244538   0.063   2.163   2.127 -0.9081  0.2188  0.0654
 7708TIP3    H144539   0.056   2.258   2.125 -2.4461  0.2487  2.3539
 7708TIP3    H244540   0.146   2.147   2.173 -0.9923  0.4794  0.3142
 7709TIP3   OH244541   5.785   4.313  16.166 -0.0008  0.4939  0.0515
 7709TIP3    H144542   5.708   4.281  16.119  1.1715 -0.6715 -1.1489
 7709TIP3    H244543   5.755   4.327  16.255 -1.1767 -1.6976  0.0604
 7710TIP3   OH244544   1.551   3.112  14.639 -0.1377  0.5961  0.3872
 7710TIP3    H144545   1.496   3.038  14.665  0.0086  0.6370  0.8305
 7710TIP3    H244546   1.585   3.146  14.722  1.2087  0.0807  0.0641
 7711TIP3   OH244547   2.722   6.502   3.196 -0.4197 -0.0263 -0.0501
 7711TIP3    H144548   2.712   6.496   3.291  0.5113 -2.3829 -0.0305
 7711TIP3    H244549   2.817   6.506   3.182 -0.5220 -0.4109 -0.9021
 7712TIP3   OH244550   4.929   0.627  11.345  0.0325  0.3816  0.3581
 7712TIP3    H144551   4.991   0.556  11.363 -1.3462 -0.7938  0.6348
 7712TIP3    H244552   4.944   0.649  11.253  1.2658  0.5335  0.5807
 7713TIP3   OH244553   4.291   0.671  13.852  0.1925  0.0429 -0.4025
 7713TIP3    H144554   4.379   0.685  13.818  0.9442 -1.0735  0.9530
 7713TIP3    H244555   4.263   0.757  13.883  1.3410  0.1891  0.2940
 7714TIP3   OH244556   6.119   1.175   3.175  0.9053  0.3763  0.2313
 7714TIP3    H144557   6.095   1.257   3.218 -1.6542 -0.0870 -0.1686
 7714TIP3    H244558   6.212   1.162   3.197  0.4813  1.6242  3.1315
 7715TIP3   OH244559   4.521   5.379   6.023  0.4328 -0.3665 -0.0315
 7715TIP3    H144560   4.597   5.428   5.994  1.4912 -1.5193  0.7230
 7715TIP3    H244561   4.462   5.446   6.059  0.7600  0.6145 -1.2556
 7716TIP3   OH244562   4.726   6.035   1.328 -0.2009 -0.1476  0.2161
 7716TIP3    H144563   4.633   6.027   1.307 -0.3171 -1.4423  1.0879
 7716TIP3    H244564   4.729   6.033   1.424  0.6728  0.5811  0.2159
 7717TIP3   OH244565   4.543   5.372  12.804  0.0761 -0.2362 -0.1721
 7717TIP3    H144566   4.562   5.462  12.778  1.1673 -0.6071 -0.7064
 7717TIP3    H244567   4.454   5.375  12.839  0.0561  1.0199 -0.3078
 7718TIP3   OH244568   0.692   3.548  11.182 -0.7086  0.3790 -0.0288
 7718TIP3    H144569   0.687   3.629  11.131 -0.0742 -0.3903 -1.4027
 7718TIP3    H244570   0.710   3.576  11.271 -0.9030  1.7655 -0.4079
 7719TIP3   OH244571   6.724   5.095   0.995 -0.7235  0.0251  0.1265
 7719TIP3    H144572   6.689   5.025   1.051  0.4592  0.1234  1.0205
 7719TIP3    H244573   6.786   5.142   1.051 -1.4954  1.8161 -0.4495
 7720TIP3   OH244574   5.663   5.313  14.254 -0.9167 -0.0642 -0.1303
 7720TIP3    H144575   5.602   5.335  14.324  1.2741 -0.0966  1.9092
 7720TIP3    H244576   5.688   5.222  14.272  0.9082  0.4421  0.0786
 7721TIP3   OH244577   5.134   2.671  16.944 -0.2047  0.0936  0.5456
 7721TIP3    H144578   5.078   2.595  16.960 -1.8733  1.4450  1.5142
 7721TIP3    H244579   5.164   2.698  17.031 -1.9349  2.1293  0.6122
 7722TIP3   OH244580   6.145   3.210   2.096  0.2120 -0.0588  0.4205
 7722TIP3    H144581   6.162   3.118   2.076 -4.4005 -0.3847 -3.9202
 7722TIP3    H244582   6.064   3.209   2.147 -0.1154  1.5902 -0.0049
 7723TIP3   OH244583   1.045   6.023  10.974  0.3063  0.1281  0.4122
 7723TIP3    H144584   1.034   5.988  10.886 -1.0633 -2.5830  1.5130
 7723TIP3    H244585   0.995   5.962  11.030  1.3218  1.5705  3.0754
 7724TIP3   OH244586   6.258   0.290   4.425  0.0902 -0.2252 -0.1813
 7724TIP3    H144587   6.236   0.199   4.445  0.0734  0.1874  2.0029
 7724TIP3    H244588   6.174   0.336   4.424  0.0108 -0.3254 -2.1458
 7725TIP3   OH244589   0.012   1.884  15.359 -0.6590  0.2410  0.1848
 7725TIP3    H144590  -0.064   1.907  15.305  0.0659  1.8442 -0.2192
 7725TIP3    H244591  -0.021   1.884  15.449 -1.8465 -2.3040 -0.1607
 7726TIP3   OH244592   4.495   3.332  15.091  0.6532  0.2721 -0.3002
 7726TIP3    H144593   4.412   3.358  15.131  0.9146  0.1703  0.3084
 7726TIP3    H244594   4.476   3.330  14.997 -0.0730  0.1238 -0.1583
 7727TIP3   OH244595   1.343   4.315  11.024  0.1965 -0.3087  0.2914
 7727TIP3    H144596   1.349   4.376  11.098 -0.2125  0.8909 -0.6420
 7727TIP3    H244597   1.431   4.316  10.985  0.2220 -0.4097  0.3457
 7728TIP3   OH244598   4.634   3.018  12.885 -0.5618  0.4092 -0.0500
 7728TIP3    H144599   4.663   2.927  12.872  3.1290  1.3938  0.1844
 7728TIP3    H244600   4.610   3.021  12.978 -3.1735 -0.7990 -0.5804
 7729TIP3   OH244601   6.542   3.290   3.779  0.1171  0.4402  0.3702
 7729TIP3    H144602   6.581   3.203   3.789  0.9117  0.4574 -2.0635
 7729TIP3    H244603   6.455   3.281   3.820  0.9147 -0.8951  1.8853
 7730TIP3   OH244604   2.484   5.634   3.514 -0.1715 -0.8929  0.3020
 7730TIP3    H144605   2.445   5.721   3.505 -0.2437 -1.0186 -0.6923
 7730TIP3    H244606   2.546   5.643   3.586 -0.6276 -0.1792  0.6098
 7731TIP3   OH244607   2.683   0.133  10.808  0.0683  0.2621  0.3293
 7731TIP3    H144608   2.730   0.110  10.728 -2.4155 -1.1910 -0.8106
 7731TIP3    H244609   2.712   0.067  10.872  0.7944  0.3949  0.1462
 7732TIP3   OH244610   6.369   4.373   1.543 -0.4502 -0.1919 -0.0450
 7732TIP3    H144611   6.373   4.295   1.488 -0.3957  0.2180 -0.6237
 7732TIP3    H244612   6.460   4.402   1.552 -0.3643 -0.7088  0.9264
 7733TIP3   OH244613   2.109   2.729   2.021  0.1333 -0.8556  0.4246
 7733TIP3    H144614   2.142   2.751   2.108 -0.6061  0.2524  0.4530
 7733TIP3    H244615   2.025   2.687   2.037 -0.1080 -0.4485  0.2533
 7734TIP3   OH244616   6.333   3.256   1.109 -0.1312  0.2721 -0.1694
 7734TIP3    H144617   6.261   3.193   1.101  0.8886 -1.1400  1.1254
 7734TIP3    H244618   6.315   3.301   1.191 -0.8054  1.6564 -1.0470
 7735TIP3   OH244619   5.454   4.267   3.628 -0.0890  0.1195  0.0585
 7735TIP3    H144620   5.515   4.235   3.694 -0.0103  1.0254  0.4338
 7735TIP3    H244621   5.382   4.203   3.629  0.6886 -0.7770 -0.1631
 7736TIP3   OH244622   6.797   3.314  12.922 -0.4744 -0.1025 -0.1840
 7736TIP3    H144623   6.713   3.311  12.968  0.3387 -3.3781  1.3912
 7736TIP3    H244624   6.851   3.374  12.973 -1.1873  0.4184 -0.0233
 7737TIP3   OH244625   3.989   6.055  16.481 -0.5213  0.0882 -0.6258
 7737TIP3    H144626   4.013   6.100  16.400 -0.0736 -2.1139 -1.7729
 7737TIP3    H244627   4.003   5.962  16.463 -2.0148 -0.6177  1.4298
 7738TIP3   OH244628   0.900   5.093  14.350 -0.3221  0.1250 -0.3155
 7738TIP3    H144629   0.892   4.998  14.341  1.7207 -0.3442  1.7665
 7738TIP3    H244630   0.912   5.107  14.444  0.2832  2.3779 -0.6701
 7739TIP3   OH244631   2.595   1.787  11.992  0.8403  0.0741  0.3828
 7739TIP3    H144632   2.681   1.754  11.968  0.2701 -0.8958 -0.4001
 7739TIP3    H244633   2.573   1.849  11.923 -0.1455 -1.5754 -0.8554
 7740TIP3   OH244634   4.926   1.368   1.651  0.0061  0.2922  0.0495
 7740TIP3    H144635   4.981   1.292   1.670 -1.0558 -0.4223  0.3213
 7740TIP3    H244636   4.839   1.332   1.637 -0.6012  1.5004  0.5853
 7741TIP3   OH244637   4.501   4.373   1.935 -0.3763 -0.1593 -0.7390
 7741TIP3    H144638   4.530   4.320   2.010 -1.5140 -2.3206 -1.7235
 7741TIP3    H244639   4.578   4.378   1.878 -0.4091 -1.3351 -0.9150
 7742TIP3   OH244640   1.069   6.324  14.080  0.0607  0.1363 -0.2770
 7742TIP3    H144641   1.114   6.360  14.004 -1.1746  0.8286 -0.7131
 7742TIP3    H244642   1.023   6.247  14.046 -1.6453  1.2488 -0.6006
 7743TIP3   OH244643   5.984   0.339   3.089 -0.0324 -0.5447  0.2366
 7743TIP3    H144644   5.893   0.316   3.111 -1.0618  1.5519 -1.4104
 7743TIP3    H244645   5.992   0.431   3.115  1.2199 -0.3302 -0.8110
 7744TIP3   OH244646   3.810   5.679   2.080  0.1358  0.0991  0.4515
 7744TIP3    H144647   3.830   5.771   2.063 -0.2438  0.6939  2.9276
 7744TIP3    H244648   3.715   5.675   2.085  0.0225 -0.8379 -1.4552
 7745TIP3   OH244649   5.903   4.857   3.725 -0.6883  0.0003 -0.2273
 7745TIP3    H144650   5.997   4.853   3.742 -0.7139 -0.4281 -0.1620
 7745TIP3    H244651   5.894   4.920   3.653 -0.6675  2.4714  1.8069
 7746TIP3   OH244652   0.404   0.101   3.234 -0.7422 -0.2468  0.4668
 7746TIP3    H144653   0.374   0.188   3.260  0.2587  0.0824  0.5661
 7746TIP3    H244654   0.326   0.058   3.199 -1.7319 -0.0744  2.3552
 7747TIP3   OH244655   1.629   0.186  14.795  0.3986  0.4114 -0.1080
 7747TIP3    H144656   1.629   0.267  14.846 -0.8411  0.8143 -0.7194
 7747TIP3    H244657   1.540   0.178  14.760  0.7444 -0.7350 -0.8183
 7748TIP3   OH244658   4.673   1.135  16.404  0.2558 -0.1174  0.0968
 7748TIP3    H144659   4.593   1.085  16.388 -0.0830  0.4833 -0.1038
 7748TIP3    H244660   4.657   1.220  16.364  0.5955  0.3609  0.9514
 7749TIP3   OH244661   0.369   0.386   3.186 -0.3653 -0.6078 -1.0449
 7749TIP3    H144662   0.340   0.438   3.111 -2.5445 -0.1062  0.0727
 7749TIP3    H244663   0.399   0.451   3.250 -1.5277 -0.7813 -0.2902
 7750TIP3   OH244664   3.785   4.829   3.371 -0.0036  0.7606 -0.0667
 7750TIP3    H144665   3.790   4.883   3.292  2.3551  1.9786  0.8335
 7750TIP3    H244666   3.761   4.890   3.441 -0.8408 -0.0765  0.4047
 7751TIP3   OH244667   4.478   0.646   4.116 -0.8095  0.1423  0.1377
 7751TIP3    H144668   4.389   0.612   4.120 -0.0647 -2.0892 -0.9603
 7751TIP3    H244669   4.524   0.603   4.188 -0.5499  1.1580  0.5973
 7752TIP3   OH244670   5.259   6.129  17.054  0.7304  0.3957 -0.3997
 7752TIP3    H144671   5.306   6.167  17.128  1.0526 -1.9129  0.6827
 7752TIP3    H244672   5.166   6.135  17.079  0.4173  3.5729 -1.8603
 7753TIP3   OH244673   5.793   6.175   2.032  0.1397 -0.9145  0.1042
 7753TIP3    H144674   5.855   6.138   2.095  0.0431 -1.7161 -0.2633
 7753TIP3    H244675   5.800   6.119   1.955  0.0121 -0.1447 -0.4850
 7754TIP3   OH244676   6.117   1.206  16.990 -0.7158  0.2737 -0.0692
 7754TIP3    H144677   6.086   1.226  16.902  0.0634  1.4035 -0.1107
 7754TIP3    H244678   6.115   1.111  16.995 -3.7324  0.2321 -0.2006
 7755TIP3   OH244679   5.845   1.022   6.524  0.0456  0.5879 -0.2968
 7755TIP3    H144680   5.833   1.000   6.432 -1.0104 -1.0431  0.1790
 7755TIP3    H244681   5.918   1.084   6.525  1.8083 -1.3119 -1.9969
 7756TIP3   OH244682   3.690   1.874   3.012  0.7855  0.3463 -0.2271
 7756TIP3    H144683   3.785   1.883   3.004  0.9382 -0.6956  0.1729
 7756TIP3    H244684   3.660   1.849   2.925  1.1699 -1.3925  0.1020
 7757TIP3   OH244685   1.899   1.360   3.581 -0.2580 -0.1848 -0.3050
 7757TIP3    H144686   1.832   1.342   3.648 -0.0359  1.1475  0.3049
 7757TIP3    H244687   1.949   1.433   3.616  1.0971 -0.7122 -1.0770
 7758TIP3   OH244688   2.308   3.611  15.566 -0.5164 -0.2575  0.1440
 7758TIP3    H144689   2.335   3.675  15.500  1.4666 -0.3562  0.7720
 7758TIP3    H244690   2.238   3.654  15.614 -3.0427 -0.7261 -2.8342
 7759TIP3   OH244691   5.369   0.434   5.273 -0.8008  0.1491 -0.1943
 7759TIP3    H144692   5.319   0.409   5.351 -2.5621 -1.1390 -1.6513
 7759TIP3    H244693   5.444   0.483   5.308 -0.9039 -1.3178  2.3813
 7760TIP3   OH244694   0.247   3.166  12.303  0.1058 -0.2339  0.5242
 7760TIP3    H144695   0.233   3.125  12.389  0.6262 -0.5360  0.4677
 7760TIP3    H244696   0.261   3.259  12.322 -0.0986 -0.2463  0.7373
 7761TIP3   OH244697   1.832   4.119  12.360  0.6857 -0.6357  0.4748
 7761TIP3    H144698   1.824   4.055  12.430  0.0143 -1.6958 -0.5312
 7761TIP3    H244699   1.916   4.163  12.376 -0.1520  0.2631  2.7957
 7762TIP3   OH244700   1.089   1.166  17.090  0.0564 -0.0991 -0.3663
 7762TIP3    H144701   1.164   1.167  17.030  0.7557 -0.1035  0.4946
 7762TIP3    H244702   1.048   1.081  17.074  0.9780 -0.6393  0.0533
 7763TIP3   OH244703   1.946   4.709  11.761 -0.4410 -0.2842  0.1827
 7763TIP3    H144704   2.038   4.702  11.736 -0.5131 -0.9172  0.0852
 7763TIP3    H244705   1.919   4.794  11.727  0.3023  0.2448  0.8605
 7764TIP3   OH244706   0.602   0.861  16.341  0.6345  0.0092  0.0889
 7764TIP3    H144707   0.634   0.844  16.430 -1.1078  0.4624  0.8459
 7764TIP3    H244708   0.553   0.782  16.318  0.8258  0.0186 -0.3587
 7765TIP3   OH244709   2.367   1.016   0.681  0.0788 -0.3017  0.9089
 7765TIP3    H144710   2.350   1.066   0.761 -2.0202 -0.0498  0.3676
 7765TIP3    H244711   2.398   1.082   0.618 -0.6950 -0.0373  0.7972
 7766TIP3   OH244712   2.048   1.993  12.399 -0.0941  0.2634  0.5223
 7766TIP3    H144713   2.085   1.949  12.476  0.8615 -0.1762 -0.1698
 7766TIP3    H244714   2.120   2.046  12.364 -0.6882  0.9128  0.2500
 7767TIP3   OH244715   2.759   2.583   0.605 -0.1203 -0.3075  0.4466
 7767TIP3    H144716   2.712   2.572   0.688  0.3720 -0.6343  0.6897
 7767TIP3    H244717   2.835   2.525   0.613 -0.6445 -1.1725 -0.6758
 7768TIP3   OH244718   2.143   6.409  10.262  0.4453  0.1615  0.3157
 7768TIP3    H144719   2.084   6.367  10.325  0.7571  0.4438  0.7937
 7768TIP3    H244720   2.104   6.495  10.246  1.2639  0.7498  1.4071
 7769TIP3   OH244721   1.179   0.015  12.338  0.9432  0.8165  0.4050
 7769TIP3    H144722   1.253   0.067  12.306  0.9107  0.5428 -0.1243
 7769TIP3    H244723   1.122   0.004  12.261  0.4940  0.7846  0.7398
 7770TIP3   OH244724   2.710   5.258   5.742  0.4249  0.3605 -0.3936
 7770TIP3    H144725   2.640   5.318   5.715  1.5477  0.8216 -2.4703
 7770TIP3    H244726   2.746   5.297   5.822 -1.3968  0.3097  0.5082
 7771TIP3   OH244727   6.345   5.370  15.003 -0.5282 -0.0674 -0.7355
 7771TIP3    H144728   6.259   5.338  14.977  0.1391 -0.6342 -2.3788
 7771TIP3    H244729   6.381   5.411  14.924  0.3404  1.0277  0.1805
 7772TIP3   OH244730   3.198   3.173  11.249  0.1589 -0.2782  0.2448
 7772TIP3    H144731   3.159   3.188  11.335  1.1740 -4.6969  1.7656
 7772TIP3    H244732   3.280   3.128  11.268  1.4648  0.4420 -3.0789
 7773TIP3   OH244733   0.970   4.699  11.816 -1.0154 -0.2505 -1.2004
 7773TIP3    H144734   1.059   4.668  11.800 -1.5905 -4.1411  1.7078
 7773TIP3    H244735   0.979   4.763  11.886 -0.5079 -1.3523 -0.2258
 7774TIP3   OH244736   1.403   3.692  15.120 -0.3131 -0.2114  0.5204
 7774TIP3    H144737   1.415   3.597  15.126  2.4927  0.1028  1.3314
 7774TIP3    H244738   1.449   3.727  15.196 -3.4385  1.7565  1.7018
 7775TIP3   OH244739   4.320   1.313   6.041 -0.2583 -0.3445  0.9538
 7775TIP3    H144740   4.225   1.306   6.025 -0.3001  2.5194 -0.6070
 7775TIP3    H244741   4.327   1.370   6.118  0.1027  2.2451 -0.8545
 7776TIP3   OH244742   4.047   6.048   6.697  0.3442 -0.5340 -0.3716
 7776TIP3    H144743   4.116   5.983   6.707  0.0296 -0.7755  0.3101
 7776TIP3    H244744   4.093   6.132   6.695  0.6687 -0.7056 -0.1177
 7777TIP3   OH244745   6.616   5.594  14.614  0.0939 -0.2864  0.1896
 7777TIP3    H144746   6.567   5.575  14.693 -0.1560 -0.5416 -0.0234
 7777TIP3    H244747   6.661   5.512  14.593  2.1819  0.4524  1.4537
 7778TIP3   OH244748   1.260   4.259   0.606  0.4615  0.0093 -0.1382
 7778TIP3    H144749   1.223   4.202   0.673  2.3054  1.0632  1.9198
 7778TIP3    H244750   1.184   4.305   0.569 -0.7895 -1.9921 -0.1752
 7779TIP3   OH244751   5.474   5.492   4.712 -0.0990 -0.1608  0.3703
 7779TIP3    H144752   5.387   5.487   4.672  0.0444 -1.5494  0.1727
 7779TIP3    H244753   5.529   5.435   4.658  1.1646  1.3634 -0.0152
 7780TIP3   OH244754   0.126   3.748  13.161 -0.2137  0.6810  0.1726
 7780TIP3    H144755   0.120   3.722  13.253 -0.6385 -1.7864 -0.4779
 7780TIP3    H244756   0.088   3.836  13.159 -1.5890  0.2140  2.1336
 7781TIP3   OH244757   1.096   4.555   4.501  0.1945  0.4135 -0.2161
 7781TIP3    H144758   1.071   4.599   4.420  0.3374 -0.4338 -0.7301
 7781TIP3    H244759   1.112   4.464   4.475 -0.5982 -0.0725  0.9110
 7782TIP3   OH244760   6.091   3.704  14.117  0.0039  0.1053  0.0495
 7782TIP3    H144761   6.156   3.712  14.186 -0.2188  0.9148  0.1791
 7782TIP3    H244762   6.102   3.615  14.084 -2.2404 -1.6787  3.4968
 7783TIP3   OH244763   6.319   2.745  16.610 -0.4999 -0.0614 -0.4972
 7783TIP3    H144764   6.383   2.682  16.642 -2.1966 -1.4799  0.2824
 7783TIP3    H244765   6.361   2.830  16.623  0.8080 -0.8654  0.9794
 7784TIP3   OH244766   4.143   2.296  15.459  0.6306 -0.3346  0.1459
 7784TIP3    H144767   4.138   2.234  15.532 -0.8454 -0.4760 -0.0460
 7784TIP3    H244768   4.235   2.324  15.458  1.6000 -3.1421 -0.3147
 7785TIP3   OH244769   0.789   6.019  11.657 -0.2085  0.2453 -0.6084
 7785TIP3    H144770   0.700   6.046  11.679  0.8092  2.5516  1.0719
 7785TIP3    H244771   0.801   5.937  11.706 -1.0677  0.4440 -0.0441
 7786TIP3   OH244772   4.404   5.705  11.271  0.6775  0.4591  0.6040
 7786TIP3    H144773   4.467   5.766  11.232  0.7915  1.0177  1.6422
 7786TIP3    H244774   4.320   5.750  11.265  0.2923 -0.3825 -0.9973
 7787TIP3   OH244775   2.922   3.218   2.042 -0.4826  0.0341  0.1021
 7787TIP3    H144776   2.991   3.284   2.029 -2.2010  1.7849 -0.7041
 7787TIP3    H244777   2.898   3.227   2.134  0.3617 -0.6268  0.4033
 7788TIP3   OH244778   3.303   2.378  11.704  0.0466 -0.6894 -0.3364
 7788TIP3    H144779   3.388   2.408  11.737  0.0219 -3.3549  2.5657
 7788TIP3    H244780   3.325   2.310  11.639  0.1628 -1.2525  0.2838
 7789TIP3   OH244781   0.214   4.179  13.977 -0.2311  0.2022 -0.8884
 7789TIP3    H144782   0.208   4.267  13.942  1.4965  1.4464  1.6250
 7789TIP3    H244783   0.298   4.146  13.945 -0.1897  0.0519 -0.6256
 7790TIP3   OH244784   0.724   0.413   5.520  0.4467  0.2398 -0.3215
 7790TIP3    H144785   0.697   0.321   5.530  1.5575 -0.1729 -0.9310
 7790TIP3    H244786   0.820   0.409   5.517  0.4724  1.2671 -1.7543
 7791TIP3   OH244787   1.016   5.582  14.124  0.0026  0.5508 -0.2274
 7791TIP3    H144788   1.083   5.527  14.084  1.0071  1.9128 -0.4982
 7791TIP3    H244789   1.029   5.572  14.218 -0.0022  0.1355 -0.2680
 7792TIP3   OH244790   5.540   1.071  15.789 -0.5828 -0.0045  0.1424
 7792TIP3    H144791   5.499   1.007  15.731 -0.7806  0.6862 -0.4945
 7792TIP3    H244792   5.558   1.147  15.733  1.3759 -0.1952  0.4607
 7793TIP3   OH244793   0.617   3.711   5.124 -0.5444 -0.2316 -0.2559
 7793TIP3    H144794   0.570   3.699   5.042 -0.1800  2.7173 -0.9902
 7793TIP3    H244795   0.552   3.747   5.185 -0.4089 -0.8406  0.2647
 7794TIP3   OH244796   4.232   4.733  13.895  0.4215 -0.3263  0.2622
 7794TIP3    H144797   4.244   4.687  13.812  0.1091 -0.4635  0.2912
 7794TIP3    H244798   4.301   4.699  13.951 -0.1422 -1.1928  0.4642
 7795TIP3   OH244799   0.651   0.322  11.198 -0.2240  0.4198 -0.4167
 7795TIP3    H144800   0.610   0.406  11.217 -1.7855 -0.7016  1.5803
 7795TIP3    H244801   0.687   0.293  11.282 -0.9997 -1.5222 -0.6983
 7796TIP3   OH244802   5.107   6.036  13.566 -0.4560 -0.7743  0.2381
 7796TIP3    H144803   5.049   5.972  13.606 -0.5473 -0.1011  1.2153
 7796TIP3    H244804   5.119   6.103  13.633 -1.1092  0.7116 -1.0566
 7797TIP3   OH244805   6.066   0.293  12.031  0.6409  0.1480  0.7891
 7797TIP3    H144806   6.135   0.358  12.015 -0.4233  1.1191 -0.0125
 7797TIP3    H244807   6.015   0.329  12.104  0.2577  0.0364  0.5776
 7798TIP3   OH244808   0.044   6.520   3.753  0.1611 -0.8383  0.7792
 7798TIP3    H144809   0.034   6.438   3.801  1.6179 -0.1357  2.4018
 7798TIP3    H244810   0.074   6.583   3.819 -1.2348  1.1104 -0.3278
 7799TIP3   OH244811   2.878   5.550  12.354 -0.1153  0.3924  0.4347
 7799TIP3    H144812   2.858   5.535  12.262  0.7279  1.1456  0.1213
 7799TIP3    H244813   2.945   5.484  12.375 -0.5119  0.0341  0.5947
 7800TIP3   OH244814   1.966   2.963  15.368  0.3781 -0.6721  0.3650
 7800TIP3    H144815   1.974   2.870  15.390 -0.4862 -1.1588 -1.2198
 7800TIP3    H244816   2.009   2.972  15.283  0.4175  0.3730  0.4824
 7801TIP3   OH244817   2.977   2.437  13.690 -0.2690  0.1224 -0.4401
 7801TIP3    H144818   3.065   2.457  13.660  2.3772 -3.9550  3.2550
 7801TIP3    H244819   2.942   2.377  13.624  2.4351 -2.9974  0.6797
 7802TIP3   OH244820   1.822   3.879   1.888 -0.0160 -0.2127  0.7023
 7802TIP3    H144821   1.855   3.824   1.816 -0.1987 -0.3308  0.7060
 7802TIP3    H244822   1.823   3.968   1.853  0.1053 -0.2431  0.6297
 7803TIP3   OH244823   5.524   5.173   1.070 -0.2797 -0.2513 -0.6456
 7803TIP3    H144824   5.517   5.098   1.128 -1.2486  0.4672  0.1869
 7803TIP3    H244825   5.591   5.228   1.110  0.9554 -0.9625 -1.6345
 7804TIP3   OH244826   4.441   3.174  17.073  0.2714 -0.5160  0.5556
 7804TIP3    H144827   4.433   3.244  17.009  3.6181  0.5588  1.0735
 7804TIP3    H244828   4.467   3.097  17.022  0.3105 -0.3608  0.3405
 7805TIP3   OH244829   0.907   6.340  12.516  0.1070 -0.0795 -0.6726
 7805TIP3    H144830   0.941   6.404  12.580  0.3482 -0.3500 -0.5264
 7805TIP3    H244831   0.963   6.263  12.528 -1.3734 -1.0316  0.5005
 7806TIP3   OH244832   4.000   0.843   0.092  0.3294  0.3119 -0.0557
 7806TIP3    H144833   3.954   0.788   0.156 -0.5044 -0.3366 -1.1743
 7806TIP3    H244834   3.974   0.932   0.114 -0.2957  0.0597  0.2615
 7807TIP3   OH244835   4.329   0.133  10.989  0.4003 -0.2918  0.0073
 7807TIP3    H144836   4.275   0.197  10.943 -2.2603 -1.0736  1.7809
 7807TIP3    H244837   4.327   0.055  10.933 -1.7520 -0.8244  0.7118
 7808TIP3   OH244838   1.002   3.646  13.928  0.2351  0.5051  0.1534
 7808TIP3    H144839   1.018   3.738  13.950 -0.0718  0.4954  0.4277
 7808TIP3    H244840   0.907   3.640  13.918  0.3539  0.5237 -1.2589
 7809TIP3   OH244841   1.566   2.233  11.771 -0.0750  0.1700  0.1843
 7809TIP3    H144842   1.531   2.214  11.684 -0.7519  0.6102  0.3597
 7809TIP3    H244843   1.585   2.146  11.807 -1.4282 -0.1210  0.2658
 7810TIP3   OH244844   2.844   0.079   0.117 -0.9038  0.4717  0.3205
 7810TIP3    H144845   2.938   0.087   0.101 -0.8889 -0.8690 -0.4324
 7810TIP3    H244846   2.836  -0.003   0.166 -1.7643  0.0598 -0.4920
 7811TIP3   OH244847   3.908   0.003   1.293 -0.8754 -0.0705 -0.2805
 7811TIP3    H144848   3.968   0.073   1.268 -0.2984  0.1785  1.6866
 7811TIP3    H244849   3.849  -0.006   1.217 -0.6057  2.1317 -0.8193
 7812TIP3   OH244850   1.173   6.033   3.745  0.5440  0.4254  0.4198
 7812TIP3    H144851   1.234   6.096   3.706  0.5474  0.1719  0.0158
 7812TIP3    H244852   1.092   6.044   3.695  0.3915  0.4585  0.6735
 7813TIP3   OH244853   2.170   1.717   6.114  0.3387 -0.3956 -0.1403
 7813TIP3    H144854   2.254   1.733   6.070  0.7364 -1.5016  0.1843
 7813TIP3    H244855   2.112   1.689   6.044  0.5821 -0.7898 -0.1909
 7814TIP3   OH244856   2.833   3.264   4.008 -0.2421  0.5078 -1.0988
 7814TIP3    H144857   2.763   3.264   3.943 -0.1635  1.0539 -1.1865
 7814TIP3    H244858   2.863   3.173   4.010  1.6814  0.9353 -3.9541
 7815TIP3   OH244859   4.917   6.450  16.850  0.0149 -0.1710 -0.2226
 7815TIP3    H144860   4.868   6.513  16.903  2.3918  0.9882  0.7701
 7815TIP3    H244861   4.869   6.447  16.767 -2.1967  0.1626  0.9503
 7816TIP3   OH244862   2.112   5.123   2.323 -0.4233  0.3469 -0.3131
 7816TIP3    H144863   2.086   5.134   2.414  0.1493 -0.8521  0.0186
 7816TIP3    H244864   2.053   5.056   2.289  1.9446 -2.3072  0.4153
 7817TIP3   OH244865   2.693   3.634   2.219 -0.3983 -0.1294 -0.5426
 7817TIP3    H144866   2.697   3.565   2.285 -0.1190 -0.0032 -0.4198
 7817TIP3    H244867   2.776   3.626   2.171 -0.6781 -0.3288 -0.9906
 7818TIP3   OH244868   0.357   5.415   4.152 -0.1825 -0.1773  0.0737
 7818TIP3    H144869   0.404   5.378   4.077  0.0134 -0.8087  0.5033
 7818TIP3    H244870   0.384   5.507   4.153  0.0821 -0.2445 -0.4265
 7819TIP3   OH244871   3.100   4.552   0.707 -0.3851  0.3498 -0.5829
 7819TIP3    H144872   3.012   4.552   0.670 -1.0580  0.6811  0.9381
 7819TIP3    H244873   3.091   4.598   0.790  0.6965 -1.7501  0.7953
 7820TIP3   OH244874   6.319   2.785   0.460  0.3577  0.4179  0.3555
 7820TIP3    H144875   6.332   2.848   0.389  1.7402  1.1073  1.1659
 7820TIP3    H244876   6.395   2.798   0.517 -1.7937  1.5991  3.2185
 7821TIP3   OH244877   6.613   2.268   0.540  0.5919 -0.2998 -0.2477
 7821TIP3    H144878   6.553   2.198   0.513 -0.2236  0.7996 -1.3786
 7821TIP3    H244879   6.613   2.265   0.635 -0.6318 -0.8438 -0.2530
 7822TIP3   OH244880   0.900   2.247  14.635  0.7911  0.0699 -0.0315
 7822TIP3    H144881   0.960   2.260  14.562  1.1525  0.9422  0.3999
 7822TIP3    H244882   0.872   2.156  14.628 -0.4340  0.5328 -2.1918
 7823TIP3   OH244883   6.065   3.402  11.006  0.1292 -0.0920  0.9767
 7823TIP3    H144884   6.047   3.352  10.926 -1.1097 -0.2847  1.3595
 7823TIP3    H244885   6.148   3.366  11.038  0.8209  0.2365 -0.4047
 7824TIP3   OH244886   5.327   6.465  15.697  0.5253  0.2448  0.5702
 7824TIP3    H144887   5.418   6.440  15.679 -0.0693 -1.6917  0.0690
 7824TIP3    H244888   5.326   6.560  15.687  2.4135  0.2635  0.2420
 7825TIP3   OH244889   5.614   3.228   0.615 -0.0092 -0.3294 -0.0144
 7825TIP3    H144890   5.631   3.294   0.549 -0.6223 -1.1288 -0.9957
 7825TIP3    H244891   5.521   3.208   0.606  0.1688 -1.3479  0.2482
 7826TIP3   OH244892   0.881   6.370   5.275  0.2998  0.6805  0.4014
 7826TIP3    H144893   0.812   6.391   5.339  1.2038  0.4405  1.4958
 7826TIP3    H244894   0.879   6.443   5.214 -0.4010  1.0753  0.8771
 7827TIP3   OH244895   4.504   6.066  14.840  0.3745 -0.0889  0.3867
 7827TIP3    H144896   4.475   6.097  14.755  1.7566 -0.9149 -0.4370
 7827TIP3    H244897   4.468   5.977  14.847  0.5289 -0.1443  0.5074
 7828TIP3   OH244898   0.371   4.285   3.434 -0.2202 -0.3594  0.0376
 7828TIP3    H144899   0.319   4.239   3.369 -0.0107  2.5791 -2.4328
 7828TIP3    H244900   0.461   4.257   3.417 -0.0231  1.1582 -1.8391
 7829TIP3   OH244901   3.471   2.533   6.449  0.2417  0.5383  0.0977
 7829TIP3    H144902   3.490   2.587   6.526  1.5862  2.0080 -1.1985
 7829TIP3    H244903   3.538   2.557   6.386 -0.6724 -0.8200 -1.4592
 7830TIP3   OH244904   1.064   5.862   4.706 -0.1504  0.1553  0.1638
 7830TIP3    H144905   1.071   5.952   4.739 -2.2767  0.0159  1.1850
 7830TIP3    H244906   1.070   5.871   4.611 -1.1459  1.5175  0.1876
 7831TIP3   OH244907   4.286   5.374   0.999 -0.1676 -0.1613 -0.1006
 7831TIP3    H144908   4.222   5.445   1.005  0.1689  0.4685 -2.5520
 7831TIP3    H244909   4.233   5.295   0.984 -0.4768 -0.1866  1.0720
 7832TIP3   OH244910   4.661   4.472   1.451  0.5641  0.5155 -0.0086
 7832TIP3    H144911   4.621   4.556   1.475 -1.0755 -0.3478  0.3497
 7832TIP3    H244912   4.588   4.411   1.444  1.6380 -0.6945 -1.1776
 7833TIP3   OH244913   3.595   1.385   4.060  0.1149 -0.7739 -0.4480
 7833TIP3    H144914   3.507   1.368   4.027 -0.6134 -1.9798  1.9518
 7833TIP3    H244915   3.652   1.336   4.000 -1.0256 -1.7224 -0.7993
 7834TIP3   OH244916   4.119   5.124  16.833  0.4985  0.3067 -0.5238
 7834TIP3    H144917   4.101   5.032  16.814  1.3653  0.1109 -0.4324
 7834TIP3    H244918   4.210   5.125  16.863  0.5861  1.2292 -0.7936
 7835TIP3   OH244919   0.789   6.774   2.412  0.0935 -1.0103  0.0727
 7835TIP3    H144920   0.759   6.863   2.393  0.8149 -0.4577  1.3674
 7835TIP3    H244921   0.760   6.722   2.337  0.8616  0.5728 -1.3806
 7836TIP3   OH244922   4.566   3.702  16.447  0.1294 -0.5470 -0.0680
 7836TIP3    H144923   4.491   3.754  16.475  0.2457  0.4694 -1.5270
 7836TIP3    H244924   4.633   3.766  16.424  1.0270 -1.4083  0.0690
 7837TIP3   OH244925   0.248   1.085   3.655 -0.0614 -0.1460  0.0530
 7837TIP3    H144926   0.173   1.144   3.650  0.8013  0.9094 -3.6173
 7837TIP3    H244927   0.310   1.130   3.713 -0.5345  1.2327 -0.4729
 7838TIP3   OH244928   4.477   5.240   3.155 -0.1423 -0.0143  0.2804
 7838TIP3    H144929   4.452   5.230   3.247 -0.0128  0.3687  0.3601
 7838TIP3    H244930   4.416   5.305   3.120 -1.3654 -1.4650 -0.3859
 7839TIP3   OH244931   4.480   5.069  15.951 -0.8114 -0.7109 -0.9362
 7839TIP3    H144932   4.386   5.062  15.936 -0.7406 -0.6945 -1.4318
 7839TIP3    H244933   4.491   5.063  16.046 -1.1764 -2.2330 -0.9715
 7840TIP3   OH244934   3.430   1.085  12.082  0.7375 -0.1830 -0.4611
 7840TIP3    H144935   3.424   1.176  12.111  0.3413 -0.3109 -0.1363
 7840TIP3    H244936   3.376   1.036  12.144 -0.1428 -0.4586 -1.4190
 7841TIP3   OH244937   3.478   2.778   1.329 -0.1757 -1.1738  0.0194
 7841TIP3    H144938   3.391   2.783   1.369 -0.2007 -0.9840 -0.0578
 7841TIP3    H244939   3.461   2.767   1.235 -0.1270 -0.1280 -0.1297
 7842TIP3   OH244940   5.197   1.626   4.658 -0.1545 -0.3178  0.5124
 7842TIP3    H144941   5.172   1.608   4.568 -1.3881 -0.9785  0.9655
 7842TIP3    H244942   5.199   1.539   4.700 -1.1792  0.1090  1.5028
 7843TIP3   OH244943   0.092   6.250  12.345  0.4989 -0.5086 -0.2363
 7843TIP3    H144944   0.067   6.206  12.263 -0.4067  1.1176 -0.8822
 7843TIP3    H244945   0.116   6.339  12.318  1.3196 -0.2830  1.1398
 7844TIP3   OH244946   5.164   4.169   3.404 -0.3784 -0.6843  0.1292
 7844TIP3    H144947   5.110   4.198   3.477  0.3691  1.1514 -0.0037
 7844TIP3    H244948   5.250   4.154   3.443 -0.2400 -0.7145 -0.1832
 7845TIP3   OH244949   0.837   6.107   5.173 -0.4769  0.2016 -0.4469
 7845TIP3    H144950   0.745   6.086   5.157 -0.2666  1.2861 -3.8162
 7845TIP3    H244951   0.837   6.201   5.194 -0.1840  0.0149  0.4407
 7846TIP3   OH244952   3.400   5.582  11.080 -0.3986 -0.5126 -0.2726
 7846TIP3    H144953   3.454   5.556  11.005 -0.3837 -0.0125 -0.4438
 7846TIP3    H244954   3.441   5.541  11.155 -0.2504 -0.7965 -0.5078
 7847TIP3   OH244955   2.369   1.695   4.518  0.7469 -0.0205  0.0769
 7847TIP3    H144956   2.397   1.615   4.563  1.1139  0.5631  0.9146
 7847TIP3    H244957   2.278   1.678   4.493  0.5690 -0.4203  0.9510
 7848TIP3   OH244958   3.115   6.528   5.507  0.1099  0.5842  0.2822
 7848TIP3    H144959   3.140   6.538   5.599  1.2323  1.3830 -0.0951
 7848TIP3    H244960   3.139   6.611   5.466 -0.6395  0.3436 -0.6865
 7849TIP3   OH244961   1.147   6.089   0.753 -0.2960 -0.1407  0.8884
 7849TIP3    H144962   1.209   6.134   0.695 -1.7546  1.2445  0.2952
 7849TIP3    H244963   1.110   6.159   0.807 -2.4530 -0.6187  0.1357
 7850TIP3   OH244964   2.602   1.726   0.710 -0.7237 -0.4262  0.3992
 7850TIP3    H144965   2.614   1.643   0.756 -0.8543 -1.3641 -1.1740
 7850TIP3    H244966   2.515   1.718   0.669 -0.6339  0.3880  0.0272
 7851TIP3   OH244967   4.174   4.222   1.913  0.3772 -0.3340 -0.0514
 7851TIP3    H144968   4.093   4.218   1.862 -0.5777 -1.6963  1.4692
 7851TIP3    H244969   4.198   4.314   1.912 -2.3522  0.4926  1.1249
 7852TIP3   OH244970   2.848   3.458  16.562 -0.2502 -0.7457  0.2642
 7852TIP3    H144971   2.851   3.458  16.467  1.7411  0.9364  0.2677
 7852TIP3    H244972   2.925   3.408  16.589 -0.1229 -0.1805  0.9732
 7853TIP3   OH244973   6.307   0.959   3.083  0.3714  0.0300  0.2709
 7853TIP3    H144974   6.339   1.015   3.154 -2.8441  2.2990  0.1471
 7853TIP3    H244975   6.252   1.017   3.030  0.7232 -2.1604 -2.7664
 7854TIP3   OH244976   2.090   3.357  16.449  0.0208  0.2039  0.5061
 7854TIP3    H144977   2.182   3.333  16.433  0.0901  0.4167  0.5785
 7854TIP3    H244978   2.069   3.418  16.378 -0.1458 -0.0452  0.3383
 7855TIP3   OH244979   0.502   5.169   4.577  0.1063  0.8554 -0.3980
 7855TIP3    H144980   0.416   5.150   4.614  1.6962  1.2512  4.0750
 7855TIP3    H244981   0.491   5.252   4.531 -1.9542  0.6808 -0.2985
 7856TIP3   OH244982   1.990   1.902  11.959  0.1611  0.2331 -0.0695
 7856TIP3    H144983   1.979   1.982  11.907 -1.8501 -0.0067 -0.1186
 7856TIP3    H244984   2.013   1.834  11.895  2.1710  0.7933  0.0123
 7857TIP3   OH244985   2.987   3.033  14.481  0.5627  0.3926  0.0308
 7857TIP3    H144986   2.922   3.101  14.497  1.0539  0.7175  0.6778
 7857TIP3    H244987   3.066   3.080  14.456  1.2612  0.1588  1.6564
 7858TIP3   OH244988   0.078   5.244   0.612  0.0468 -0.2729  0.0870
 7858TIP3    H144989   0.105   5.280   0.696 -0.7441 -0.3923  0.4003
 7858TIP3    H244990   0.039   5.319   0.566  3.2394  0.6101 -1.4743
 7859TIP3   OH244991   2.913   4.841  13.854 -0.2898  0.1266 -0.4805
 7859TIP3    H144992   2.855   4.844  13.777 -1.0617  1.3233  0.1290
 7859TIP3    H244993   2.942   4.931  13.867 -2.8198  0.6868  2.5567
 7860TIP3   OH244994   3.168   1.307   3.075  0.1916  0.1656 -0.3912
 7860TIP3    H144995   3.230   1.345   3.137  1.1760 -0.0732 -1.1916
 7860TIP3    H244996   3.094   1.279   3.128  0.7957  0.4140  0.6055
 7861TIP3   OH244997   1.968   4.088   1.568 -0.4046  0.1247 -0.5812
 7861TIP3    H144998   1.874   4.106   1.566 -0.2731  0.9573  0.2614
 7861TIP3    H244999   1.982   4.030   1.493 -1.8321 -1.2322  0.1387
 7862TIP3   OH245000   3.961   0.789   1.921 -0.7996 -0.2548  0.0292
 7862TIP3    H145001   3.988   0.697   1.922 -4.4454 -1.4575  0.9506
 7862TIP3    H245002   3.922   0.801   1.834 -1.9250 -0.1273  0.5419
 7863TIP3   OH245003   3.191   5.666   3.526  0.5402  0.4672 -0.7282
 7863TIP3    H145004   3.258   5.731   3.547 -0.0409  0.3654  1.6858
 7863TIP3    H245005   3.132   5.666   3.601 -0.5986 -1.4658 -1.5359
 7864TIP3   OH245006   6.007   1.366  15.737 -0.5775  0.2703 -0.2303
 7864TIP3    H145007   6.041   1.437  15.793  2.6342 -2.1598  1.1963
 7864TIP3    H245008   6.066   1.364  15.662 -0.4442 -1.0253 -0.1140
 7865TIP3   OH245009   1.349   6.003   0.102  0.6533 -0.2514  0.3661
 7865TIP3    H145010   1.346   6.092   0.066 -2.1524 -0.2271  0.4409
 7865TIP3    H245011   1.411   6.009   0.175  0.5682  1.6318  0.3411
 7866TIP3   OH245012   4.542   1.701  12.089 -0.5528 -0.5383  0.0849
 7866TIP3    H145013   4.488   1.776  12.064 -0.8241 -0.5369  0.6777
 7866TIP3    H245014   4.616   1.704  12.027 -1.0510 -0.3488 -0.5150
 7867TIP3   OH245015   2.052   0.040  16.361  0.2443 -0.5070  0.2705
 7867TIP3    H145016   1.975   0.013  16.411  0.0560  0.5508  0.5806
 7867TIP3    H245017   2.020   0.111  16.305  0.5189 -1.4526 -1.1415
 7868TIP3   OH245018   2.155   2.239   0.403 -0.3100  0.1425  0.1729
 7868TIP3    H145019   2.247   2.249   0.428 -0.9468  2.0265  2.0698
 7868TIP3    H245020   2.116   2.324   0.423 -2.0118  0.2295 -2.9289
 7869TIP3   OH245021   1.037   4.618   0.527 -0.1920 -0.2252  0.1482
 7869TIP3    H145022   1.076   4.565   0.457 -3.4910 -1.7847 -0.7381
 7869TIP3    H245023   0.995   4.554   0.584 -0.9124  1.2671  1.3413
 7870TIP3   OH245024   0.959   4.503   2.597  0.2241 -0.8939  0.2455
 7870TIP3    H145025   1.016   4.522   2.671 -0.1616  0.1941  0.2820
 7870TIP3    H245026   0.874   4.482   2.637 -0.5869  1.7619  0.1259
 7871TIP3   OH245027   0.683   5.799  17.094 -0.1449  0.2542 -0.6229
 7871TIP3    H145028   0.774   5.782  17.067 -0.1024  2.4807 -2.1607
 7871TIP3    H245029   0.635   5.808  17.012 -1.7933 -0.8787  0.1746
 7872TIP3   OH245030   0.301   5.089  13.488 -0.3265 -0.4307  0.5001
 7872TIP3    H145031   0.213   5.065  13.516 -0.4037 -0.3441  0.3298
 7872TIP3    H245032   0.353   5.010  13.502 -0.6288 -0.7811 -0.2768
 7873TIP3   OH245033   1.383   2.427  14.589 -0.3009 -0.0087  0.1053
 7873TIP3    H145034   1.411   2.338  14.609 -1.2377 -0.1804  0.7011
 7873TIP3    H245035   1.454   2.463  14.537  0.3992 -0.8767  0.4345
 7874TIP3   OH245036   6.042   3.358   0.147 -0.5674 -0.1736  0.2311
 7874TIP3    H145037   6.067   3.273   0.113 -0.8082  0.2739 -1.1072
 7874TIP3    H245038   5.947   3.361   0.137 -0.6133  0.0764  0.6978
 7875TIP3   OH245039   3.886   0.731  14.051 -0.3886  0.0738 -0.1966
 7875TIP3    H145040   3.854   0.799  13.991  1.4940  0.7580 -0.4953
 7875TIP3    H245041   3.952   0.776  14.104  2.1612 -1.8213 -1.5433
 7876TIP3   OH245042   6.629   2.281  12.637  0.4622  0.2665 -0.1650
 7876TIP3    H145043   6.664   2.201  12.676 -0.9334  0.1950  0.9873
 7876TIP3    H245044   6.653   2.351  12.699 -2.0767  0.1008  1.1331
 7877TIP3   OH245045   2.960   0.319   4.650  0.0558  0.6570  0.3770
 7877TIP3    H145046   2.882   0.359   4.611 -0.2680 -0.3649 -0.0602
 7877TIP3    H245047   2.968   0.235   4.606  1.2175  0.6053  0.6671
 7878TIP3   OH245048   3.516   6.353  15.372  0.2196 -0.1757  0.4410
 7878TIP3    H145049   3.503   6.350  15.467 -0.4956  0.4081  0.3663
 7878TIP3    H245050   3.432   6.379  15.336  0.8244  0.9127 -0.2548
 7879TIP3   OH245051   4.036   5.720   1.023  0.4776  0.4080  0.3979
 7879TIP3    H145052   4.026   5.710   0.929  0.6786 -0.0744  0.4276
 7879TIP3    H245053   3.986   5.799   1.044  0.4167  0.5048 -0.1068
 7880TIP3   OH245054   1.068   4.627   5.930  0.5836  0.5257  0.5742
 7880TIP3    H145055   1.089   4.536   5.909 -0.7710  0.1795  0.6381
 7880TIP3    H245056   1.068   4.630   6.025  0.6554  0.6101  0.5723
 7881TIP3   OH245057   2.520   4.115  13.207  0.4080 -0.2841 -0.0121
 7881TIP3    H145058   2.478   4.038  13.245  1.1449 -1.0454 -0.6802
 7881TIP3    H245059   2.581   4.144  13.273 -0.3286  0.1254  0.5012
 7882TIP3   OH245060   4.246   0.423   4.648 -0.0341  0.4062 -0.0661
 7882TIP3    H145061   4.247   0.345   4.703  2.3893  0.6776  0.3894
 7882TIP3    H245062   4.255   0.496   4.710 -1.6441  1.0582 -0.5394
 7883TIP3   OH245063   2.525   2.548  15.110 -0.2375 -0.8344 -0.1383
 7883TIP3    H145064   2.460   2.482  15.136 -0.9206 -0.6776 -1.3170
 7883TIP3    H245065   2.473   2.627  15.094  0.2667 -0.6484 -0.9028
 7884TIP3   OH245066   6.028   2.751   2.926 -0.2512  0.3032  0.0135
 7884TIP3    H145067   6.048   2.662   2.956 -0.9281 -0.3690 -1.4435
 7884TIP3    H245068   5.932   2.755   2.926 -0.2261  1.0792  0.1505
 7885TIP3   OH245069   2.442   0.281  14.768 -0.6074  0.6777 -1.0467
 7885TIP3    H145070   2.378   0.322  14.827  0.1564 -0.2182  0.4750
 7885TIP3    H245071   2.390   0.256  14.691 -1.9604  0.5973 -0.1513
 7886TIP3   OH245072   2.109   0.445  14.574  0.1406 -0.4081 -0.0537
 7886TIP3    H145073   2.153   0.514  14.623 -0.0129  0.2553 -0.8210
 7886TIP3    H245074   2.132   0.365  14.620  0.4319  0.1360  0.7822
 7887TIP3   OH245075   5.763   0.400   1.226  0.1895  0.2448  0.5369
 7887TIP3    H145076   5.740   0.400   1.133  1.5079  1.6063  0.1636
 7887TIP3    H245077   5.693   0.450   1.268  0.2910  0.8272  0.0407
 7888TIP3   OH245078   5.946   2.103   6.117  0.0060 -0.1827  0.4342
 7888TIP3    H145079   5.950   2.183   6.169  0.2358  0.2473 -0.2383
 7888TIP3    H245080   5.870   2.056   6.151  0.0679  0.1587  1.0598
 7889TIP3   OH245081   5.515   5.401  12.946 -0.1064  0.6599 -0.6236
 7889TIP3    H145082   5.572   5.431  12.876  1.1375  1.6303  0.7356
 7889TIP3    H245083   5.476   5.481  12.981 -0.2176  0.2602  0.1904
 7890TIP3   OH245084   0.016   6.546  16.534 -0.2864 -0.3849  0.6996
 7890TIP3    H145085   0.070   6.537  16.456  2.8510  0.6441  2.5454
 7890TIP3    H245086   0.032   6.465  16.583 -1.3389 -0.5428  0.7983
 7891TIP3   OH245087   0.906   0.337   2.716  0.2498 -0.3122 -0.0728
 7891TIP3    H145088   0.998   0.361   2.729  1.2567 -3.2188 -0.9854
 7891TIP3    H245089   0.862   0.420   2.699  2.3820  1.3689  1.8996
 7892TIP3   OH245090   1.365   0.708  13.729 -0.3680  0.1013 -0.4009
 7892TIP3    H145091   1.340   0.656  13.653 -1.5576 -0.2579  0.2220
 7892TIP3    H245092   1.461   0.703  13.731 -0.3421 -0.1275 -1.6871
 7893TIP3   OH245093   1.835   2.152  16.191 -0.4423 -0.2498 -0.4250
 7893TIP3    H145094   1.884   2.233  16.201 -0.8316  0.1048 -1.3289
 7893TIP3    H245095   1.749   2.170  16.229 -0.6444 -0.1235 -0.9361
 7894TIP3   OH245096   4.758   2.470   2.352  0.0266  0.1832 -0.2592
 7894TIP3    H145097   4.845   2.508   2.343  0.1097 -0.1593 -0.9418
 7894TIP3    H245098   4.745   2.420   2.272 -0.2397 -0.8973  0.4342
 7895TIP3   OH245099   5.128   2.831  11.388  0.3771 -0.1516  0.0174
 7895TIP3    H145100   5.137   2.903  11.325  0.4884 -1.4617 -1.5298
 7895TIP3    H245101   5.036   2.804  11.379  0.4955 -0.5979  0.1329
 7896TIP3   OH245102   4.402   1.048   1.820 -0.0767 -0.8324 -0.2166
 7896TIP3    H145103   4.314   1.045   1.857  0.1608 -0.7380  0.3676
 7896TIP3    H245104   4.419   0.959   1.789 -0.1301 -1.0035  0.2500
 7897TIP3   OH245105   2.427   5.206  12.675  0.2544 -0.5456  0.4922
 7897TIP3    H145106   2.348   5.216  12.728  1.0001  1.7110  1.2757
 7897TIP3    H245107   2.400   5.230  12.587 -0.0976 -0.4998  0.6118
 7898TIP3   OH245108   5.774   1.859  12.511 -0.0827  0.4945  0.4456
 7898TIP3    H145109   5.690   1.903  12.522 -0.5705 -0.5187  0.9276
 7898TIP3    H245110   5.786   1.851  12.416  1.3458  4.0681  0.1815
 7899TIP3   OH245111   5.379   4.153  11.548  0.8503 -0.4864 -0.3009
 7899TIP3    H145112   5.373   4.114  11.461 -1.3356 -1.4872  0.2214
 7899TIP3    H245113   5.418   4.085  11.602 -0.8106 -1.1285  0.1336
 7900TIP3   OH245114   6.044   6.685  16.008 -0.0272 -0.1744  0.1657
 7900TIP3    H145115   6.028   6.729  16.091 -0.1783 -0.5990  0.3646
 7900TIP3    H245116   6.009   6.745  15.942 -2.6200 -1.0798  0.5742
 7901TIP3   OH245117   1.392   4.124   5.069 -1.0276  0.6674  0.3046
 7901TIP3    H145118   1.439   4.103   4.988 -0.2959  1.5171  0.4991
 7901TIP3    H245119   1.300   4.109   5.048 -0.7762  0.0723 -0.4234
 7902TIP3   OH245120   5.645   4.225   1.619 -0.1153 -0.4995  0.0360
 7902TIP3    H145121   5.697   4.151   1.590 -0.0935 -0.7166  0.6247
 7902TIP3    H245122   5.607   4.261   1.539  0.7753 -0.4587 -0.3775
 7903TIP3   OH245123   2.912   1.914  15.595  0.4331 -0.2967 -0.7636
 7903TIP3    H145124   2.978   1.850  15.568  1.4968  0.2946  0.3278
 7903TIP3    H245125   2.831   1.865  15.600  1.4560 -1.9005  1.3310
 7904TIP3   OH245126   2.787   2.344  12.402 -0.3364 -0.5748 -0.6807
 7904TIP3    H145127   2.714   2.355  12.341  0.5711 -0.8811 -1.8705
 7904TIP3    H245128   2.862   2.380  12.354  0.6521 -2.0452 -0.2750
 7905TIP3   OH245129   5.174   0.691   4.162 -0.1398 -0.1272 -0.0297
 7905TIP3    H145130   5.193   0.745   4.084  1.5573 -1.9108 -0.9443
 7905TIP3    H245131   5.224   0.611   4.148 -2.0460 -1.6910  1.6067
 7906TIP3   OH245132   1.895   3.705   1.679 -0.0704 -0.4153 -0.0183
 7906TIP3    H145133   1.881   3.615   1.709 -1.2013 -0.8895 -1.8101
 7906TIP3    H245134   1.952   3.697   1.603 -1.3140  0.1871 -1.0696
 7907TIP3   OH245135   1.556   3.309   1.719 -0.2317 -0.7523  0.3524
 7907TIP3    H145136   1.514   3.232   1.684 -0.9125 -0.5427  0.6904
 7907TIP3    H245137   1.631   3.325   1.661  0.0487 -1.7854  0.4135
 7908TIP3   OH245138   3.154   4.854  10.967 -0.7321  0.0794 -0.0912
 7908TIP3    H145139   3.132   4.820  10.880 -0.2368 -1.2783  0.2840
 7908TIP3    H245140   3.105   4.936  10.974 -1.1077  0.0014 -1.4819
 7909TIP3   OH245141   5.719   5.631  15.912 -0.3291  0.8756 -0.0078
 7909TIP3    H145142   5.789   5.589  15.861 -0.5055  1.3276 -0.6380
 7909TIP3    H245143   5.672   5.558  15.952 -2.1366  0.1830 -3.0309
 7910TIP3   OH245144   1.600   6.104   5.490  0.7511 -0.6354  0.2557
 7910TIP3    H145145   1.567   6.088   5.401 -0.7242  0.5644  0.5440
 7910TIP3    H245146   1.605   6.018   5.530 -1.2165 -0.9768 -0.1353
 7911TIP3   OH245147   1.162   1.876   2.051 -0.5978  0.4628 -0.5738
 7911TIP3    H145148   1.093   1.820   2.087  0.8551 -0.3073  1.1445
 7911TIP3    H245149   1.230   1.814   2.025  1.3453  1.3747  1.9978
 7912TIP3   OH245150   5.172   4.173   0.813 -0.0285  0.0317  0.4345
 7912TIP3    H145151   5.202   4.147   0.727  0.0674 -0.4003  0.5966
 7912TIP3    H245152   5.159   4.268   0.807  1.3737  0.2454  0.3577
 7913TIP3   OH245153   0.807   4.936  15.482 -0.4567  0.4558  0.3207
 7913TIP3    H145154   0.820   4.870  15.414 -1.8536  0.1804  0.2780
 7913TIP3    H245155   0.887   4.933  15.535  0.1031 -0.2384 -0.5448
 7914TIP3   OH245156   0.837   0.598   0.933 -0.2125  0.3997  0.1247
 7914TIP3    H145157   0.770   0.567   0.871  0.1843  0.3778 -0.2981
 7914TIP3    H245158   0.880   0.519   0.964  2.2713  0.5194 -2.5934
 7915TIP3   OH245159   2.489   1.421   5.351  0.0277 -0.1388  0.0286
 7915TIP3    H145160   2.563   1.380   5.306  0.1755  0.4143 -0.2366
 7915TIP3    H245161   2.413   1.401   5.295  0.3592  1.3954 -1.0309
 7916TIP3   OH245162   0.886   4.402   2.937 -0.2577 -0.0341  0.3146
 7916TIP3    H145163   0.852   4.313   2.947 -0.7412 -0.8592 -5.3237
 7916TIP3    H245164   0.981   4.390   2.929 -0.1730  0.1843  0.9471
 7917TIP3   OH245165   3.537   5.336  15.571  0.0380  0.0451 -0.4049
 7917TIP3    H145166   3.555   5.325  15.664 -0.1700  0.2966 -0.3351
 7917TIP3    H245167   3.568   5.255  15.531 -1.1137 -0.6590  0.0610
 7918TIP3   OH245168   6.047   1.952  14.561  0.2427 -0.6027  0.1692
 7918TIP3    H145169   6.063   1.926  14.652  0.4044  0.6664  0.5227
 7918TIP3    H245170   6.093   1.886  14.509  1.2976 -0.5857  1.0413
 7919TIP3   OH245171   2.181   2.514   5.750 -0.2607  0.1561  0.2486
 7919TIP3    H145172   2.219   2.426   5.742  0.7239  0.5507  0.5444
 7919TIP3    H245173   2.096   2.499   5.791 -0.8136 -0.8188 -1.1418
 7920TIP3   OH245174   3.290   5.867  16.436 -0.2506  0.2304  0.3500
 7920TIP3    H145175   3.343   5.792  16.461  0.5168  1.2865  1.9922
 7920TIP3    H245176   3.347   5.943  16.448 -1.9857  1.3682  1.8476
 7921TIP3   OH245177   3.887   5.955   6.133  0.0529  0.4018  0.5996
 7921TIP3    H145178   3.913   5.957   6.225  0.4216  0.9476  0.4894
 7921TIP3    H245179   3.856   6.044   6.115 -0.5477  0.1436  0.3465
 7922TIP3   OH245180   6.400   0.459   2.380  0.0263 -0.3247  0.3252
 7922TIP3    H145181   6.490   0.468   2.411 -0.0767 -2.2607  1.3442
 7922TIP3    H245182   6.408   0.449   2.285  0.7127  1.1552  0.1903
 7923TIP3   OH245183   5.994   3.992   2.624 -0.3755  0.3157 -0.5134
 7923TIP3    H145184   6.076   3.986   2.575 -0.0342 -2.7616  0.2591
 7923TIP3    H245185   6.020   4.018   2.712 -0.4630  1.0923 -0.7072
 7924TIP3   OH245186   4.234   4.409  13.221 -0.4676 -0.1184  0.0033
 7924TIP3    H145187   4.256   4.478  13.159  0.7461 -0.5871 -0.1322
 7924TIP3    H245188   4.296   4.339  13.200 -1.7984 -1.3327 -0.0073
 7925TIP3   OH245189   3.161   2.375  16.958  0.3979  0.3440 -0.0474
 7925TIP3    H145190   3.172   2.470  16.966 -0.1437  0.3937  0.1444
 7925TIP3    H245191   3.249   2.340  16.970  0.5555  0.8071  0.1777
 7926TIP3   OH245192   6.295   5.905   5.457  0.4398 -0.0113  0.0117
 7926TIP3    H145193   6.231   5.977   5.458  0.9286  0.4920 -1.9127
 7926TIP3    H245194   6.380   5.949   5.461  0.7392 -0.6676  2.2702
 7927TIP3   OH245195   5.304   2.351  16.064 -0.3040 -0.3087  0.0197
 7927TIP3    H145196   5.262   2.301  16.133  0.3599  0.4803  1.0335
 7927TIP3    H245197   5.244   2.345  15.990 -0.6348 -1.8752  0.3788
 7928TIP3   OH245198   2.724   5.138  15.151  0.2465 -0.1961  0.2376
 7928TIP3    H145199   2.741   5.089  15.070 -0.7885 -1.4730  0.7589
 7928TIP3    H245200   2.684   5.073  15.210 -2.2153  1.5037  0.5892
 7929TIP3   OH245201   1.206   5.508   3.349  0.2145  0.3327  0.4780
 7929TIP3    H145202   1.195   5.412   3.346 -0.7634  0.4272  0.4918
 7929TIP3    H245203   1.300   5.521   3.355  0.3976 -0.6199 -0.0380
 7930TIP3   OH245204   2.261   2.908  12.325  0.9223 -0.3306 -0.1552
 7930TIP3    H145205   2.291   2.822  12.296  1.9778 -0.1191  0.2377
 7930TIP3    H245206   2.168   2.911  12.301  1.3094 -0.8345 -1.9154
 7931TIP3   OH245207   3.164   0.479   2.318  0.4394 -0.2077 -0.1547
 7931TIP3    H145208   3.237   0.499   2.376 -2.2141  2.4749  2.6952
 7931TIP3    H245209   3.153   0.558   2.265  0.4089 -1.1224 -1.5566
 7932TIP3   OH245210   4.943   5.065   4.158 -0.2713  0.1296  0.0411
 7932TIP3    H145211   4.951   5.089   4.250 -0.8382  2.5986 -0.4948
 7932TIP3    H245212   4.865   5.111   4.127 -0.2701 -0.8939 -1.6189
 7933TIP3   OH245213   1.455   2.401  16.815 -0.0097  0.0734 -0.0861
 7933TIP3    H145214   1.485   2.350  16.740  0.2333  0.2442 -0.1094
 7933TIP3    H245215   1.480   2.491  16.794 -0.1981  0.1632  0.0708
 7934TIP3   OH245216   0.205   5.598   4.619  0.0597 -0.1388  0.3297
 7934TIP3    H145217   0.118   5.627   4.645  0.4509  1.9540 -0.5070
 7934TIP3    H245218   0.189   5.528   4.556 -1.0950  0.9997 -0.7216
 7935TIP3   OH245219   3.624   1.092  13.100  0.3909  0.3654 -0.6743
 7935TIP3    H145220   3.618   1.106  13.194  0.9958 -0.9412 -0.4246
 7935TIP3    H245221   3.574   1.164  13.062 -1.5794 -0.1939  0.7023
 7936TIP3   OH245222   3.399   5.123  15.793  0.0760 -0.0900 -1.0682
 7936TIP3    H145223   3.409   5.076  15.710  1.0467 -0.7046 -0.6227
 7936TIP3    H245224   3.488   5.136  15.825 -0.2859 -1.8843  0.9614
 7937TIP3   OH245225   3.769   0.327   2.114 -0.4873  0.1280 -0.5520
 7937TIP3    H145226   3.752   0.336   2.208  0.9568  2.5139 -0.4444
 7937TIP3    H245227   3.832   0.254   2.109 -0.2142  0.2758  0.3925
 7938TIP3   OH245228   3.605   6.660   0.406  0.1967  0.1784  0.2847
 7938TIP3    H145229   3.574   6.741   0.447  1.2196  0.6444  0.1679
 7938TIP3    H245230   3.571   6.664   0.317 -2.1357 -0.8919  1.0523
 7939TIP3   OH245231   5.832   1.964  14.940 -0.2448  0.6132 -0.2640
 7939TIP3    H145232   5.778   2.037  14.971 -1.3289  0.0483 -0.7662
 7939TIP3    H245233   5.825   1.898  15.008  2.8401  1.8610  1.4838
 7940TIP3   OH245234   3.084   1.351   1.470 -0.9391  0.1565  0.1079
 7940TIP3    H145235   3.021   1.424   1.464 -0.3607  0.5727 -1.4465
 7940TIP3    H245236   3.034   1.274   1.442 -1.6654 -0.1802  2.1307
 7941TIP3   OH245237   6.269   0.407   4.000  0.4262 -0.0845 -0.2146
 7941TIP3    H145238   6.276   0.369   3.912  0.5300 -1.3727  0.3264
 7941TIP3    H245239   6.320   0.488   3.995  0.1470  0.0403 -1.4249
 7942TIP3   OH245240   4.859   3.267  14.848 -0.4106  0.0015  0.7713
 7942TIP3    H145241   4.780   3.279  14.795 -0.3216 -0.4981  0.5222
 7942TIP3    H245242   4.870   3.172  14.855  0.7422  0.0513 -0.0831
 7943TIP3   OH245243   1.853   3.890  13.651  0.1305  0.0244  0.6340
 7943TIP3    H145244   1.887   3.973  13.617 -2.3671  1.2249  0.8852
 7943TIP3    H245245   1.762   3.886  13.621 -0.0200 -2.3557  1.1451
 7944TIP3   OH245246   2.675   1.791   4.221 -0.4862 -0.1057  0.4615
 7944TIP3    H145247   2.660   1.884   4.238 -0.3991 -0.1453  0.7566
 7944TIP3    H245248   2.739   1.765   4.287  1.3475  0.1830 -1.0921
 7945TIP3   OH245249   0.649   2.203  16.697 -0.0070 -0.0119 -0.3907
 7945TIP3    H145250   0.602   2.199  16.781 -1.0509  0.9401 -0.9038
 7945TIP3    H245251   0.724   2.259  16.714 -1.2015  1.6989 -0.5025
 7946TIP3   OH245252   3.010   0.280   4.049 -0.5373  0.6057  0.1744
 7946TIP3    H145253   2.963   0.349   4.096 -0.3205  1.8937 -1.4033
 7946TIP3    H245254   3.040   0.322   3.969 -0.1870 -1.2868 -0.7429
 7947TIP3   OH245255   2.812   2.635  15.034  0.3307  0.1440  0.1949
 7947TIP3    H145256   2.716   2.630  15.028  0.0444  0.8843  2.8121
 7947TIP3    H245257   2.838   2.552  15.074  0.6586  0.3885  0.4941
 7948TIP3   OH245258   5.462   6.367   3.388  0.1258  0.2533  0.0359
 7948TIP3    H145259   5.519   6.325   3.452 -0.1810  1.5213  1.1934
 7948TIP3    H245260   5.520   6.393   3.317  0.5506 -0.7813  0.0015
 7949TIP3   OH245261   2.478   1.638   3.655  0.6035  0.3574  0.4154
 7949TIP3    H145262   2.398   1.645   3.706 -0.2992 -0.5943 -0.8191
 7949TIP3    H245263   2.503   1.545   3.661  1.7868  0.6879  1.0199
 7950TIP3   OH245264   5.104   2.029   0.136 -0.3930 -0.0684 -0.6871
 7950TIP3    H145265   5.084   1.971   0.209  0.8084 -1.2579 -1.2583
 7950TIP3    H245266   5.075   2.115   0.165  1.0474 -0.2927  1.6814
 7951TIP3   OH245267   2.158   6.494   0.581  0.0192 -0.1452  0.0081
 7951TIP3    H145268   2.193   6.516   0.495 -0.2914  4.0141  0.7397
 7951TIP3    H245269   2.066   6.522   0.577 -0.4714 -1.4501  1.2369
 7952TIP3   OH245270   2.852   6.355  12.556  0.1809  0.2161  0.3586
 7952TIP3    H145271   2.762   6.353  12.588  0.3492  0.8838  0.8753
 7952TIP3    H245272   2.849   6.415  12.481  0.5044  1.5353  1.3678
 7953TIP3   OH245273   2.935   1.367  11.587  0.2479  0.2776 -0.1298
 7953TIP3    H145274   2.872   1.302  11.558 -0.0885  0.2981  0.5389
 7953TIP3    H245275   2.882   1.438  11.623  0.6379  0.3541  0.3185
 7954TIP3   OH245276   2.022   3.176   2.191 -0.1858 -0.0871 -0.3251
 7954TIP3    H145277   2.104   3.197   2.236 -0.0317 -0.9431 -0.1837
 7954TIP3    H245278   1.972   3.257   2.193 -0.1534 -0.0791  1.3382
 7955TIP3   OH245279   5.296   0.925  14.265  0.1177 -0.2282  0.0837
 7955TIP3    H145280   5.371   0.968  14.223 -0.9079  0.8292 -0.7278
 7955TIP3    H245281   5.220   0.969  14.228 -1.0726 -3.2571 -1.4337
 7956TIP3   OH245282   1.036   6.097   2.123  0.1059  0.4305  0.5480
 7956TIP3    H145283   1.016   6.189   2.139  0.5789  0.8431 -1.0808
 7956TIP3    H245284   0.964   6.065   2.068  1.2146  0.5519 -1.0440
 7957TIP3   OH245285   0.315   0.986  14.080 -0.3221  0.1214  0.4891
 7957TIP3    H145286   0.278   1.049  14.142 -0.1518  1.6094 -0.8858
 7957TIP3    H245287   0.406   1.013  14.069 -0.3357 -0.1602 -0.3573
 7958TIP3   OH245288   3.119   3.503   3.735  0.2716  0.1562  0.7327
 7958TIP3    H145289   3.103   3.577   3.676  0.3102  0.1966  0.7718
 7958TIP3    H245290   3.046   3.444   3.720  1.8348 -1.3474 -1.6167
 7959TIP3   OH245291   2.628   3.398  15.140 -0.1577  0.3308  0.1140
 7959TIP3    H145292   2.639   3.464  15.071  1.1243 -1.2658 -1.3225
 7959TIP3    H245293   2.551   3.348  15.113  0.8619 -0.8636 -0.7505
 7960TIP3   OH245294   2.735   6.243  14.610  0.2503  0.4196  0.0308
 7960TIP3    H145295   2.805   6.309  14.607 -1.4385  2.3651  0.8981
 7960TIP3    H245296   2.718   6.230  14.703 -0.0280 -0.6205 -0.1542
 7961TIP3   OH245297   2.749   2.641  12.296  0.3296 -0.1455 -0.3741
 7961TIP3    H145298   2.798   2.722  12.280  2.7604 -1.0537  1.7339
 7961TIP3    H245299   2.765   2.588  12.218  0.5730  0.5595 -0.8146
 7962TIP3   OH245300   5.311   1.968  11.983 -0.1836  0.2417 -0.3422
 7962TIP3    H145301   5.405   1.951  11.983 -0.2550 -0.1742 -0.7365
 7962TIP3    H245302   5.274   1.895  12.033 -0.4382 -0.5041 -1.5690
 7963TIP3   OH245303   3.936   5.811  15.556 -0.2095 -0.6306  0.7333
 7963TIP3    H145304   3.910   5.720  15.540 -0.6122 -0.3968  0.0133
 7963TIP3    H245305   3.944   5.850  15.469  0.6237 -0.1486  1.0119
 7964TIP3   OH245306   3.621   1.442   4.313 -0.7017 -0.2620 -0.3819
 7964TIP3    H145307   3.594   1.477   4.229 -1.9498  2.5484  1.0392
 7964TIP3    H245308   3.548   1.386   4.341 -0.4403 -0.9129 -0.9673
 7965TIP3   OH245309   2.433   5.998   2.147  0.7534 -0.4637  0.6532
 7965TIP3    H145310   2.423   6.088   2.116 -0.9194 -0.9611 -0.4119
 7965TIP3    H245311   2.359   5.985   2.207  0.5723 -1.3265  0.2598
 7966TIP3   OH245312   4.756   0.958   4.837  0.1290  0.2505  0.1554
 7966TIP3    H145313   4.673   0.923   4.804 -0.1774 -0.1462  1.2983
 7966TIP3    H245314   4.823   0.907   4.792 -0.2525  0.2275 -0.3992
 7967TIP3   OH245315   6.232   3.075  10.872 -0.9485  0.3904 -0.5625
 7967TIP3    H145316   6.202   3.158  10.834 -0.2662 -0.4904 -3.2793
 7967TIP3    H245317   6.154   3.038  10.912 -1.7327  1.4640 -1.0399
 7968TIP3   OH245318   0.754   3.149   5.397 -0.6405 -0.7789  0.0062
 7968TIP3    H145319   0.706   3.072   5.427  0.3012 -1.2264  0.4152
 7968TIP3    H245320   0.839   3.142   5.440  0.4376 -0.9338 -2.0312
 7969TIP3   OH245321   5.096   4.211  11.482  0.4747  0.0376  0.1573
 7969TIP3    H145322   5.091   4.297  11.441  0.3757 -0.3872 -0.7385
 7969TIP3    H245323   5.183   4.209  11.523 -0.1511  1.1871  1.6503
 7970TIP3   OH245324   3.610   2.233  11.988 -0.1833 -0.7961 -0.2668
 7970TIP3    H145325   3.670   2.300  12.019  0.1037 -1.5345  0.8262
 7970TIP3    H245326   3.663   2.154  11.981 -1.0730 -1.5508  1.0668
 7971TIP3   OH245327   1.531   6.209   3.684 -0.2664 -0.2119  0.0365
 7971TIP3    H145328   1.442   6.237   3.664 -0.3266 -0.4841 -0.0920
 7971TIP3    H245329   1.544   6.131   3.630 -0.4592 -1.0140  1.1075
 7972TIP3   OH245330   5.362   2.385   4.703  0.4831  0.0623 -0.2378
 7972TIP3    H145331   5.307   2.444   4.651  1.1584  0.9439  0.0308
 7972TIP3    H245332   5.301   2.343   4.763  0.0191  0.6569 -0.2798
 7973TIP3   OH245333   4.037   0.353   3.924 -0.1059  0.3609  0.0914
 7973TIP3    H145334   4.034   0.258   3.910  0.3051  0.3503  0.0678
 7973TIP3    H245335   3.946   0.377   3.943 -0.2294 -0.0211 -0.0045
 7974TIP3   OH245336   3.040   4.960   4.899  0.5837  0.0725 -0.2624
 7974TIP3    H145337   3.102   4.890   4.921 -0.8063 -1.5383 -1.2612
 7974TIP3    H245338   2.986   4.970   4.977  1.4083  0.7606  0.2386
 7975TIP3   OH245339   6.049   0.884   2.810 -0.1445  0.4769 -0.2019
 7975TIP3    H145340   6.078   0.932   2.732 -0.7819 -0.1968 -0.8715
 7975TIP3    H245341   6.113   0.814   2.821 -0.0173  0.6118 -0.0730
 7976TIP3   OH245342   1.647   1.838  12.083  0.2204  0.0324 -0.2780
 7976TIP3    H145343   1.702   1.777  12.132  2.4356 -0.1791 -2.7504
 7976TIP3    H245344   1.558   1.809  12.099  1.0368 -1.9736  1.0155
 7977TIP3   OH245345   1.973   6.195  16.358 -0.4676  0.4308  0.3990
 7977TIP3    H145346   2.052   6.145  16.379 -0.9003 -0.6102 -0.3791
 7977TIP3    H245347   2.004   6.268  16.305 -0.1352 -0.6100 -0.8748
 7978TIP3   OH245348   3.200   5.827   0.250  0.1775  0.0278 -0.7042
 7978TIP3    H145349   3.195   5.893   0.319 -0.6110  0.8647 -1.5332
 7978TIP3    H245350   3.260   5.761   0.284  0.0332  0.5723  0.6485
 7979TIP3   OH245351   2.529   4.325   4.958  0.5161  0.0317  0.1032
 7979TIP3    H145352   2.436   4.315   4.939  0.2534 -0.2071  1.4220
 7979TIP3    H245353   2.532   4.375   5.040  1.5626  0.5111 -0.2033
 7980TIP3   OH245354   4.254   3.304   2.256  0.3168  0.2881  0.5958
 7980TIP3    H145355   4.179   3.279   2.310  0.6693  1.2021  1.5511
 7980TIP3    H245356   4.264   3.398   2.273  1.7201  0.1637  0.5435
 7981TIP3   OH245357   1.945   1.155   2.419 -0.0608  0.7584  0.2203
 7981TIP3    H145358   1.974   1.162   2.328  0.0465  0.6072  0.2421
 7981TIP3    H245359   1.932   1.061   2.433  0.9163  0.6730  0.6689
 7982TIP3   OH245360   5.033   3.906  14.103  0.1592  0.3314 -0.8556
 7982TIP3    H145361   4.995   3.874  14.021 -2.4225  0.8154  0.0615
 7982TIP3    H245362   5.084   3.983  14.077 -1.0992  0.8301 -1.9729
 7983TIP3   OH245363   2.168   6.170   3.842  0.4095  0.7648  0.2043
 7983TIP3    H145364   2.189   6.264   3.840 -0.6591  1.0456  1.2998
 7983TIP3    H245365   2.086   6.165   3.890  0.6455 -0.7798  0.4765
 7984TIP3   OH245366   2.118   1.549   2.828 -0.5521  0.1476  0.4967
 7984TIP3    H145367   2.111   1.474   2.769  1.3078  0.4660 -0.1606
 7984TIP3    H245368   2.036   1.547   2.878 -0.8900 -1.8480 -0.0528
 7985TIP3   OH245369   2.109   0.052  13.419  0.0620  0.1480 -0.0153
 7985TIP3    H145370   2.157   0.117  13.369  0.2739 -0.4576 -0.6237
 7985TIP3    H245371   2.032   0.098  13.452 -0.2614  0.4917 -1.1858
 7986TIP3   OH245372   3.665   1.548  16.207  0.0697  0.1826 -0.2008
 7986TIP3    H145373   3.726   1.564  16.279 -0.6936  0.2342  0.4460
 7986TIP3    H245374   3.709   1.482  16.152  0.2437 -0.5649  0.8138
 7987TIP3   OH245375   3.248   4.041  10.413  0.5484 -0.3318 -0.2204
 7987TIP3    H145376   3.288   4.116  10.458 -0.2121 -1.2974  2.2718
 7987TIP3    H245377   3.165   4.074  10.380  1.2907  0.5053 -1.3092
 7988TIP3   OH245378   6.455   2.214   3.679 -1.0333  0.0803  0.5882
 7988TIP3    H145379   6.502   2.290   3.714 -1.3747  0.2274  0.7385
 7988TIP3    H245380   6.519   2.169   3.624 -1.1092  1.0575 -0.3591
 7989TIP3   OH245381   3.073   1.821   2.660 -0.3108 -0.0708  0.0316
 7989TIP3    H145382   3.027   1.766   2.724  2.4311  1.2081  3.4152
 7989TIP3    H245383   3.003   1.859   2.607 -2.5946 -3.2034  0.5191
 7990TIP3   OH245384   4.534   5.457  16.362 -0.1853 -0.0481  0.0974
 7990TIP3    H145385   4.618   5.430  16.398 -0.0529  0.3256  0.0771
 7990TIP3    H245386   4.484   5.488  16.438 -0.4843 -0.7175  0.1771
 7991TIP3   OH245387   3.598   1.695   4.720  0.0940 -0.0685 -0.1283
 7991TIP3    H145388   3.566   1.690   4.810  0.0528 -0.1122 -0.1457
 7991TIP3    H245389   3.681   1.742   4.727 -0.7664  1.5671 -0.2618
 7992TIP3   OH245390   1.235   2.970  11.336  0.4622 -0.3248 -0.2788
 7992TIP3    H145391   1.226   2.965  11.241 -0.8693 -0.1623 -0.1814
 7992TIP3    H245392   1.149   3.001  11.367  1.5145  1.7275  0.8079
 7993TIP3   OH245393   5.634   6.196   3.505 -0.0318 -0.3773 -0.2540
 7993TIP3    H145394   5.701   6.260   3.529 -0.7291  0.1890  0.2345
 7993TIP3    H245395   5.682   6.115   3.488  0.8787  0.3016 -0.9857
 7994TIP3   OH245396   0.579   5.753   3.583 -0.1713  0.5860  0.3023
 7994TIP3    H145397   0.640   5.713   3.521  1.8158  0.7092  2.0921
 7994TIP3    H245398   0.604   5.845   3.586 -2.2041  1.2470 -0.8664
 7995TIP3   OH245399   5.146   2.247   0.429 -0.5427 -0.8483 -0.0478
 7995TIP3    H145400   5.153   2.230   0.523 -1.1388 -0.7994  0.0083
 7995TIP3    H245401   5.061   2.210   0.405 -0.3661 -0.9100 -0.5795
 7996TIP3   OH245402   3.754   6.665  14.764  0.2804  0.5345  0.0841
 7996TIP3    H145403   3.684   6.643  14.825  0.8713 -1.3221  0.1701
 7996TIP3    H245404   3.742   6.604  14.691  1.8544  0.0761  0.1627
 7997TIP3   OH245405   1.355   3.922   5.308 -0.2734 -0.0919 -0.2005
 7997TIP3    H145406   1.327   3.907   5.398  0.6895  1.1826  0.3298
 7997TIP3    H245407   1.311   3.853   5.258  1.2337 -2.5383  1.5978
 7998TIP3   OH245408   2.908   2.394   3.870  0.4300 -0.5842 -0.1385
 7998TIP3    H145409   2.888   2.483   3.899  2.0697 -0.6171  1.3212
 7998TIP3    H245410   2.880   2.391   3.779  2.3229  2.1775 -0.9470
 7999TIP3   OH245411   2.574   4.408   0.074  0.2503  0.6413 -0.3576
 7999TIP3    H145412   2.482   4.426   0.093 -0.1225 -0.1879 -1.3080
 7999TIP3    H245413   2.604   4.484   0.024 -0.1413  0.5608 -0.7184
 8000TIP3   OH245414   3.813   6.480   3.213  0.0918 -0.5987  0.3008
 8000TIP3    H145415   3.738   6.421   3.200  0.4544 -0.7350 -1.4164
 8000TIP3    H245416   3.837   6.507   3.124  0.9375  0.8897  0.9578
 8001TIP3   OH245417   4.861   0.407  15.951 -0.1402 -0.1453 -0.0399
 8001TIP3    H145418   4.864   0.490  15.902  0.9645  0.1324  0.4618
 8001TIP3    H245419   4.800   0.424  16.022 -0.0643  0.1831 -0.0487
 8002TIP3   OH245420   3.437   5.224  14.812  0.3966  0.0337 -0.3019
 8002TIP3    H145421   3.527   5.254  14.800  0.3219 -0.2960 -1.9766
 8002TIP3    H245422   3.384   5.303  14.805  0.4498  0.0073 -1.2338
 8003TIP3   OH245423   2.848   2.807  13.142 -0.4056  0.2076  0.2028
 8003TIP3    H145424   2.917   2.821  13.208 -0.6320 -0.2035  0.5352
 8003TIP3    H245425   2.780   2.871  13.164 -0.7638 -0.3593  0.7708
 8004TIP3   OH245426   5.178   2.062  16.966 -0.1196  0.1584 -0.1489
 8004TIP3    H145427   5.244   1.997  16.943 -0.6260 -0.2136 -0.6032
 8004TIP3    H245428   5.155   2.042  17.057 -0.4256 -0.4499 -0.3507
 8005TIP3   OH245429   4.886   2.878  14.676 -0.7526 -0.7789 -0.0237
 8005TIP3    H145430   4.841   2.953  14.637 -0.2418 -0.8676 -0.8025
 8005TIP3    H245431   4.912   2.825  14.601 -1.5466 -1.9982  0.5236
 8006TIP3   OH245432   2.359   5.230   0.688  0.0721  0.7858  0.4151
 8006TIP3    H145433   2.274   5.193   0.712  0.6599 -2.4642 -1.7709
 8006TIP3    H245434   2.422   5.179   0.739  0.8244  0.1470 -1.0855
 8007TIP3   OH245435   3.474   5.034   0.260  0.0980  0.3063  0.0412
 8007TIP3    H145436   3.429   5.096   0.318  3.7949  3.3654  0.0123
 8007TIP3    H245437   3.493   5.085   0.181 -0.4784 -2.3131 -1.9345
 8008TIP3   OH245438   6.444   5.549  17.033  0.4480 -0.0348  0.1835
 8008TIP3    H145439   6.466   5.643  17.031  1.7029 -0.3224 -0.6278
 8008TIP3    H245440   6.517   5.507  16.989 -0.5248 -1.3304 -0.2328
 8009TIP3   OH245441   3.252   2.875  12.910 -0.2680 -0.0392  0.0230
 8009TIP3    H145442   3.285   2.927  12.983  1.4386 -0.1503 -0.6171
 8009TIP3    H245443   3.163   2.907  12.896  0.0741  1.3798  0.8619
 8010TIP3   OH245444   3.091   0.718  15.049 -0.0571  0.0067 -0.0004
 8010TIP3    H145445   3.105   0.630  15.015  0.3836  0.9748 -2.6012
 8010TIP3    H245446   3.173   0.739  15.094  0.1055 -0.6576  0.0266
 8011TIP3   OH245447   6.075   3.168   2.740 -0.0942 -0.1905  0.6479
 8011TIP3    H145448   6.067   3.244   2.798 -1.3778  1.4835 -1.5396
 8011TIP3    H245449   6.145   3.191   2.679 -2.1323  0.5154 -1.6148
 8012TIP3   OH245450   5.939   6.441  16.144 -0.2930 -0.0146  0.4906
 8012TIP3    H145451   5.920   6.516  16.200  1.2923  1.0868 -0.3589
 8012TIP3    H245452   5.963   6.480  16.060  1.4411 -1.4067  0.2763
 8013TIP3   OH245453   2.445   1.063   5.231 -0.4312  0.1247  0.1268
 8013TIP3    H145454   2.490   1.115   5.298 -0.5926 -0.4793  0.7163
 8013TIP3    H245455   2.496   1.076   5.151 -1.0864  2.0859 -0.0329
 8014TIP3   OH245456   1.302   1.835   1.362 -0.2592 -0.0405  0.3773
 8014TIP3    H145457   1.267   1.754   1.399 -1.2350 -0.3425 -1.1109
 8014TIP3    H245458   1.302   1.897   1.435 -0.9687 -0.9298  1.1580
 8015TIP3   OH245459   1.370   6.656   3.659 -0.2720  0.4058  0.1741
 8015TIP3    H145460   1.371   6.709   3.738  1.4013 -1.6616  1.6502
 8015TIP3    H245461   1.339   6.570   3.687 -0.4993 -0.1461 -1.6137
 8016TIP3   OH245462   4.999   1.466   0.652  0.0920  0.0160 -0.1571
 8016TIP3    H145463   5.025   1.513   0.573  1.2405 -1.3040 -0.6053
 8016TIP3    H245464   5.049   1.509   0.722 -1.3910  1.5871 -0.0039
 8017TIP3   OH245465   1.350   5.606  12.491 -0.4132 -0.4737  0.5310
 8017TIP3    H145466   1.255   5.596  12.486 -0.4510 -0.7189  1.6096
 8017TIP3    H245467   1.379   5.599  12.400 -1.2917 -1.7674  0.3186
 8018TIP3   OH245468   3.107   1.753   4.211 -0.4124  0.1149  0.3428
 8018TIP3    H145469   3.106   1.673   4.159 -0.0609 -0.9400  1.8895
 8018TIP3    H245470   3.189   1.748   4.260 -0.8127  0.9936  1.1188
 8019TIP3   OH245471   0.104   4.283  15.246 -0.2976 -0.3659  0.5021
 8019TIP3    H145472   0.167   4.319  15.183  0.2315  0.7706  1.6445
 8019TIP3    H245473   0.088   4.194  15.215  1.2040 -0.3861 -0.3122
 8020TIP3   OH245474   2.140   2.565   3.125  0.3016 -0.2153 -0.1981
 8020TIP3    H145475   2.159   2.478   3.161 -0.3903 -0.5123 -0.5428
 8020TIP3    H245476   2.057   2.590   3.163 -0.0092 -0.1549 -0.8975
 8021TIP3   OH245477   3.917   1.717  14.219  0.4180  0.6427  0.2723
 8021TIP3    H145478   3.975   1.672  14.281  1.7025  1.4798 -0.2651
 8021TIP3    H245479   3.897   1.800  14.261  0.0474  0.5795  0.2192
 8022TIP3   OH245480   6.653   5.223  15.625  0.5835 -0.0905  0.4156
 8022TIP3    H145481   6.614   5.271  15.552 -1.0119 -0.9536  0.6676
 8022TIP3    H245482   6.717   5.284  15.662 -0.1400  1.1787 -0.3598
 8023TIP3   OH245483   5.716   2.242  11.424 -0.0299 -0.7981 -0.5413
 8023TIP3    H145484   5.711   2.147  11.422  0.5413 -0.8232 -1.0839
 8023TIP3    H245485   5.691   2.270  11.336  0.1637 -0.4634 -0.4932
 8024TIP3   OH245486   3.140   1.286  12.780 -0.3483 -0.1859 -0.3073
 8024TIP3    H145487   3.192   1.356  12.820 -0.8325  0.0303 -0.0541
 8024TIP3    H245488   3.158   1.209  12.834 -0.4580 -0.0589 -0.0905
 8025TIP3   OH245489   1.365   2.405  12.005 -0.4238  0.0515 -0.5423
 8025TIP3    H145490   1.339   2.316  11.979  1.1586 -1.1357  1.6161
 8025TIP3    H245491   1.443   2.392  12.059  0.2489  2.8403 -0.7287
 8026TIP3   OH245492   6.198   4.479   2.300  0.2941  0.1162 -0.4051
 8026TIP3    H145493   6.148   4.547   2.344  1.7709  1.5363 -0.8198
 8026TIP3    H245494   6.191   4.403   2.357  0.8124  1.4163  1.4729
 8027TIP3   OH245495   4.533   6.371   5.728 -0.2686  0.1608  0.0439
 8027TIP3    H145496   4.533   6.331   5.816 -0.2840  0.9943  0.4312
 8027TIP3    H245497   4.441   6.368   5.701 -0.6787  1.9902  1.0523
 8028TIP3   OH245498   5.902   6.690  11.316  0.4741  0.2803 -0.1384
 8028TIP3    H145499   5.904   6.615  11.256 -1.4295  1.2207 -1.4802
 8028TIP3    H245500   5.924   6.765  11.261 -2.1161  1.2851  0.0664
 8029TIP3   OH245501   1.553   5.673  16.148  0.5320 -0.0287 -0.0118
 8029TIP3    H145502   1.562   5.664  16.243 -0.4065  1.7421  0.2948
 8029TIP3    H245503   1.592   5.594  16.112  0.0562 -1.1760  1.8880
 8030TIP3   OH245504   6.759   4.285   5.458  0.2477  0.1492  0.3294
 8030TIP3    H145505   6.756   4.289   5.553  1.2737  0.9317  0.3411
 8030TIP3    H245506   6.796   4.369   5.431  0.1719 -0.1494 -0.7478
 8031TIP3   OH245507   5.126   5.449   3.635  0.0276 -0.1580  0.1134
 8031TIP3    H145508   5.166   5.521   3.684 -0.3923 -0.6871  1.2714
 8031TIP3    H245509   5.037   5.479   3.617 -0.3460 -0.5939  1.1242
 8032TIP3   OH245510   6.211   5.945  16.258  0.0264  0.0706 -0.3361
 8032TIP3    H145511   6.164   5.899  16.188 -1.0652  0.2446  0.2644
 8032TIP3    H245512   6.234   5.876  16.321 -1.1719  0.2379  0.3198
 8033TIP3   OH245513   2.264   6.723   3.448  0.0094 -0.5178  0.4596
 8033TIP3    H145514   2.313   6.675   3.382 -0.7305 -0.8270  0.1315
 8033TIP3    H245515   2.315   6.711   3.529  0.7138 -0.4451  0.0333
 8034TIP3   OH245516   2.408   4.727  16.530 -0.1905 -0.0316 -0.0417
 8034TIP3    H145517   2.456   4.779  16.465 -1.1158  0.7383 -0.1302
 8034TIP3    H245518   2.427   4.636  16.507  1.0647  0.2539 -0.1877
 8035TIP3   OH245519   3.872   3.865  14.635 -0.3623  0.6734  0.2315
 8035TIP3    H145520   3.892   3.823  14.551  1.0082  0.0747  0.8259
 8035TIP3    H245521   3.791   3.823  14.664 -0.3505  0.2285 -0.3716
 8036TIP3   OH245522   2.119   5.118  17.006 -0.0822 -0.5949  0.1386
 8036TIP3    H145523   2.077   5.133  17.090 -0.8829  1.1964 -0.5363
 8036TIP3    H245524   2.118   5.203  16.962  1.5943 -1.1597 -1.1250
 8037TIP3   OH245525   3.356   2.633  13.278 -0.3773 -0.1906  0.5219
 8037TIP3    H145526   3.295   2.628  13.204  0.3333 -1.0369 -0.0310
 8037TIP3    H245527   3.326   2.567  13.339 -0.9381  0.4783  0.9794
 8038TIP3   OH245528   1.294   3.247  13.833  0.4630  0.1345  0.6676
 8038TIP3    H145529   1.339   3.226  13.752 -0.8845 -1.0002  0.1588
 8038TIP3    H245530   1.232   3.316  13.809  0.5702  0.3091  0.8936
 8039TIP3   OH245531   0.031   4.143  10.415 -0.3863  0.5178  0.4481
 8039TIP3    H145532   0.038   4.072  10.479 -0.0787 -0.9373 -1.1518
 8039TIP3    H245533   0.049   4.222  10.466 -0.6643 -0.5291  2.2630
 8040TIP3   OH245534   0.141   1.402   4.955  0.2478  0.2393 -0.3424
 8040TIP3    H145535   0.080   1.362   5.018  0.6343  1.8383  1.1456
 8040TIP3    H245536   0.146   1.340   4.883 -3.4289  0.1616 -0.7420
 8041TIP3   OH245537   3.239   2.415   4.524 -0.0582  0.0020  0.0640
 8041TIP3    H145538   3.218   2.464   4.603  1.7936  0.0489  0.5731
 8041TIP3    H245539   3.190   2.460   4.455  0.3737  1.6415  0.7678
 8042TIP3   OH245540   2.397   2.369   3.020  0.0708  0.6672  0.3934
 8042TIP3    H145541   2.331   2.430   2.988 -0.9458  0.0012  1.1438
 8042TIP3    H245542   2.395   2.296   2.958  0.5761  0.9327  0.0561
 8043TIP3   OH245543   6.668   5.208  12.810  0.5822 -0.3680  0.1116
 8043TIP3    H145544   6.574   5.218  12.829  0.1896 -3.2107  0.0616
 8043TIP3    H245545   6.707   5.188  12.895  1.2477  1.0557  0.1764
 8044TIP3   OH245546   6.289   0.852  15.644  0.2496 -0.5662 -0.2954
 8044TIP3    H145547   6.265   0.866  15.553 -0.7095 -0.8296 -0.0874
 8044TIP3    H245548   6.234   0.779  15.673  1.9926 -1.8721 -0.0919
 8045TIP3   OH245549   2.684   4.286  11.205 -0.3262  0.1078  0.2545
 8045TIP3    H145550   2.677   4.268  11.111  0.6271 -0.2167  0.2348
 8045TIP3    H245551   2.761   4.237  11.233 -0.6754  0.1024  1.2372
 8046TIP3   OH245552   3.810   1.335   5.821 -0.1701  0.2350 -0.0878
 8046TIP3    H145553   3.807   1.299   5.733  0.9249  0.8973 -0.4121
 8046TIP3    H245554   3.760   1.417   5.815 -0.2258  0.2026 -0.0602
 8047TIP3   OH245555   6.716   1.992  13.557 -0.5834 -0.1067 -0.0925
 8047TIP3    H145556   6.684   2.024  13.641  2.6810  0.6694  0.9956
 8047TIP3    H245557   6.714   1.896  13.566 -1.3976 -0.0572  0.3704
 8048TIP3   OH245558   0.105   5.343   2.902 -0.1352  0.5256 -0.1313
 8048TIP3    H145559   0.091   5.306   2.990  0.2660  0.9693  0.1246
 8048TIP3    H245560   0.132   5.268   2.849 -2.6716 -0.2205 -0.4786
 8049TIP3   OH245561   6.271   3.129   5.303 -0.1188 -0.2753  0.0412
 8049TIP3    H145562   6.353   3.164   5.339 -0.4443 -0.2038  0.7393
 8049TIP3    H245563   6.237   3.198   5.247 -0.3136  0.1823  0.7146
 8050TIP3   OH245564   5.510   0.540  11.616  0.5437  0.4500 -0.2429
 8050TIP3    H145565   5.537   0.523  11.526 -1.0662 -0.4952 -0.5749
 8050TIP3    H245566   5.592   0.555  11.663  1.4053  1.1294 -1.8819
 8051TIP3   OH245567   4.472   0.184  14.118 -0.0309  0.7181  0.1344
 8051TIP3    H145568   4.378   0.167  14.128  0.1079 -0.2637 -0.1451
 8051TIP3    H245569   4.481   0.218  14.028 -0.0781  0.5346  0.0608
 8052TIP3   OH245570   3.894   3.395   1.422  0.7570  0.2009 -0.5496
 8052TIP3    H145571   3.962   3.451   1.385  1.1193 -0.4476 -0.8821
 8052TIP3    H245572   3.925   3.306   1.406  0.6029 -0.1069  0.7431
 8053TIP3   OH245573   6.475   2.616   0.158  0.0831 -0.3324  0.1724
 8053TIP3    H145574   6.379   2.620   0.157  0.0618 -0.2976  1.4619
 8053TIP3    H245575   6.496   2.543   0.216  0.8482  0.6578  1.1845
 8054TIP3   OH245576   2.954   6.538   1.983 -0.8043  0.6655  0.2642
 8054TIP3    H145577   3.021   6.598   1.950 -0.8219 -0.0795 -1.2008
 8054TIP3    H245578   2.930   6.573   2.069  3.0872 -0.2540  1.9638
 8055TIP3   OH245579   1.598   5.591   4.291  0.1025 -0.3929  0.1144
 8055TIP3    H145580   1.652   5.606   4.369 -0.4449  1.5830  0.1660
 8055TIP3    H245581   1.535   5.524   4.318  0.6622 -0.5892  0.9796
 8056TIP3   OH245582   0.787   5.821   4.794 -0.2578  0.0089  0.1884
 8056TIP3    H145583   0.762   5.889   4.856 -0.1479 -1.7515  2.3146
 8056TIP3    H245584   0.883   5.818   4.799 -0.2645 -0.3298  0.1589
 8057TIP3   OH245585   6.589   1.559  16.562  0.4028 -0.5876  0.1791
 8057TIP3    H145586   6.548   1.481  16.525 -2.7858  1.4328 -1.0179
 8057TIP3    H245587   6.646   1.592  16.493 -0.5739 -0.2794 -0.4921
 8058TIP3   OH245588   4.699   1.080   3.554 -0.3638 -0.1694 -0.2172
 8058TIP3    H145589   4.615   1.075   3.509 -0.5891  1.0738  0.0186
 8058TIP3    H245590   4.760   1.111   3.486 -0.1299 -0.8778 -0.3373
 8059TIP3   OH245591   3.894   4.752  14.997  0.3803 -0.0361  0.6109
 8059TIP3    H145592   3.953   4.733  14.924 -1.0434 -0.5121 -0.4592
 8059TIP3    H245593   3.840   4.673  15.005 -1.3996  1.0939  0.2620
 8060TIP3   OH245594   0.203   6.369   1.682 -0.3745  0.3755  0.1251
 8060TIP3    H145595   0.267   6.425   1.639 -0.7629 -0.3119 -1.4348
 8060TIP3    H245596   0.199   6.400   1.772  3.2537 -0.4756  0.7322
 8061TIP3   OH245597   4.443   1.555  15.145 -0.1343  0.1331  0.3695
 8061TIP3    H145598   4.538   1.555  15.129 -0.0370  1.9530  0.6619
 8061TIP3    H245599   4.426   1.470  15.186  1.5374  0.1153  1.1284
 8062TIP3   OH245600   6.436   0.730   0.241  0.6975  0.2617 -0.6858
 8062TIP3    H145601   6.530   0.742   0.229  0.3051  1.7941 -2.8930
 8062TIP3    H245602   6.409   0.802   0.298  0.8209  0.0078 -0.3088
 8063TIP3   OH245603   4.785   6.338   5.643  0.2319 -0.2874 -0.3245
 8063TIP3    H145604   4.782   6.278   5.569 -0.4200 -2.5641  1.4383
 8063TIP3    H245605   4.693   6.350   5.668  0.4526  0.3145  0.2264
 8064TIP3   OH245606   4.122   4.857  12.829  0.2280 -0.4932  0.0321
 8064TIP3    H145607   4.139   4.887  12.918 -2.7124  2.4020 -0.1786
 8064TIP3    H245608   4.027   4.840  12.827  0.7618 -4.4544 -1.5914
 8065TIP3   OH245609   0.167   0.039  16.953 -0.4713  0.1582 -0.1365
 8065TIP3    H145610   0.185   0.120  17.001 -3.8019  0.5247  0.7294
 8065TIP3    H245611   0.215   0.049  16.870  1.7420  1.5313  1.2032
 8066TIP3   OH245612   2.813   5.109  12.421  0.1354 -0.5110  0.3279
 8066TIP3    H145613   2.893   5.147  12.458 -0.0058  2.4679 -2.1282
 8066TIP3    H245614   2.749   5.115  12.492  1.0836  0.5777  1.1259
 8067TIP3   OH245615   6.350   2.485   1.103 -0.0876 -0.1329  0.7254
 8067TIP3    H145616   6.438   2.496   1.067 -0.6491 -1.6386 -1.2991
 8067TIP3    H245617   6.292   2.514   1.034 -1.2083 -1.7508  0.9281
 8068TIP3   OH245618   3.093   1.618   0.183  0.2711 -0.5428 -0.1326
 8068TIP3    H145619   3.067   1.693   0.129 -0.0231 -0.1225  0.5781
 8068TIP3    H245620   3.014   1.596   0.233  0.5005 -1.0163  0.0312
 8069TIP3   OH245621   0.787   2.848   5.478  0.4880  0.3337  0.1806
 8069TIP3    H145622   0.801   2.757   5.503  1.4065  0.8114  1.4633
 8069TIP3    H245623   0.715   2.844   5.415  0.7060 -1.2993 -0.0078
 8070TIP3   OH245624   4.569   2.433  10.686 -0.7537  0.1526 -0.3871
 8070TIP3    H145625   4.654   2.477  10.694 -0.5877 -0.4282  1.3176
 8070TIP3    H245626   4.524   2.483  10.618  1.2895 -0.1148 -2.0717
 8071TIP3   OH245627   1.234   2.634  13.999  0.1046 -0.1808  0.2252
 8071TIP3    H145628   1.175   2.569  14.037  0.6827 -1.0870 -0.3646
 8071TIP3    H245629   1.202   2.718  14.031 -1.5345 -0.6312 -0.1329
 8072TIP3   OH245630   0.745   4.065  15.654  0.2040  0.3674  0.5069
 8072TIP3    H145631   0.700   4.045  15.736  0.6802  0.2670  0.7494
 8072TIP3    H245632   0.683   4.039  15.586  0.0860 -0.2229  0.8303
 8073TIP3   OH245633   0.305   2.671   2.868  0.4270 -0.3182 -0.1403
 8073TIP3    H145634   0.333   2.582   2.848 -0.0053 -0.6864  0.8453
 8073TIP3    H245635   0.229   2.660   2.925  0.7350  0.6758  0.4866
 8074TIP3   OH245636   4.138   3.525   4.348  0.1409  0.2435 -0.0204
 8074TIP3    H145637   4.166   3.448   4.398  3.2582  0.8819 -0.5643
 8074TIP3    H245638   4.144   3.497   4.257  1.6078  1.1435 -0.2342
 8075TIP3   OH245639   6.611   3.626  16.924 -0.0687  0.0793  0.4892
 8075TIP3    H145640   6.596   3.603  16.832  0.2375 -0.0249  0.4635
 8075TIP3    H245641   6.539   3.584  16.971 -0.7262  0.8562  0.2066
 8076TIP3   OH245642   5.659   2.357   1.469  0.0622  0.3623 -0.2254
 8076TIP3    H145643   5.663   2.367   1.374 -0.6498  0.8978 -0.2079
 8076TIP3    H245644   5.623   2.440   1.501  0.9751  0.4649  0.5819
 8077TIP3   OH245645   5.927   5.750   2.225  0.1558 -0.4824  0.3459
 8077TIP3    H145646   5.872   5.828   2.220 -2.3168 -2.1649 -0.9917
 8077TIP3    H245647   6.003   5.770   2.171  0.6243  1.6591  1.6531
 8078TIP3   OH245648   2.733   3.890   1.007  0.0816 -0.4922  0.1072
 8078TIP3    H145649   2.639   3.893   0.993  0.4265  0.7669 -2.4842
 8078TIP3    H245650   2.754   3.970   1.055 -0.0442 -0.2001 -0.3223
 8079TIP3   OH245651   3.377   6.341   2.324  0.0818 -0.4040 -0.0564
 8079TIP3    H145652   3.299   6.387   2.294  0.7688  0.9067  0.0670
 8079TIP3    H245653   3.420   6.309   2.245  0.7489  1.1404 -0.3556
 8080TIP3   OH245654   2.535   3.360   0.992 -0.4088 -0.1867 -0.3092
 8080TIP3    H145655   2.534   3.445   0.949 -0.2790  1.1488  2.1386
 8080TIP3    H245656   2.443   3.337   1.004 -0.4467 -0.1135 -0.4660
 8081TIP3   OH245657   2.697   2.373   2.176 -0.0051 -0.0307  0.0973
 8081TIP3    H145658   2.615   2.422   2.169 -0.3016 -0.6099 -0.6976
 8081TIP3    H245659   2.688   2.302   2.113 -0.7409 -2.8223  3.1181
 8082TIP3   OH245660   3.296   0.917   5.542  0.5823 -0.4364  0.2600
 8082TIP3    H145661   3.310   0.868   5.623  0.1842  0.0527  0.6340
 8082TIP3    H245662   3.373   0.974   5.535  1.2340 -1.3801 -0.3806
 8083TIP3   OH245663   1.804   0.826  11.440  0.8488 -0.0809  0.3183
 8083TIP3    H145664   1.889   0.804  11.402  1.1495  1.8740 -0.2512
 8083TIP3    H245665   1.804   0.921  11.445 -0.0305 -0.1467  3.3569
 8084TIP3   OH245666   2.915   0.930   3.953  0.2596 -0.5301  0.4566
 8084TIP3    H145667   2.931   0.836   3.957  0.4879 -0.4466  1.6769
 8084TIP3    H245668   2.835   0.943   4.004  1.4238  0.1897  2.1528
 8085TIP3   OH245669   0.842   0.616  13.065 -0.2626  0.1489 -0.5191
 8085TIP3    H145670   0.761   0.565  13.074  0.3047 -0.7653 -0.3904
 8085TIP3    H245671   0.833   0.688  13.128 -2.1138  1.6491 -2.3813
 8086TIP3   OH245672   6.808   4.918   5.956 -0.6997 -0.1401  0.4319
 8086TIP3    H145673   6.771   4.936   5.869 -2.8157  0.5700  1.4205
 8086TIP3    H245674   6.812   5.003   5.999  2.0732 -0.1848  0.4802
 8087TIP3   OH245675   5.246   3.301  16.171 -0.3943 -0.4625 -0.3265
 8087TIP3    H145676   5.269   3.235  16.106 -0.2841 -0.6528 -0.0971
 8087TIP3    H245677   5.284   3.269  16.253 -1.8687 -1.0248  0.1729
 8088TIP3   OH245678   0.117   2.103   1.778 -0.0631  0.3028 -0.3296
 8088TIP3    H145679   0.178   2.154   1.724 -0.9699  1.1303 -0.5904
 8088TIP3    H245680   0.169   2.078   1.855  0.4991  1.3546 -0.3419
 8089TIP3   OH245681   6.713   2.452  15.381 -0.0889  0.0273 -0.0326
 8089TIP3    H145682   6.723   2.366  15.423 -2.0445  0.9193  2.5650
 8089TIP3    H245683   6.707   2.432  15.287  1.7156 -2.4095  0.2747
 8090TIP3   OH245684   2.196   0.629   1.187 -0.5054 -0.0899 -0.0204
 8090TIP3    H145685   2.264   0.574   1.147 -0.4835  0.4826 -0.8012
 8090TIP3    H245686   2.196   0.604   1.280 -0.4627 -1.3534 -0.3455
 8091TIP3   OH245687   0.584   4.257   0.086  0.1866  0.1387 -0.1325
 8091TIP3    H145688   0.600   4.352   0.085  0.0951  0.1650 -1.4998
 8091TIP3    H245689   0.590   4.233   0.178 -1.9053  1.8291  0.5224
 8092TIP3   OH245690   4.895   3.284  12.869 -0.0276  0.3025 -0.2497
 8092TIP3    H145691   4.804   3.260  12.887  0.3455 -0.3993  0.8397
 8092TIP3    H245692   4.920   3.228  12.795 -0.2845  0.0192 -0.1271
 8093TIP3   OH245693   4.106   6.228  16.796 -0.4973  0.2642  0.1039
 8093TIP3    H145694   4.056   6.146  16.796 -0.2738  0.1245  0.2090
 8093TIP3    H245695   4.041   6.296  16.810 -0.8358  0.2003 -1.0535
 8094TIP3   OH245696   2.167   4.912  11.951 -0.6365 -0.2820  0.0650
 8094TIP3    H145697   2.077   4.897  11.980 -0.2122 -1.4009  0.8404
 8094TIP3    H245698   2.167   4.883  11.859 -1.3754  0.9704 -0.3546
 8095TIP3   OH245699   1.602   6.121   6.566 -0.0090  0.2579  0.1635
 8095TIP3    H145700   1.652   6.202   6.573 -2.6175  2.1880 -1.6981
 8095TIP3    H245701   1.548   6.118   6.645  1.1528 -0.5200  0.9598
 8096TIP3   OH245702   2.234   1.975   0.474 -0.0533  0.6797 -0.3425
 8096TIP3    H145703   2.197   2.050   0.426  1.0059  1.6790  0.3511
 8096TIP3    H245704   2.262   2.012   0.558 -0.7674 -0.7921  0.5866
 8097TIP3   OH245705   1.415   4.331  10.338 -0.0735 -0.1745 -0.3533
 8097TIP3    H145706   1.371   4.290  10.264  0.8122  0.5359 -1.3103
 8097TIP3    H245707   1.500   4.289  10.342  1.0787  1.8654 -1.7226
 8098TIP3   OH245708   6.395   6.445   2.447 -0.1756 -0.3458 -0.0319
 8098TIP3    H145709   6.421   6.492   2.526 -1.0209  0.7120 -0.3476
 8098TIP3    H245710   6.302   6.465   2.437 -0.2540 -1.0756 -0.8786
 8099TIP3   OH245711   2.607   1.413  11.899  0.0354  0.3908 -0.0689
 8099TIP3    H145712   2.602   1.381  11.989  1.4233  0.7086  0.1382
 8099TIP3    H245713   2.599   1.335  11.845 -0.0864  0.1176  0.3409
 8100TIP3   OH245714   3.339   3.865  13.991  0.4149  0.1459  0.8010
 8100TIP3    H145715   3.302   3.915  13.918  3.0220  1.1478  0.0495
 8100TIP3    H245716   3.264   3.847  14.048 -1.2606  1.6714 -0.7702
 8101TIP3   OH245717   1.693   4.973  14.536 -0.2810 -0.1046  0.6028
 8101TIP3    H145718   1.743   4.999  14.458 -2.5743  1.2157 -0.5398
 8101TIP3    H245719   1.730   5.026  14.607 -1.4621  2.6456 -0.6785
 8102TIP3   OH245720   3.259   2.954   6.214 -0.1922  0.0777  0.0536
 8102TIP3    H145721   3.278   3.002   6.295  0.1309 -1.4239  0.9078
 8102TIP3    H245722   3.345   2.933   6.178 -0.3350  0.7580 -0.7105
 8103TIP3   OH245723   3.862   5.795   0.442 -0.6520  0.3090 -0.4004
 8103TIP3    H145724   3.836   5.772   0.531 -2.4000  3.0505 -0.0854
 8103TIP3    H245725   3.936   5.737   0.423  0.8320  0.6248  3.4337
 8104TIP3   OH245726   5.273   5.360  14.713 -0.2978 -0.1471  0.3804
 8104TIP3    H145727   5.317   5.403  14.786 -0.4521 -0.4652  0.6617
 8104TIP3    H245728   5.263   5.429  14.647  2.5531 -0.5380 -0.5824
 8105TIP3   OH245729   5.565   1.973   4.575  0.1749 -0.4020  0.8170
 8105TIP3    H145730   5.522   1.912   4.636 -0.5130 -0.7893 -0.0371
 8105TIP3    H245731   5.658   1.949   4.579  0.3477  0.3828  2.6198
 8106TIP3   OH245732   4.399   4.668  10.902  0.8943  0.5611  0.0124
 8106TIP3    H145733   4.469   4.705  10.847  0.3183  0.0947 -1.0754
 8106TIP3    H245734   4.431   4.582  10.928  0.8364  0.4453 -0.2898
 8107TIP3   OH245735   1.672   1.727   5.209 -0.1688  0.4504 -0.1506
 8107TIP3    H145736   1.682   1.643   5.254 -0.9313  0.7097  0.5358
 8107TIP3    H245737   1.761   1.756   5.192  0.1219 -0.0470  0.4655
 8108TIP3   OH245738   0.718   3.710  12.525  0.3166 -0.1921 -0.3199
 8108TIP3    H145739   0.762   3.740  12.604 -0.8909 -0.1235  0.3425
 8108TIP3    H245740   0.645   3.771  12.513 -0.8225 -1.4930 -0.2331
 8109TIP3   OH245741   2.022   1.507   4.688 -0.4650 -0.2861  0.4063
 8109TIP3    H145742   2.041   1.425   4.735 -0.8428 -1.1549 -0.9204
 8109TIP3    H245743   1.979   1.562   4.754  0.4567 -0.8520  1.5306
 8110TIP3   OH245744   4.666   1.075  16.691 -0.2426  0.2754 -0.0585
 8110TIP3    H145745   4.643   1.117  16.609 -0.2862  0.6622  0.1520
 8110TIP3    H245746   4.612   1.119  16.757 -0.8531 -0.6141  0.0551
 8111TIP3   OH245747   3.994   4.061  14.278  0.6193  0.3695 -1.0590
 8111TIP3    H145748   3.905   4.043  14.248  0.9593 -1.0495 -1.2754
 8111TIP3    H245749   4.041   4.086  14.198  0.6188  0.2912 -1.0839
 8112TIP3   OH245750   4.484   4.578   2.993 -0.7783 -0.4743  0.8779
 8112TIP3    H145751   4.415   4.564   2.927 -0.8080 -0.3208  0.8756
 8112TIP3    H245752   4.551   4.514   2.971  0.4381  1.3034 -0.9593
 8113TIP3   OH245753   4.522   5.850  14.384 -0.4433  0.3429 -0.2486
 8113TIP3    H145754   4.441   5.837  14.335 -1.9154 -1.0764  2.3118
 8113TIP3    H245755   4.512   5.935  14.426 -1.8233 -0.8182  1.9663
 8114TIP3   OH245756   2.310   2.018  14.350  0.0956  0.1307 -0.7209
 8114TIP3    H145757   2.367   1.985  14.420 -0.1023  1.0325 -0.1199
 8114TIP3    H245758   2.237   2.058  14.396 -1.2065 -1.2611 -1.4829
 8115TIP3   OH245759   4.890   3.661   2.219  0.1287  0.3269 -0.6932
 8115TIP3    H145760   4.861   3.669   2.310 -1.9091 -0.0513 -1.2633
 8115TIP3    H245761   4.985   3.665   2.224  0.0293  2.5940  1.2234
 8116TIP3   OH245762   2.398   0.837  12.555  0.0725 -0.0110  0.0022
 8116TIP3    H145763   2.450   0.866  12.480 -0.6573  0.5807 -0.2881
 8116TIP3    H245764   2.330   0.904  12.565  0.8553  0.5618  1.9340
 8117TIP3   OH245765   0.035   1.360  12.061  0.1713  0.1128 -0.4843
 8117TIP3    H145766   0.024   1.451  12.089  1.2059  0.6251 -1.6157
 8117TIP3    H245767   0.130   1.346  12.061 -0.0057 -1.3972  0.9109
 8118TIP3   OH245768   6.188   2.059   2.892  0.3573  0.1439  0.1111
 8118TIP3    H145769   6.276   2.023   2.882  0.4631  1.0626 -3.4141
 8118TIP3    H245770   6.197   2.127   2.960  2.1128 -0.4387  0.5056
 8119TIP3   OH245771   5.529   3.107  13.207  0.4504  0.1887  0.0327
 8119TIP3    H145772   5.619   3.129  13.182  0.7732 -1.0505  0.0454
 8119TIP3    H245773   5.539   3.048  13.281 -0.3751 -0.2542 -0.2036
 8120TIP3   OH245774   6.011   1.002  12.465 -0.1283  0.1184 -0.0963
 8120TIP3    H145775   5.918   0.980  12.454  0.1157 -0.8061 -0.3958
 8120TIP3    H245776   6.040   0.950  12.539  0.2740  0.0023 -0.3306
 8121TIP3   OH245777   5.635   3.423  13.097 -0.5412  0.0419  0.1945
 8121TIP3    H145778   5.638   3.467  13.012 -1.6307  1.7026  0.9564
 8121TIP3    H245779   5.671   3.336  13.080  1.4523  1.0789 -1.4668
 8122TIP3   OH245780   5.352   6.695  16.263 -0.5096  0.3815 -0.8995
 8122TIP3    H145781   5.411   6.766  16.284 -0.7856  0.1663  0.7033
 8122TIP3    H245782   5.264   6.731  16.278 -0.6441 -1.0743  3.0699
 8123TIP3   OH245783   1.640   5.573  11.907 -0.1661 -0.8155  0.1315
 8123TIP3    H145784   1.713   5.564  11.969 -0.3140 -1.2635  0.2410
 8123TIP3    H245785   1.595   5.489  11.910 -0.9750 -0.3814  0.4135
 8124TIP3   OH245786   0.107   2.617  14.388 -0.5142 -0.0493 -0.5021
 8124TIP3    H145787   0.162   2.670  14.329  0.7964  0.8215  1.3933
 8124TIP3    H245788   0.126   2.526  14.363  1.2244  0.2541 -0.4461
 8125TIP3   OH245789   2.259   5.990   6.004  0.0430 -0.0266  0.2507
 8125TIP3    H145790   2.277   6.074   5.961  0.8959 -0.2149  0.2335
 8125TIP3    H245791   2.339   5.940   5.994 -0.7953 -1.2608 -0.6583
 8126TIP3   OH245792   2.680   1.968   5.669 -0.1744  0.6117  0.0737
 8126TIP3    H145793   2.686   2.008   5.582 -1.1872  1.5599  0.4264
 8126TIP3    H245794   2.695   2.040   5.730  1.9805 -0.2922  0.7246
 8127TIP3   OH245795   2.844   1.438  16.592  0.5184 -0.0144 -0.4419
 8127TIP3    H145796   2.877   1.477  16.673  0.1063  1.8234 -1.1042
 8127TIP3    H245797   2.908   1.464  16.525  0.5457 -1.0155 -0.8234
 8128TIP3   OH245798   3.851   2.244  14.910 -0.3953 -0.3264  0.1657
 8128TIP3    H145799   3.794   2.308  14.869  0.0494 -0.3296 -0.4772
 8128TIP3    H245800   3.837   2.164  14.859  1.4557  0.1192 -1.1688
 8129TIP3   OH245801   1.619   2.002   3.118  0.2251 -0.0819 -0.0417
 8129TIP3    H145802   1.623   1.917   3.074 -0.5723 -1.4392  2.3302
 8129TIP3    H245803   1.554   2.051   3.068 -0.6991 -1.5774 -0.3849
 8130TIP3   OH245804   2.433   4.718  17.090 -0.0800 -0.1110  0.3496
 8130TIP3    H145805   2.355   4.712  17.145 -2.2154  0.3963 -2.4322
 8130TIP3    H245806   2.451   4.812  17.085 -2.6254  0.3725 -3.1425
 8131TIP3   OH245807   0.870   6.602   0.656 -0.2175 -0.4177  0.5432
 8131TIP3    H145808   0.786   6.556   0.651  0.1606 -1.0215 -0.4719
 8131TIP3    H245809   0.847   6.695   0.656 -0.8501 -0.5633 -0.7004
 8132TIP3   OH245810   6.354   3.770  14.249 -0.2578  0.6753 -0.5922
 8132TIP3    H145811   6.380   3.750  14.159 -1.9292  0.2394 -1.0128
 8132TIP3    H245812   6.420   3.728  14.303  0.1241 -0.0492 -1.5960
 8133TIP3   OH245813   2.724   6.642  10.730 -0.3903 -0.4444  0.3098
 8133TIP3    H145814   2.708   6.576  10.662  0.5675  0.5547 -0.9458
 8133TIP3    H245815   2.807   6.615  10.770 -0.0943 -0.1082 -0.0756
 8134TIP3   OH245816   1.797   6.583   5.613  0.6604 -0.0960 -0.3031
 8134TIP3    H145817   1.855   6.566   5.687  0.4096 -0.6428 -0.2303
 8134TIP3    H245818   1.759   6.498   5.591  0.8062  0.0449 -1.1287
 8135TIP3   OH245819   5.254   6.652   3.916  0.2988 -0.3790 -0.1483
 8135TIP3    H145820   5.177   6.616   3.872  0.8974  2.4684 -4.0533
 8135TIP3    H245821   5.316   6.580   3.918 -0.8453 -1.4513 -1.2862
 8136TIP3   OH245822   1.297   5.634  16.185  0.2023 -0.0565  0.3821
 8136TIP3    H145823   1.250   5.718  16.176  1.5812  0.7620  0.5034
 8136TIP3    H245824   1.388   5.657  16.169  0.7384 -1.3624  1.4213
 8137TIP3   OH245825   4.897   0.660  11.669 -0.2613  0.1629  0.4293
 8137TIP3    H145826   4.915   0.723  11.740  1.5553 -0.1209  0.2872
 8137TIP3    H245827   4.950   0.693  11.596  0.6409 -1.4414  0.3237
 8138TIP3   OH245828   1.859   3.793   0.760  0.6095 -0.0604  0.3007
 8138TIP3    H145829   1.797   3.846   0.810  0.9640 -0.3497  1.0611
 8138TIP3    H245830   1.865   3.836   0.675  0.4015  0.7408  0.6855
 8139TIP3   OH245831   4.857   0.173  12.532  0.3391 -0.2296 -0.4954
 8139TIP3    H145832   4.879   0.100  12.475  1.5986  1.5945 -2.5174
 8139TIP3    H245833   4.940   0.200  12.570  0.2597  1.3279 -1.3415
 8140TIP3   OH245834   2.710   6.737   3.955 -0.1446  0.1818 -0.0343
 8140TIP3    H145835   2.720   6.785   3.872 -3.1349  0.5586 -0.2712
 8140TIP3    H245836   2.746   6.650   3.936 -0.8385  0.2261 -1.7790
 8141TIP3   OH245837   6.154   1.376  13.481 -0.0225  0.3374 -0.5200
 8141TIP3    H145838   6.139   1.421  13.564 -1.8017  1.2135 -1.2591
 8141TIP3    H245839   6.231   1.420  13.443 -0.2195  1.0724 -0.0881
 8142TIP3   OH245840   3.431   4.902   4.331 -0.0979  0.5088 -0.2693
 8142TIP3    H145841   3.494   4.831   4.322 -1.0160 -0.2236 -1.2637
 8142TIP3    H245842   3.449   4.940   4.417  1.4579  0.1108 -0.4007
 8143TIP3   OH245843   0.527   2.564   2.144  0.7377  0.0182  0.0761
 8143TIP3    H145844   0.573   2.562   2.060  0.5697 -0.0042 -0.0158
 8143TIP3    H245845   0.593   2.593   2.207  0.1961  2.8893 -0.4967
 8144TIP3   OH245846   2.798   2.640   3.904  0.0198  0.5172  0.3119
 8144TIP3    H145847   2.806   2.731   3.934 -1.8890  1.4227 -1.6079
 8144TIP3    H245848   2.711   2.636   3.864 -0.1017 -2.2895  0.6302
 8145TIP3   OH245849   5.416   3.269  12.027 -0.2414 -0.4868  0.7518
 8145TIP3    H145850   5.422   3.305  11.939 -0.7628 -0.2676  0.8009
 8145TIP3    H245851   5.415   3.345  12.085  0.5272 -0.6405  0.9815
 8146TIP3   OH245852   6.399   5.490   5.995 -0.3449  0.0367 -0.4995
 8146TIP3    H145853   6.363   5.445   6.071 -1.8068  0.0480 -1.1619
 8146TIP3    H245854   6.398   5.583   6.019 -0.9195  0.0510 -0.5620
 8147TIP3   OH245855   6.650   6.614   4.199  0.5034 -0.1697 -0.0723
 8147TIP3    H145856   6.662   6.551   4.270  0.6614 -1.1939 -0.9767
 8147TIP3    H245857   6.667   6.699   4.239  0.2013 -0.6882  1.2009
 8148TIP3   OH245858   3.725   4.966  15.409 -0.2399  0.7982  0.0816
 8148TIP3    H145859   3.742   5.032  15.477  0.4410  0.1123  0.5802
 8148TIP3    H245860   3.792   4.982  15.343 -1.1409  1.7259 -0.6629
 8149TIP3   OH245861   6.430   0.443  16.953  0.4382  0.4206 -0.6754
 8149TIP3    H145862   6.393   0.513  17.005 -3.5954 -1.0352 -1.2246
 8149TIP3    H245863   6.400   0.461  16.864 -0.2795 -1.6752 -0.9042
 8150TIP3   OH245864   6.225   5.361   3.801  0.1146  0.1533 -0.4489
 8150TIP3    H145865   6.273   5.301   3.744 -0.0225  0.9120 -1.3789
 8150TIP3    H245866   6.146   5.313   3.824  0.1781 -0.1659 -0.8867
 8151TIP3   OH245867   5.042   6.037   3.568  0.9123  0.6706 -0.0880
 8151TIP3    H145868   4.979   6.103   3.596 -1.1615 -0.6859 -1.3543
 8151TIP3    H245869   5.087   6.077   3.494  0.8479  1.2667  0.1874
 8152TIP3   OH245870   1.910   5.549   5.041 -0.1637  0.1217 -0.5884
 8152TIP3    H145871   1.838   5.537   5.103  0.2815  0.9061  0.1077
 8152TIP3    H245872   1.934   5.460   5.014  1.4442 -0.5356  2.5097
 8153TIP3   OH245873   6.339   2.189  16.769  0.1418  0.0992 -0.1382
 8153TIP3    H145874   6.295   2.251  16.827 -0.8135 -2.4260  2.0514
 8153TIP3    H245875   6.432   2.211  16.776  0.2718 -0.9420  3.6924
 8154TIP3   OH245876   3.942   6.543   0.097  0.3022  0.0354 -0.1836
 8154TIP3    H145877   4.036   6.545   0.081  0.0971 -1.5565 -1.8311
 8154TIP3    H245878   3.933   6.516   0.188  1.4143  1.8137  0.5106
 8155TIP3   OH245879   3.721   1.728   2.255  0.8864 -0.5576  0.1042
 8155TIP3    H145880   3.785   1.658   2.257  1.4549 -0.0683 -0.6862
 8155TIP3    H245881   3.712   1.754   2.347  1.2980 -1.0898  0.3013
 8156TIP3   OH245882   2.481   5.050   0.857  0.2269 -0.7941  0.1176
 8156TIP3    H145883   2.525   4.995   0.792  0.8291 -1.6347  1.2025
 8156TIP3    H245884   2.552   5.083   0.913 -0.4671 -2.0875  1.8389
 8157TIP3   OH245885   3.138   5.593   1.621  0.4306  0.2130  0.8394
 8157TIP3    H145886   3.194   5.523   1.655  0.6153 -0.5924 -1.0087
 8157TIP3    H245887   3.049   5.565   1.643  0.5891  0.1795  1.4597
 8158TIP3   OH245888   6.173   5.729   2.765 -0.5084  0.0876 -0.0726
 8158TIP3    H145889   6.112   5.799   2.790 -0.5044 -0.3791  1.3684
 8158TIP3    H245890   6.239   5.772   2.711 -0.4629  1.2216  0.8557
 8159TIP3   OH245891   5.872   0.138   2.761  0.7982  0.0957 -0.0728
 8159TIP3    H145892   5.875   0.159   2.668  1.6971  1.2009  0.1816
 8159TIP3    H245893   5.800   0.192   2.796  1.6171  1.0569  0.1722
 8160TIP3   OH245894   0.493   1.063   1.298 -0.5374 -0.1549 -0.2954
 8160TIP3    H145895   0.507   1.070   1.204  0.6117  1.2848 -0.0582
 8160TIP3    H245896   0.580   1.079   1.336 -1.1965  0.3719  1.0373
 8161TIP3   OH245897   2.759   1.075   0.095 -0.1158 -1.2930 -0.4800
 8161TIP3    H145898   2.819   1.139   0.057 -0.7395 -0.7814 -0.6141
 8161TIP3    H245899   2.807   1.037   0.169  0.1676 -0.4907 -0.2457
 8162TIP3   OH245900   4.876   6.400  11.467 -0.3127  0.5060  0.1138
 8162TIP3    H145901   4.885   6.354  11.550 -0.8389  0.8536  0.3631
 8162TIP3    H245902   4.783   6.420  11.460 -1.0990 -2.9936 -2.3802
 8163TIP3   OH245903   0.354   3.542   5.294 -0.5780 -0.0917  0.2384
 8163TIP3    H145904   0.260   3.529   5.298 -0.4858 -0.6061  0.8457
 8163TIP3    H245905   0.391   3.471   5.346  0.1780 -0.2171 -0.4493
 8164TIP3   OH245906   5.828   0.752  15.606  0.0349  0.0689  0.6065
 8164TIP3    H145907   5.829   0.816  15.677  2.4031  0.1913  0.5272
 8164TIP3    H245908   5.885   0.682  15.635  1.8642  0.5799 -1.5214
 8165TIP3   OH245909   6.600   0.163  14.372 -0.5071  0.1109 -0.2571
 8165TIP3    H145910   6.654   0.182  14.449  1.5430  0.0751 -1.5953
 8165TIP3    H245911   6.525   0.115  14.406 -0.0183  0.6815  1.7818
 8166TIP3   OH245912   1.744   5.784   5.288  0.0556 -0.5626 -0.7924
 8166TIP3    H145913   1.772   5.839   5.215 -3.0132  0.5088 -1.2861
 8166TIP3    H245914   1.779   5.827   5.366  0.5476  0.1498 -1.3967
 8167TIP3   OH245915   3.916   5.901  13.640 -0.2600  0.0593 -0.0480
 8167TIP3    H145916   3.961   5.974  13.598 -0.9658 -0.1127 -1.1334
 8167TIP3    H245917   3.985   5.850  13.683  0.5174  0.0486 -1.2911
 8168TIP3   OH245918   1.730   0.510  11.387 -0.1511  0.2497 -0.1990
 8168TIP3    H145919   1.809   0.538  11.341 -0.8501  1.3051 -0.8152
 8168TIP3    H245920   1.717   0.420  11.359  1.2001 -0.1814  0.4512
 8169TIP3   OH245921   3.488   6.186  10.825 -0.4541 -0.1739  0.0252
 8169TIP3    H145922   3.549   6.119  10.856 -0.0063  0.5428  0.7007
 8169TIP3    H245923   3.526   6.216  10.742  0.2276  0.3940  0.5260
 8170TIP3   OH245924   4.284   1.037   4.530  0.4077  0.3376  0.1094
 8170TIP3    H145925   4.307   0.996   4.447  1.3414 -1.4955  1.1846
 8170TIP3    H245926   4.366   1.073   4.563 -0.0731  1.5837 -0.0186
 8171TIP3   OH245927   0.340   0.381  12.756  0.0455  0.2754  0.1865
 8171TIP3    H145928   0.309   0.388  12.846  0.0396  0.5879  0.1616
 8171TIP3    H245929   0.353   0.288  12.742  1.2080  0.3138  0.8996
 8172TIP3   OH245930   5.127   1.643   3.765  0.0732  0.2497 -0.0318
 8172TIP3    H145931   5.147   1.730   3.728 -1.3236  0.6407  0.0423
 8172TIP3    H245932   5.037   1.626   3.735 -0.4926 -0.1700  1.7817
 8173TIP3   OH245933   5.183   4.519   2.513 -0.0291 -0.0346  0.2744
 8173TIP3    H145934   5.241   4.554   2.445 -0.3127 -0.2928 -0.1016
 8173TIP3    H245935   5.176   4.426   2.493 -1.1359  0.1142 -0.1015
 8174TIP3   OH245936   6.703   5.175   5.255  0.2923 -0.5097  0.3404
 8174TIP3    H145937   6.675   5.097   5.207  1.6440 -1.7603  1.5125
 8174TIP3    H245938   6.660   5.248   5.209 -0.4929 -1.8665 -1.1675
 8175TIP3   OH245939   1.836   3.781  11.186  0.2599 -0.6120 -0.2796
 8175TIP3    H145940   1.856   3.829  11.106  2.4281 -0.6424  0.1684
 8175TIP3    H245941   1.878   3.831  11.256 -0.7173 -1.1279  0.7076
 8176TIP3   OH245942   0.685   4.151  12.503 -0.5803  0.3371  0.0463
 8176TIP3    H145943   0.704   4.150  12.409 -0.0240  0.4592  0.1586
 8176TIP3    H245944   0.621   4.222  12.513 -1.3722 -0.2901 -0.3727
 8177TIP3   OH245945   3.521   1.021   1.905 -0.1673  0.2199 -0.2605
 8177TIP3    H145946   3.503   1.042   1.997  1.4771 -0.0745  0.1548
 8177TIP3    H245947   3.515   0.925   1.901 -0.3996  0.2430 -0.5060
 8178TIP3   OH245948   4.735   0.412  10.613  0.0529  0.1425 -0.2700
 8178TIP3    H145949   4.771   0.388  10.698 -2.5158 -1.2149  0.5641
 8178TIP3    H245950   4.745   0.507  10.608  1.7632  0.0477  0.7625
 8179TIP3   OH245951   4.605   4.124  14.489 -0.1910  0.6707  0.3870
 8179TIP3    H145952   4.608   4.197  14.427  2.8590  1.0358  0.8107
 8179TIP3    H245953   4.682   4.137  14.545  0.0002 -2.4364  1.0049
 8180TIP3   OH245954   3.275   1.764   6.727 -0.5618 -1.0652  0.6248
 8180TIP3    H145955   3.196   1.814   6.747  0.1679  0.8453 -0.9432
 8180TIP3    H245956   3.347   1.823   6.747  0.5351 -2.7431  1.9531
 8181TIP3   OH245957   6.682   4.067  10.705  0.2592  0.7036  0.1901
 8181TIP3    H145958   6.760   4.030  10.664 -0.3868 -0.3540 -0.1218
 8181TIP3    H245959   6.611   4.006  10.683 -0.3099  0.6132  2.0409
 8182TIP3   OH245960   6.361   5.088  13.128 -0.3302  0.0161  0.6194
 8182TIP3    H145961   6.280   5.065  13.175 -0.5835  0.2412  0.2953
 8182TIP3    H245962   6.392   5.005  13.092 -0.7512  0.0249  0.2244
 8183TIP3   OH245963   4.153   3.711   1.477 -0.9333 -0.7390 -0.3609
 8183TIP3    H145964   4.231   3.742   1.522 -0.7020 -0.4790 -0.9313
 8183TIP3    H245965   4.122   3.786   1.427  0.5762 -1.7919 -3.0850
 8184TIP3   OH245966   5.674   2.023   3.924 -0.5782 -0.6050  0.6127
 8184TIP3    H145967   5.678   1.966   4.001  1.2283 -1.4296 -0.0412
 8184TIP3    H245968   5.724   1.976   3.857  0.3390  1.4212 -0.1811
 8185TIP3   OH245969   0.073   2.372  14.734 -0.3413 -0.2621  0.1224
 8185TIP3    H145970   0.088   2.289  14.779 -1.0691  0.5362  1.9496
 8185TIP3    H245971   0.126   2.366  14.654  1.0047 -1.7777  1.0595
 8186TIP3   OH245972   2.688   5.304   3.293  0.4472 -0.0898 -0.0993
 8186TIP3    H145973   2.705   5.295   3.387  2.6135  0.8594 -0.3495
 8186TIP3    H245974   2.683   5.398   3.278 -3.0851 -0.2124 -0.5024
 8187TIP3   OH245975   3.767   6.703  13.238 -0.2905  0.3282 -1.2220
 8187TIP3    H145976   3.694   6.754  13.204 -0.4003  1.6021  0.7531
 8187TIP3    H245977   3.748   6.694  13.331  2.0184  0.6347 -0.6634
 8188TIP3   OH245978   5.735   6.750  15.541 -0.5449 -0.1912 -0.0118
 8188TIP3    H145979   5.788   6.801  15.479  1.2902 -0.9294  0.8867
 8188TIP3    H245980   5.644   6.764  15.512  0.2096 -0.2482 -2.6417
 8189TIP3   OH245981   2.148   1.266  13.258  0.1592  0.4212  0.0618
 8189TIP3    H145982   2.064   1.250  13.303  0.9842  3.0559  2.9073
 8189TIP3    H245983   2.150   1.360  13.245  2.4095  0.3388 -0.5488
 8190TIP3   OH245984   2.808   4.279   3.313 -0.1692 -0.0257 -0.4642
 8190TIP3    H145985   2.762   4.306   3.234 -0.2650  0.9376 -0.0976
 8190TIP3    H245986   2.811   4.183   3.309 -0.4043  0.0088 -1.4905
 8191TIP3   OH245987   5.708   5.265   1.608 -0.2097 -0.2762  0.3325
 8191TIP3    H145988   5.635   5.207   1.587 -0.0649 -0.6929  0.9554
 8191TIP3    H245989   5.779   5.235   1.551 -0.7604  0.6908 -0.9128
 8192TIP3   OH245990   1.383   0.474   6.072 -0.1920  0.3193  0.0602
 8192TIP3    H145991   1.424   0.531   6.008 -0.7153  1.1607  0.4548
 8192TIP3    H245992   1.456   0.431   6.117  0.2620  1.7464  0.7194
 8193TIP3   OH245993   5.814   3.242  12.474 -0.5305 -0.1043  0.3616
 8193TIP3    H145994   5.812   3.329  12.515 -0.5108 -0.7830  1.8572
 8193TIP3    H245995   5.744   3.194  12.516  0.9186 -1.5361  1.2331
 8194TIP3   OH245996   0.144   0.785  13.200  1.0906  0.0046 -0.2189
 8194TIP3    H145997   0.117   0.811  13.288  0.5202 -0.7750 -0.1518
 8194TIP3    H245998   0.196   0.858  13.169  0.0346  0.9663  0.1842
 8195TIP3   OH245999   2.300   2.167  13.141  0.4268 -0.7147 -0.2957
 8195TIP3    H146000   2.262   2.197  13.223  0.4047  0.1972 -0.6346
 8195TIP3    H246001   2.385   2.210  13.137 -0.4871  1.0637 -1.8119
 8196TIP3   OH246002   4.172   3.185   0.823 -0.0089  0.2278  0.2831
 8196TIP3    H146003   4.245   3.124   0.809  0.1203  0.4877 -0.1976
 8196TIP3    H246004   4.193   3.229   0.905  0.3823  0.3098  0.1403
 8197TIP3   OH246005   2.834   4.246   4.368 -0.6001  0.5654 -0.2509
 8197TIP3    H146006   2.914   4.252   4.315 -1.0305  1.9100 -0.7845
 8197TIP3    H246007   2.792   4.331   4.357 -2.1052 -0.1157  0.0380
 8198TIP3   OH246008   2.962   0.960   0.303  0.3668  0.0077  0.0849
 8198TIP3    H146009   3.046   0.938   0.343  0.2071  0.2951  0.5758
 8198TIP3    H246010   2.943   0.886   0.245  0.9441 -0.0693 -0.0044
 8199TIP3   OH246011   0.578   6.282   2.989  0.4086  0.4667 -0.3557
 8199TIP3    H146012   0.522   6.204   2.992  2.2148 -0.8898  0.1779
 8199TIP3    H246013   0.517   6.355   2.983 -1.4650 -0.8564  1.1693
 8200TIP3   OH246014   4.086   4.631  14.833 -0.3283  0.2836 -0.0227
 8200TIP3    H146015   4.028   4.592  14.768 -1.9530  3.1917 -0.5237
 8200TIP3    H246016   4.164   4.657  14.785  0.4339 -1.5514  0.1699
 8201TIP3   OH246017   3.432   3.300   0.769  0.3040 -0.0423 -0.0465
 8201TIP3    H146018   3.426   3.395   0.781 -0.0026 -0.0643 -0.0075
 8201TIP3    H246019   3.525   3.280   0.780  0.3035  0.1914  0.4015
 8202TIP3   OH246020   4.839   5.047  12.877  0.3488  0.2259 -0.3334
 8202TIP3    H146021   4.902   5.102  12.829 -0.2249 -0.7269 -2.2465
 8202TIP3    H246022   4.810   4.982  12.814 -1.1081 -0.5797  1.0893
 8203TIP3   OH246023   1.936   1.128   4.705  0.7970  0.3533 -0.7689
 8203TIP3    H146024   2.016   1.137   4.757  0.5019 -1.0692 -0.0021
 8203TIP3    H246025   1.865   1.139   4.769  0.4286 -0.7290 -0.9629
 8204TIP3   OH246026   4.655   4.460  16.838  0.0865  0.3963 -0.2489
 8204TIP3    H146027   4.715   4.483  16.909  1.7751 -0.6086 -1.2799
 8204TIP3    H246028   4.622   4.373  16.861 -0.0844  0.4650 -0.2370
 8205TIP3   OH246029   5.708   5.571   2.211  0.1654 -0.2263  0.6134
 8205TIP3    H146030   5.796   5.594   2.183 -0.1657 -1.2364 -1.3849
 8205TIP3    H246031   5.682   5.643   2.270  2.1013  0.3412  0.8293
 8206TIP3   OH246032   4.616   2.763   0.417  0.2146  0.1012  0.0025
 8206TIP3    H146033   4.628   2.669   0.421 -3.1169 -0.5282 -1.5378
 8206TIP3    H246034   4.664   2.791   0.339  2.1011 -0.0427  1.0434
 8207TIP3   OH246035   1.748   0.786   6.200 -0.4747  0.1827 -0.0432
 8207TIP3    H146036   1.661   0.820   6.223  0.8023  2.9105  1.1296
 8207TIP3    H246037   1.778   0.742   6.280 -0.4428 -0.0768 -0.1958
 8208TIP3   OH246038   1.607   2.417   2.225  0.1661  0.2051  0.6449
 8208TIP3    H146039   1.513   2.406   2.243 -0.1506  2.4689  0.7263
 8208TIP3    H246040   1.611   2.432   2.130  0.7520 -2.1535  0.2451
 8209TIP3   OH246041   5.365   6.481   4.997  0.1021  0.3451 -0.2280
 8209TIP3    H146042   5.270   6.495   5.003 -0.0588 -0.9326  0.6058
 8209TIP3    H246043   5.402   6.537   5.065 -0.2203 -0.4808  0.6475
 8210TIP3   OH246044   6.179   5.271   5.969  0.4517 -0.1462  0.5654
 8210TIP3    H146045   6.226   5.306   6.044  1.3171 -1.6655  0.7828
 8210TIP3    H246046   6.238   5.206   5.931 -0.6300 -0.6030 -0.4278
 8211TIP3   OH246047   0.226   0.010   3.066  0.1636 -0.1860 -0.2955
 8211TIP3    H146048   0.280   0.033   2.991 -1.8100 -0.3076 -1.8347
 8211TIP3    H246049   0.171   0.087   3.081  1.5958  0.4883  2.1319
 8212TIP3   OH246050   5.921   6.203   0.301  0.0988 -0.0891  0.2022
 8212TIP3    H146051   5.939   6.268   0.232 -1.2160  0.3189  0.2157
 8212TIP3    H246052   5.946   6.247   0.382  0.6337 -0.1683  0.0842
 8213TIP3   OH246053   5.395   6.019   5.062  0.9396  0.0476 -0.3576
 8213TIP3    H146054   5.402   5.936   5.108 -0.5411 -0.2832 -0.6667
 8213TIP3    H246055   5.352   5.996   4.979 -1.9655  1.4094  0.6242
 8214TIP3   OH246056   4.697   4.641  10.838 -0.0853 -0.4263  0.0997
 8214TIP3    H146057   4.675   4.734  10.832 -0.6621 -0.5543  0.1656
 8214TIP3    H246058   4.769   4.630  10.777 -0.8768 -0.1924 -0.9032
 8215TIP3   OH246059   3.496   4.264  11.832  0.4758 -0.6769  0.1996
 8215TIP3    H146060   3.481   4.198  11.764 -1.6167  1.9366 -2.1295
 8215TIP3    H246061   3.564   4.321  11.795  0.7467 -0.3349  1.2127
 8216TIP3   OH246062   1.774   6.443   1.813  0.1780 -0.1559  0.3625
 8216TIP3    H146063   1.736   6.359   1.839  1.9696 -0.5067  2.0643
 8216TIP3    H246064   1.746   6.454   1.722 -3.3440 -0.6656  1.2449
 8217TIP3   OH246065   1.879   4.351   6.302  0.3311 -0.0749  0.1578
 8217TIP3    H146066   1.930   4.428   6.324  0.4185 -0.3529  0.9810
 8217TIP3    H246067   1.944   4.285   6.278  0.2036  0.4540 -1.7740
 8218TIP3   OH246068   1.816   6.805  13.721  0.2845  0.0011  0.0608
 8218TIP3    H146069   1.906   6.773  13.729  0.6851  1.4601  1.8767
 8218TIP3    H246070   1.762   6.736  13.759  0.6357 -0.7678 -0.8020
 8219TIP3   OH246071   0.616   1.243   0.620 -0.0111 -0.4780  0.8964
 8219TIP3    H146072   0.608   1.338   0.614  0.0395 -0.5630 -1.1694
 8219TIP3    H246073   0.702   1.229   0.660  0.1992  0.3541  0.7508
 8220TIP3   OH246074   3.801   1.870   4.771 -0.4462  0.1632 -0.2859
 8220TIP3    H146075   3.786   1.951   4.723 -1.0864 -0.8489 -1.8717
 8220TIP3    H246076   3.889   1.843   4.745 -0.5923 -0.1240 -0.4821
 8221TIP3   OH246077   0.990   2.007   4.614  0.5551  0.5301 -0.1432
 8221TIP3    H146078   1.041   2.075   4.569  0.2544  1.2230  0.5430
 8221TIP3    H246079   1.050   1.974   4.682  0.3421  0.8533  0.2063
 8222TIP3   OH246080   3.563   4.229  13.040  0.2331  0.1833 -0.3576
 8222TIP3    H146081   3.541   4.170  13.111 -0.9173  2.1499  1.0092
 8222TIP3    H246082   3.539   4.181  12.961 -2.1150 -0.6261  0.7534
 8223TIP3   OH246083   5.656   5.515   5.266  0.1139 -0.2702 -0.2272
 8223TIP3    H146084   5.637   5.492   5.175  2.0841  1.6448 -1.2263
 8223TIP3    H246085   5.725   5.454   5.292 -1.0738 -1.4083  0.3319
 8224TIP3   OH246086   2.017   2.783  15.840  0.4886 -0.1849  0.1944
 8224TIP3    H146087   1.984   2.699  15.871  0.4224 -0.5466 -0.8269
 8224TIP3    H246088   2.112   2.776  15.851  0.5917 -0.8539 -0.9432
 8225TIP3   OH246089   4.991   4.709   1.722 -0.1626  0.3394  0.1488
 8225TIP3    H146090   4.977   4.667   1.637  1.7683 -0.3909  0.1474
 8225TIP3    H246091   5.036   4.643   1.774 -0.0887  1.2637  1.2878
 8226TIP3   OH246092   5.679   6.384   1.265  0.1413  0.1629  0.7377
 8226TIP3    H146093   5.733   6.351   1.193 -0.5231  0.3548  0.1409
 8226TIP3    H246094   5.607   6.321   1.272  1.1017 -0.8324  2.4009
 8227TIP3   OH246095   0.989   4.013  16.094  0.1079 -0.2342 -0.7914
 8227TIP3    H146096   0.899   4.005  16.065  0.3062  0.1849 -1.5716
 8227TIP3    H246097   1.021   4.093  16.052  0.4763  0.3119  0.4608
 8228TIP3   OH246098   0.598   5.895   3.286  0.3903  0.0129  0.4293
 8228TIP3    H146099   0.569   5.855   3.204 -1.5511  2.1080  0.0136
 8228TIP3    H246100   0.525   5.882   3.346 -0.0882  2.3492  0.4359
 8229TIP3   OH246101   1.521   0.846   0.098 -0.7196  0.0675 -0.0307
 8229TIP3    H146102   1.445   0.849   0.156  0.2188  0.4312  1.2201
 8229TIP3    H246103   1.588   0.895   0.144  0.3081 -0.3075 -1.0833
 8230TIP3   OH246104   3.274   0.743   0.105 -0.1407 -0.3419 -0.4435
 8230TIP3    H146105   3.257   0.750   0.011 -0.5059  2.9101 -0.2518
 8230TIP3    H246106   3.296   0.832   0.132  1.9861 -1.5367  2.2338
 8231TIP3   OH246107   1.697   4.552  12.670 -0.1477  0.3979  0.1764
 8231TIP3    H146108   1.789   4.527  12.681 -0.0706  0.5042 -0.1858
 8231TIP3    H246109   1.657   4.478  12.624  0.1943  1.1052 -1.3348
 8232TIP3   OH246110   1.302   2.687   1.688 -0.3574  0.4580 -0.4040
 8232TIP3    H146111   1.390   2.710   1.657  1.1718 -2.3879  1.3164
 8232TIP3    H246112   1.295   2.730   1.773 -0.4205  0.3201 -0.3385
 8233TIP3   OH246113   0.670   0.563   0.352  0.1626  0.0129  0.0423
 8233TIP3    H146114   0.706   0.569   0.264 -0.4015  0.3388 -0.1760
 8233TIP3    H246115   0.699   0.643   0.396 -0.7547  0.5646 -0.3210
 8234TIP3   OH246116   3.087   4.790   1.675 -0.3965  0.3003 -0.0413
 8234TIP3    H146117   3.118   4.814   1.587 -1.4077  0.4347 -0.3752
 8234TIP3    H246118   3.017   4.853   1.694  0.0294  0.4832  1.0084
 8235TIP3   OH246119   0.415   0.585  13.246 -0.0905  0.4478  0.5048
 8235TIP3    H146120   0.394   0.573  13.338  2.1020 -0.3828  0.9391
 8235TIP3    H246121   0.388   0.676  13.227 -0.6730  0.5880  1.8948
 8236TIP3   OH246122   4.423   0.681  11.768 -0.1495  0.2956  0.6321
 8236TIP3    H146123   4.334   0.679  11.734  0.3569 -1.9811 -0.7575
 8236TIP3    H246124   4.418   0.635  11.852 -0.1255 -0.8430  0.0281
 8237TIP3   OH246125   5.995   2.841   2.267 -0.1473  0.0557  0.2983
 8237TIP3    H146126   5.941   2.798   2.333 -0.2437 -0.4293 -0.0902
 8237TIP3    H246127   5.967   2.933   2.268 -0.8738 -0.1628  0.2079
 8238TIP3   OH246128   1.373   1.395   4.322  0.4365  0.4756  0.3648
 8238TIP3    H146129   1.312   1.357   4.384  0.1809  0.0122 -0.1656
 8238TIP3    H246130   1.326   1.470   4.285 -0.0270 -0.2089 -0.4475
 8239TIP3   OH246131   1.920   2.053   0.921  0.1468  0.3573  0.1671
 8239TIP3    H146132   1.935   2.147   0.925 -0.5381  0.4786  0.0028
 8239TIP3    H246133   1.826   2.044   0.906  0.4392 -0.3214 -1.4240
 8240TIP3   OH246134   3.877   2.415  13.061  0.4085  0.3982  0.3962
 8240TIP3    H146135   3.832   2.350  13.007  0.5478  0.3047  0.3926
 8240TIP3    H246136   3.927   2.467  12.999 -0.9037  1.5043  0.2111
 8241TIP3   OH246137   0.155   3.610  14.382 -0.0431 -0.4890 -0.1798
 8241TIP3    H146138   0.166   3.605  14.477  0.2492 -1.3746 -0.2466
 8241TIP3    H246139   0.091   3.679  14.369 -0.3762 -0.6190  0.6842
 8242TIP3   OH246140   3.724   3.009  13.527 -0.1202  0.1060  0.5157
 8242TIP3    H146141   3.641   3.048  13.552 -0.1474  1.4586 -1.3838
 8242TIP3    H246142   3.704   2.957  13.449  0.8085  0.6815 -0.1406
 8243TIP3   OH246143   3.570   0.030   5.234 -0.1848 -0.1981  0.5140
 8243TIP3    H146144   3.552   0.040   5.327  0.6680  0.4542  0.6172
 8243TIP3    H246145   3.587   0.119   5.203  0.1954 -0.4866 -0.1256
 8244TIP3   OH246146   4.141   2.798   4.371  0.0738 -0.4910  0.1231
 8244TIP3    H146147   4.216   2.770   4.424  1.4339  0.4593 -1.2155
 8244TIP3    H246148   4.066   2.792   4.431  1.2122 -1.4037  1.5238
 8245TIP3   OH246149   5.834   1.394   1.078  0.2838  0.5169 -0.3176
 8245TIP3    H146150   5.859   1.487   1.078 -0.4893  0.7713  1.4663
 8245TIP3    H246151   5.905   1.350   1.123 -0.2784  0.5746  0.6659
 8246TIP3   OH246152   0.474   4.278   5.406 -0.0374  0.1331 -0.1015
 8246TIP3    H146153   0.539   4.223   5.450  2.7921  3.4108  0.2557
 8246TIP3    H246154   0.425   4.319   5.477 -1.8078 -1.3948 -0.3569
 8247TIP3   OH246155   1.050   0.258  12.504  0.2348  0.5627 -0.2918
 8247TIP3    H146156   1.102   0.322  12.552  2.7836  0.6895 -2.9501
 8247TIP3    H246157   1.025   0.303  12.423 -0.8533 -0.7424 -0.7225
 8248TIP3   OH246158   5.397   2.202   5.111  0.4781  0.3391 -0.2316
 8248TIP3    H146159   5.324   2.226   5.054  0.2270  0.1895  0.0234
 8248TIP3    H246160   5.451   2.280   5.115 -0.2412  0.8213  0.4577
 8249TIP3   OH246161   4.254   1.242  11.932  0.5956  0.0638 -0.1776
 8249TIP3    H146162   4.328   1.303  11.930  0.5734  0.1793  1.5091
 8249TIP3    H246163   4.228   1.239  12.024  0.3832 -2.2609 -0.2702
 8250TIP3   OH246164   5.957   6.018  15.055  0.1234  0.2115 -0.1410
 8250TIP3    H146165   5.897   5.965  15.107  0.7472 -1.3773 -0.9487
 8250TIP3    H246166   6.041   5.971  15.061  0.8838  1.5019 -0.3287
 8251TIP3   OH246167   3.144   6.581  13.316  0.1847  0.2998  0.0479
 8251TIP3    H146168   3.149   6.666  13.272  0.2635  0.5646  0.5494
 8251TIP3    H246169   3.050   6.566  13.328  0.1866  0.5414  0.3761
 8252TIP3   OH246170   0.567   1.850  12.944  0.1892 -0.0248  0.2838
 8252TIP3    H146171   0.626   1.914  12.984 -0.1841 -0.0623  0.9141
 8252TIP3    H246172   0.532   1.801  13.019  0.3547 -0.8587 -0.1801
 8253TIP3   OH246173   2.596   4.983   2.223  0.2796  0.3533  0.2072
 8253TIP3    H146174   2.602   4.904   2.169 -2.5587 -0.0927  0.3959
 8253TIP3    H246175   2.510   4.976   2.265  0.3894  3.0566  1.0122
 8254TIP3   OH246176   5.524   5.749   1.286  0.2284 -0.3497 -0.4983
 8254TIP3    H146177   5.618   5.760   1.270  0.0303  1.1892 -0.7749
 8254TIP3    H246178   5.482   5.805   1.220 -0.8694 -0.6595 -0.0793
 8255TIP3   OH246179   4.622   4.070   3.659 -0.2359 -0.6557 -0.2505
 8255TIP3    H146180   4.717   4.063   3.646  0.0755 -3.1659  2.3665
 8255TIP3    H246181   4.613   4.119   3.741 -1.4670  2.3915 -2.0268
 8256TIP3   OH246182   5.370   2.141  12.186 -0.8848  0.4839  0.5512
 8256TIP3    H146183   5.341   2.084  12.257  0.1299  0.9304  1.3627
 8256TIP3    H246184   5.343   2.097  12.106 -0.8283 -0.7368  1.1867
 8257TIP3   OH246185   3.566   4.977   5.018 -0.0905  0.3783 -0.4107
 8257TIP3    H146186   3.512   4.950   4.943 -0.9073  1.3062 -0.1752
 8257TIP3    H246187   3.582   4.896   5.066 -3.4692  0.3453  0.9335
 8258TIP3   OH246188   0.264   0.898   1.368 -0.3613  0.0514  0.0210
 8258TIP3    H146189   0.262   0.858   1.282 -0.6331 -1.1305  0.5561
 8258TIP3    H246190   0.350   0.941   1.374 -0.0042 -0.5896 -0.5093
 8259TIP3   OH246191   0.990   6.728  14.910  0.3890  0.1687 -0.2364
 8259TIP3    H146192   0.974   6.777  14.990  1.7575  0.0512  0.1443
 8259TIP3    H246193   0.915   6.668  14.902  0.2409  0.1753  0.9582
 8260TIP3   OH246194   6.459   6.549  13.720  0.2213  0.3612  0.5277
 8260TIP3    H146195   6.468   6.587  13.807  2.3753  1.6015 -0.1421
 8260TIP3    H246196   6.546   6.559  13.680 -0.3944 -1.1279 -1.3919
 8261TIP3   OH246197   2.908   5.502   2.877 -0.3641  0.0370 -0.0192
 8261TIP3    H146198   2.874   5.428   2.927 -2.0127 -0.6457 -1.9859
 8261TIP3    H246199   2.845   5.572   2.891  0.0937  0.4088  0.2146
 8262TIP3   OH246200   2.190   0.952  14.725  0.4559  0.1734 -0.9407
 8262TIP3    H146201   2.247   0.917  14.793 -0.8125  0.7955  0.5047
 8262TIP3    H246202   2.250   0.981  14.656  2.0095  1.7577  0.9374
 8263TIP3   OH246203   0.009   1.166   0.584  0.2010  0.4105 -0.0462
 8263TIP3    H146204  -0.039   1.170   0.501  0.9813 -0.6532 -0.5782
 8263TIP3    H246205   0.048   1.253   0.594  0.0374  0.5726 -0.7646
 8264TIP3   OH246206   3.723   2.518   1.590  0.1821  0.0208 -0.5522
 8264TIP3    H146207   3.667   2.440   1.595 -1.1569  1.0260  1.1136
 8264TIP3    H246208   3.663   2.591   1.585  1.3522  1.1001  0.4098
 8265TIP3   OH246209   6.243   2.076   2.031 -0.6452  0.1481  0.5441
 8265TIP3    H146210   6.316   2.093   2.091 -1.7758 -0.1876  2.0642
 8265TIP3    H246211   6.244   1.981   2.019 -1.1584  0.0866  0.9931
 8266TIP3   OH246212   5.722   2.292  13.417 -0.0541 -0.8018 -0.0278
 8266TIP3    H146213   5.732   2.318  13.325 -0.5388  0.9699  0.3708
 8266TIP3    H246214   5.701   2.199  13.414 -0.5578 -0.6724 -1.7537
 8267TIP3   OH246215   1.150   5.232  15.114  0.1875  0.4711 -0.2149
 8267TIP3    H146216   1.190   5.309  15.154 -0.6137  0.5183  0.5433
 8267TIP3    H246217   1.110   5.185  15.188 -1.1192  0.4285 -0.9089
 8268TIP3   OH246218   2.669   1.702   2.535 -0.0551 -0.0591 -0.2956
 8268TIP3    H146219   2.715   1.633   2.583  0.9222 -0.2258 -1.4055
 8268TIP3    H246220   2.682   1.781   2.587 -0.4851 -0.5499  0.5710
 8269TIP3   OH246221   5.542   2.714  13.290  0.0747 -0.4347 -0.3107
 8269TIP3    H146222   5.632   2.683  13.289  0.8191  1.5331  0.3361
 8269TIP3    H246223   5.546   2.798  13.337 -1.6108  1.0756 -2.6283
 8270TIP3   OH246224   1.427   0.442   4.959 -0.0718 -0.3387 -0.0980
 8270TIP3    H146225   1.495   0.390   4.916  0.2188 -0.0015 -0.0542
 8270TIP3    H246226   1.356   0.446   4.896 -0.2901 -1.1931  0.0892
 8271TIP3   OH246227   1.886   4.916  10.588 -0.2923  0.1964  0.0321
 8271TIP3    H146228   1.956   4.918  10.523 -1.7068  1.2298 -1.5424
 8271TIP3    H246229   1.868   5.008  10.606 -0.7114 -0.0742  1.0300
 8272TIP3   OH246230   4.270   6.604   5.404 -0.2973  0.2390  0.6576
 8272TIP3    H146231   4.290   6.672   5.469 -2.5089 -0.1864  1.8583
 8272TIP3    H246232   4.181   6.623   5.376 -0.6700 -1.6907  0.4293
 8273TIP3   OH246233   3.853   2.980  15.580  0.6434 -0.3469  0.0675
 8273TIP3    H146234   3.766   2.945  15.558 -0.1177  1.2322  0.4325
 8273TIP3    H246235   3.880   2.929  15.656  0.1224 -0.9916 -0.1649
 8274TIP3   OH246236   6.526   5.197  13.297 -0.3875 -0.0601 -0.1870
 8274TIP3    H146237   6.461   5.160  13.238  0.2174 -1.8850  0.2404
 8274TIP3    H246238   6.582   5.251  13.240 -1.8684  1.0523 -0.6473
 8275TIP3   OH246239   0.925   3.761  11.347 -0.5280  0.3737 -0.3952
 8275TIP3    H146240   0.843   3.769  11.298 -0.0062  1.1909 -1.1561
 8275TIP3    H246241   0.908   3.806  11.430 -1.3985 -0.9648  0.1936
 8276TIP3   OH246242   4.123   0.772   1.022 -0.3785  0.0305 -0.1633
 8276TIP3    H146243   4.092   0.694   1.069  0.0478  0.4864  0.9028
 8276TIP3    H246244   4.063   0.780   0.948 -1.1613 -0.6287  0.3738
 8277TIP3   OH246245   3.649   3.106  15.171 -0.6239 -0.6616  0.0578
 8277TIP3    H146246   3.575   3.071  15.221 -1.2880  0.5967 -0.0114
 8277TIP3    H246247   3.726   3.083  15.222 -1.2187 -0.2687  1.1550
 8278TIP3   OH246248   0.291   6.562  11.062  0.5767 -0.3750  0.0087
 8278TIP3    H146249   0.267   6.616  11.138 -1.0363 -2.1278  0.8215
 8278TIP3    H246250   0.349   6.618  11.011  0.1203  1.6039  1.5126
 8279TIP3   OH246251   6.345   2.967  14.408  0.1119 -0.0346  0.4387
 8279TIP3    H146252   6.289   3.009  14.343  0.6035  0.5930  0.4033
 8279TIP3    H246253   6.362   2.880  14.373  0.8835  0.5052 -0.6037
 8280TIP3   OH246254   0.799   2.922   3.521 -0.1382 -0.2157  0.8332
 8280TIP3    H146255   0.708   2.942   3.546 -0.9416 -0.9779 -1.2324
 8280TIP3    H246256   0.822   2.990   3.458  0.1341 -0.9273  0.1470
 8281TIP3   OH246257   5.326   3.868  12.451 -0.2454  0.2351  0.1691
 8281TIP3    H146258   5.363   3.781  12.463  0.9722  0.5480 -1.0946
 8281TIP3    H246259   5.391   3.927  12.489 -0.9212  0.6309  0.7447
 8282TIP3   OH246260   4.008   2.333  12.249  0.3806  0.6227  0.5600
 8282TIP3    H146261   3.946   2.362  12.182  1.0225 -1.0531 -0.8553
 8282TIP3    H246262   4.094   2.350  12.210  0.7787  0.1354  1.2104
 8283TIP3   OH246263   1.698   0.417  15.951  0.1121  0.1666  0.1876
 8283TIP3    H146264   1.727   0.330  15.926  1.6596 -0.5478  3.8657
 8283TIP3    H246265   1.618   0.403  16.001  1.0849  0.6109  1.9611
 8284TIP3   OH246266   2.188   6.327  16.171 -0.2865  0.4223 -0.1037
 8284TIP3    H146267   2.278   6.331  16.137 -0.3162  0.7831 -0.1434
 8284TIP3    H246268   2.150   6.411  16.147 -0.9108 -0.0537 -0.8449
 8285TIP3   OH246269   3.231   1.496  12.048  0.5242 -0.1259  0.2370
 8285TIP3    H146270   3.150   1.480  12.097  0.3808 -1.1964 -0.3207
 8285TIP3    H246271   3.201   1.523  11.962  0.7749  2.0998  0.7887
 8286TIP3   OH246272   4.485   1.326   1.764 -0.4556  0.2342  0.4215
 8286TIP3    H146273   4.441   1.243   1.783  1.5359 -0.9174  0.3539
 8286TIP3    H246274   4.549   1.303   1.696 -2.0037  2.5340 -2.0037
 8287TIP3   OH246275   2.759   0.755   2.886  0.2978  0.0865 -0.2181
 8287TIP3    H146276   2.716   0.669   2.883  0.3977 -0.0409  1.2356
 8287TIP3    H246277   2.796   0.760   2.974  1.0378  1.2731 -0.5796
 8288TIP3   OH246278   4.767   5.576  16.858 -0.1732 -0.9994 -0.2503
 8288TIP3    H146279   4.793   5.626  16.935 -0.5002 -0.9070 -0.1962
 8288TIP3    H246280   4.804   5.489  16.873 -0.0567 -0.9230 -0.0877
 8289TIP3   OH246281   2.346   5.975   1.020 -0.2354  0.1832  0.4158
 8289TIP3    H146282   2.302   5.980   0.935  0.8930  0.2685 -0.1857
 8289TIP3    H246283   2.323   6.057   1.064 -1.0155  0.0353  0.2881
 8290TIP3   OH246284   2.678   3.487   1.707 -0.6040 -0.0901 -0.0088
 8290TIP3    H146285   2.618   3.420   1.741  0.4332 -0.0657  2.0115
 8290TIP3    H246286   2.742   3.499   1.777  0.5577  1.3828 -1.2717
 8291TIP3   OH246287   5.289   2.192  16.723 -0.5653  0.2605  0.6294
 8291TIP3    H146288   5.277   2.177  16.817 -0.6987  0.6683  0.6822
 8291TIP3    H246289   5.213   2.246  16.698  0.1985  1.3543  0.5822
 8292TIP3   OH246290   5.677   2.770   4.176 -0.0867 -0.0579 -0.0909
 8292TIP3    H146291   5.730   2.845   4.151 -1.1853  0.6993 -0.2134
 8292TIP3    H246292   5.734   2.717   4.232  0.3603  1.4024  0.8641
 8293TIP3   OH246293   6.485   2.344  12.199 -1.1496  0.3721 -0.3936
 8293TIP3    H146294   6.444   2.350  12.285 -0.0895  0.2401  0.1379
 8293TIP3    H246295   6.507   2.251  12.190 -1.1148  0.4144 -0.7436
 8294TIP3   OH246296   3.303   1.809   3.104 -0.2504  0.7156 -0.2750
 8294TIP3    H146297   3.268   1.720   3.103 -1.8533  1.2648  1.0605
 8294TIP3    H246298   3.301   1.837   3.013  2.2334 -1.2549 -1.0553
 8295TIP3   OH246299   1.977   6.680   1.146  0.1329  0.1680  0.3502
 8295TIP3    H146300   2.013   6.599   1.182 -0.8935 -0.7533 -0.6142
 8295TIP3    H246301   1.975   6.741   1.220  1.0146 -0.6455  1.0660
 8296TIP3   OH246302   1.637   4.718  14.405 -0.0843  0.6475 -0.0381
 8296TIP3    H146303   1.661   4.732  14.314 -2.7859 -0.3712 -0.9922
 8296TIP3    H246304   1.646   4.805  14.446  2.0472  0.9233 -0.9788
 8297TIP3   OH246305   4.299   4.966   3.689 -0.1943 -0.2713 -0.1129
 8297TIP3    H146306   4.253   4.905   3.747 -1.3919  0.4514 -0.2673
 8297TIP3    H246307   4.316   4.914   3.610 -0.6826 -0.5896 -0.0208
 8298TIP3   OH246308   0.024   2.828   0.019  0.0925 -0.1141  0.1018
 8298TIP3    H146309   0.055   2.888  -0.048  1.3303 -1.6249 -0.7403
 8298TIP3    H246310   0.095   2.764   0.030 -1.8642 -2.5690 -0.4801
 8299TIP3   OH246311   3.525   6.174  16.220 -0.7664  0.2217 -0.5642
 8299TIP3    H146312   3.444   6.204  16.178  0.3392  3.2655 -0.7664
 8299TIP3    H246313   3.539   6.235  16.292  1.4687 -0.0630 -0.6816
 8300TIP3   OH246314   6.184   4.400   1.105  0.1313  0.9278 -0.3003
 8300TIP3    H146315   6.094   4.377   1.081  0.1112  1.1813 -0.4695
 8300TIP3    H246316   6.236   4.324   1.078 -0.3996 -0.5892  2.5369
 8301TIP3   OH246317   0.384   0.710  15.548  0.1070 -0.3782 -0.5534
 8301TIP3    H146318   0.322   0.778  15.521  0.3636 -0.6138 -1.8135
 8301TIP3    H246319   0.382   0.647  15.475  1.4620 -0.6343 -0.3803
 8302TIP3   OH246320   4.823   4.853   1.418  0.1569 -0.3043  0.4158
 8302TIP3    H146321   4.821   4.820   1.328  1.0304 -0.0517  0.2978
 8302TIP3    H246322   4.915   4.848   1.443  0.5723  3.0446  0.0126
 8303TIP3   OH246323   5.862   5.050   0.508 -0.4505  0.0821 -0.2770
 8303TIP3    H146324   5.886   5.128   0.558  0.4090  0.8091 -1.7444
 8303TIP3    H246325   5.871   5.077   0.416 -0.4154 -1.6691 -0.8246
 8304TIP3   OH246326   2.410   2.177  14.153  0.7346  0.1150  0.0222
 8304TIP3    H146327   2.473   2.221  14.210 -0.4791 -0.8502  2.2695
 8304TIP3    H246328   2.354   2.128  14.214 -3.0608  1.9544 -1.6044
 8305TIP3   OH246329   1.870   2.757   2.934  0.7787  0.0364  0.2125
 8305TIP3    H146330   1.870   2.783   2.842  0.0600  1.1101  0.5044
 8305TIP3    H246331   1.892   2.663   2.932 -1.3893 -0.5109 -1.1987
 8306TIP3   OH246332   6.795   1.871   0.338  0.3679  0.0519 -0.2269
 8306TIP3    H146333   6.806   1.777   0.322  0.5025  0.3465 -2.0543
 8306TIP3    H246334   6.867   1.912   0.290 -0.6119  1.1846 -0.7802
 8307TIP3   OH246335   5.546   1.612  15.320 -0.1425 -0.1997 -0.6232
 8307TIP3    H146336   5.574   1.522  15.307 -1.3037 -0.2555 -3.2624
 8307TIP3    H246337   5.454   1.614  15.295 -0.2545  1.6575 -0.2711
 8308TIP3   OH246338   0.401   5.158   6.413 -0.2397 -0.0364  0.2134
 8308TIP3    H146339   0.495   5.152   6.429 -0.0299 -0.5723 -1.0913
 8308TIP3    H246340   0.360   5.141   6.498  0.8352  0.1340  0.7757
 8309TIP3   OH246341   1.213   2.858  10.779 -0.3611  0.0208  0.1085
 8309TIP3    H146342   1.155   2.813  10.718 -0.9351 -1.1697  1.4636
 8309TIP3    H246343   1.228   2.944  10.739 -1.7327 -0.2497 -1.0780
 8310TIP3   OH246344   1.289   0.540   0.552  0.1945  0.5059 -0.2359
 8310TIP3    H146345   1.253   0.542   0.464  3.1485  0.4338 -1.5637
 8310TIP3    H246346   1.289   0.448   0.577 -1.0407  0.5707  0.0653
 8311TIP3   OH246347   1.148   3.275  11.566  0.2008 -0.0370 -0.3916
 8311TIP3    H146348   1.237   3.242  11.553  0.6020  1.0919 -0.6084
 8311TIP3    H246349   1.148   3.363  11.527 -0.9229  0.1039 -0.1286
 8312TIP3   OH246350   5.300   4.487   3.278 -0.2510  0.0186 -0.7164
 8312TIP3    H146351   5.266   4.443   3.356  1.4980 -0.5562 -0.2306
 8312TIP3    H246352   5.320   4.576   3.307  2.2076 -0.7191  0.1000
 8313TIP3   OH246353   1.712   4.899   3.622 -0.5193  0.4334 -0.6486
 8313TIP3    H146354   1.618   4.898   3.605 -0.5490 -2.5195 -0.7332
 8313TIP3    H246355   1.719   4.882   3.716 -0.0670  0.3147 -0.7026
 8314TIP3   OH246356   0.958   3.811  12.922  0.1817 -0.2989 -0.1973
 8314TIP3    H146357   1.041   3.857  12.910  0.7325  0.0766  3.7113
 8314TIP3    H246358   0.897   3.879  12.948  0.0838 -1.1705  2.0990
 8315TIP3   OH246359   4.938   4.144  15.365 -0.1183 -0.3985 -0.0962
 8315TIP3    H146360   4.847   4.171  15.352 -0.0722  1.0169  1.9353
 8315TIP3    H246361   4.935   4.086  15.442  0.6379 -0.6783 -0.2689
 8316TIP3   OH246362   0.989   0.848   6.147 -0.3073  0.3505 -0.4346
 8316TIP3    H146363   0.968   0.920   6.089  0.3638 -0.7050 -2.0539
 8316TIP3    H246364   0.931   0.777   6.120  0.1055 -0.2095  0.0987
 8317TIP3   OH246365   5.774   0.427  15.824 -0.0891  0.2841 -0.0658
 8317TIP3    H146366   5.782   0.438  15.730 -0.9229  0.0812 -0.1687
 8317TIP3    H246367   5.779   0.332  15.838 -0.4574  0.2768  0.0355
 8318TIP3   OH246368   1.411   5.010   2.963 -0.2346  0.4246 -0.1359
 8318TIP3    H146369   1.456   5.009   2.878 -1.7590 -1.1025 -1.0168
 8318TIP3    H246370   1.334   5.064   2.948  0.1936  1.2929  0.7201
 8319TIP3   OH246371   2.471   3.404  12.307  0.1130 -0.3002  0.0897
 8319TIP3    H146372   2.397   3.356  12.269 -0.1021 -0.3862  0.6117
 8319TIP3    H246373   2.497   3.351  12.383  0.7036 -0.2657 -0.0877
 8320TIP3   OH246374   6.405   5.774   2.630  0.2284 -0.4433  0.3191
 8320TIP3    H146375   6.472   5.804   2.568 -0.1129 -0.7597 -0.2097
 8320TIP3    H246376   6.453   5.759   2.712  0.7726 -0.4985 -0.0071
 8321TIP3   OH246377   4.716   1.518  12.930 -0.5800  0.2361  0.0309
 8321TIP3    H146378   4.695   1.610  12.912 -1.4808 -0.1574 -1.0026
 8321TIP3    H246379   4.721   1.477  12.844 -0.4822 -0.7561  0.4971
 8322TIP3   OH246380   5.320   0.979   4.595 -0.6787  0.1971  0.1464
 8322TIP3    H146381   5.370   0.931   4.528 -1.9036 -1.4366  0.3342
 8322TIP3    H246382   5.346   1.070   4.583  0.2934 -0.2460 -1.5435
 8323TIP3   OH246383   5.851   4.785   2.013  0.0862 -0.3346  0.1634
 8323TIP3    H146384   5.780   4.726   1.988 -0.9300  0.4986  0.9847
 8323TIP3    H246385   5.842   4.860   1.953 -0.6170  0.3921  1.1313
 8324TIP3   OH246386   4.611   5.739  13.960 -0.3209 -0.3648 -0.0107
 8324TIP3    H146387   4.595   5.663  14.017 -0.3078  0.4101  1.0641
 8324TIP3    H246388   4.527   5.757  13.920 -0.8716  0.3350  1.3846
 8325TIP3   OH246389   4.037   5.807   1.373 -0.7556 -0.1954  0.4265
 8325TIP3    H146390   3.992   5.737   1.420  0.1615 -1.3132 -0.2974
 8325TIP3    H246391   3.984   5.822   1.294 -0.2717 -0.9943 -0.0601
 8326TIP3   OH246392   2.902   4.770  14.743  0.0688 -0.2809 -0.5099
 8326TIP3    H146393   2.873   4.726  14.823  0.0607  0.4732 -0.0871
 8326TIP3    H246394   2.998   4.767  14.748  0.1546  2.3846  1.0675
 8327TIP3   OH246395   4.312   0.127  14.433  0.7558  0.0071 -0.2573
 8327TIP3    H146396   4.252   0.201  14.438  0.5150 -0.1588 -0.6489
 8327TIP3    H246397   4.260   0.052  14.465 -0.6180 -0.9627 -4.2219
 8328TIP3   OH246398   4.125   4.521  11.166  0.4787 -0.3124  0.1183
 8328TIP3    H146399   4.050   4.483  11.211  1.1273 -1.0563  0.6003
 8328TIP3    H246400   4.125   4.481  11.079  0.9088 -1.1078  0.4768
 8329TIP3   OH246401   6.354   4.315  14.209  0.0721 -0.2887 -0.1537
 8329TIP3    H146402   6.310   4.231  14.217  0.1450 -0.2732  0.5051
 8329TIP3    H246403   6.289   4.373  14.169 -0.5589 -0.2413  0.8977
 8330TIP3   OH246404   3.265   1.690   0.985  0.6688  0.1708 -0.0702
 8330TIP3    H146405   3.284   1.605   1.024  0.1872 -1.5422 -3.1794
 8330TIP3    H246406   3.174   1.708   1.010  1.0673  0.2656  1.3698
 8331TIP3   OH246407   6.239   3.333   4.431 -0.0271  0.1086 -0.1915
 8331TIP3    H146408   6.176   3.262   4.446 -0.5203  0.6006  0.0886
 8331TIP3    H246409   6.306   3.319   4.498 -0.8334  0.7030  0.7630
 8332TIP3   OH246410   3.373   1.780  15.526 -0.0892  0.0708 -0.0633
 8332TIP3    H146411   3.458   1.802  15.489 -0.0619  2.0063  1.0273
 8332TIP3    H246412   3.370   1.826  15.610 -3.2231  2.3661 -1.2220
 8333TIP3   OH246413   1.587   6.708   4.281 -0.2105 -0.3822 -0.0583
 8333TIP3    H146414   1.520   6.732   4.217 -0.2790 -1.6800 -0.4987
 8333TIP3    H246415   1.554   6.629   4.323  0.0166  0.2391  1.3311
 8334TIP3   OH246416   5.765   5.225  16.529  0.5429 -0.4533  0.0389
 8334TIP3    H146417   5.740   5.144  16.486 -1.3298 -0.2773  0.7212
 8334TIP3    H246418   5.693   5.244  16.590  1.9444  0.5731  1.4750
 8335TIP3   OH246419   1.519   1.613   0.977 -0.3537  0.0421  0.4358
 8335TIP3    H146420   1.517   1.679   0.907 -1.8167 -0.0046  0.4090
 8335TIP3    H246421   1.427   1.596   0.997 -0.0079 -1.6176  0.8073
 8336TIP3   OH246422   1.457   3.425  14.127 -0.5405  0.1417  0.2609
 8336TIP3    H146423   1.378   3.375  14.103 -0.3885  0.1939 -0.3473
 8336TIP3    H246424   1.450   3.506  14.076  0.8708 -0.6660 -1.2870
 8337TIP3   OH246425   5.321   1.444   6.341  0.0790 -0.3948 -0.5363
 8337TIP3    H146426   5.376   1.519   6.321  1.4753 -0.7895  1.4849
 8337TIP3    H246427   5.232   1.474   6.324  0.5310  1.9502  0.8208
 8338TIP3   OH246428   4.313   6.389  10.594 -0.4988 -0.0965 -0.4050
 8338TIP3    H146429   4.377   6.355  10.532  2.7517  4.0836  0.1878
 8338TIP3    H246430   4.257   6.446  10.541 -0.3907  0.2582 -0.1408
 8339TIP3   OH246431   2.519   1.735  11.110  0.5139 -0.0284 -0.0784
 8339TIP3    H146432   2.607   1.707  11.085 -0.6606 -2.9364 -1.4867
 8339TIP3    H246433   2.497   1.805  11.049  1.7405  0.5098  0.0901
 8340TIP3   OH246434   2.710   3.196  11.383 -0.1489  0.1939 -0.0088
 8340TIP3    H146435   2.734   3.176  11.293  0.8340  0.6372  0.1333
 8340TIP3    H246436   2.777   3.258  11.412 -0.8185  0.5546  0.8200
 8341TIP3   OH246437   5.942   2.434  16.941 -0.1070  0.2599  0.0747
 8341TIP3    H146438   5.902   2.500  16.885 -0.3610  0.2091  0.1940
 8341TIP3    H246439   5.939   2.353  16.889  0.3603  0.3800 -0.1383
 8342TIP3   OH246440   6.759   1.810  12.875 -0.3519  0.3664  0.1192
 8342TIP3    H146441   6.731   1.782  12.962  1.7032  0.3379  0.8312
 8342TIP3    H246442   6.716   1.749  12.814 -1.2819 -0.0245  1.1398
 8343TIP3   OH246443   3.578   0.353   0.108 -0.0981 -0.6224 -0.4309
 8343TIP3    H146444   3.630   0.426   0.073  1.4581 -1.9686 -1.0105
 8343TIP3    H246445   3.643   0.288   0.136 -1.4646 -2.2692 -0.9651
 8344TIP3   OH246446   2.237   0.627  12.298 -0.2837 -0.0089 -0.0258
 8344TIP3    H146447   2.253   0.592  12.210 -0.5823  0.1403 -0.1384
 8344TIP3    H246448   2.322   0.619  12.342  0.0472  0.5604 -0.5514
 8345TIP3   OH246449   2.364   6.255  10.376 -0.1128  0.1449 -0.7797
 8345TIP3    H146450   2.415   6.209  10.310  1.2148  1.1995 -0.5320
 8345TIP3    H246451   2.288   6.289  10.329  1.0499  1.2863 -1.9011
 8346TIP3   OH246452   3.098   6.450   4.710  0.4614  0.0170 -0.2872
 8346TIP3    H146453   3.109   6.506   4.787 -1.7723 -0.6083  0.5666
 8346TIP3    H246454   3.052   6.505   4.646  0.3555 -0.1211 -0.3307
 8347TIP3   OH246455   4.242   6.133   5.292 -0.3583  0.0434  0.6379
 8347TIP3    H146456   4.193   6.063   5.335  1.9139 -0.7735  2.0699
 8347TIP3    H246457   4.264   6.194   5.362  1.7403 -0.3021  0.3497
 8348TIP3   OH246458   0.847   4.167  13.488  0.5936 -0.1233 -0.4977
 8348TIP3    H146459   0.941   4.155  13.475  0.3199 -0.8123 -1.9618
 8348TIP3    H246460   0.809   4.163  13.401 -0.5922  2.4105 -0.2033
 8349TIP3   OH246461   0.400   4.854   2.202  0.0949  0.1313  0.2036
 8349TIP3    H146462   0.422   4.846   2.109 -1.4546  0.7371 -0.2522
 8349TIP3    H246463   0.484   4.872   2.245  0.9764 -1.1061 -0.9345
 8350TIP3   OH246464   5.365   6.680  11.444  0.6287  0.1271 -0.1368
 8350TIP3    H146465   5.282   6.662  11.489  1.7361  1.9808  2.9732
 8350TIP3    H246466   5.340   6.735  11.370 -1.0185 -0.4043 -0.0280
 8351TIP3   OH246467   4.173   1.756   3.021 -0.7649 -0.3103 -0.2911
 8351TIP3    H146468   4.126   1.717   2.946 -0.9425 -1.7858  0.5539
 8351TIP3    H246469   4.109   1.757   3.091 -0.4546  0.6401 -0.0070
 8352TIP3   OH246470   0.689   2.649  15.990 -0.0412  0.1675 -0.2170
 8352TIP3    H146471   0.778   2.663  16.023 -0.2855 -2.7235  2.0486
 8352TIP3    H246472   0.695   2.569  15.938 -0.7574  1.7697 -2.9190
 8353TIP3   OH246473   5.340   5.755   5.173 -0.1035 -0.3596  0.0960
 8353TIP3    H146474   5.389   5.776   5.253  0.7376  0.8626 -0.6934
 8353TIP3    H246475   5.289   5.677   5.195 -0.4516  0.3640  2.0462
 8354TIP3   OH246476   6.021   5.686   5.639 -0.0919 -0.0297 -0.2413
 8354TIP3    H146477   6.013   5.648   5.551 -1.0193 -1.0636  0.2691
 8354TIP3    H246478   6.105   5.654   5.671 -0.6050 -1.2238 -0.0385
 8355TIP3   OH246479   1.161   5.164  13.853 -0.3128  0.4608 -0.0638
 8355TIP3    H146480   1.138   5.167  13.760 -1.0761  0.3404  0.1164
 8355TIP3    H246481   1.157   5.071  13.876  1.6957  0.2752 -0.3452
 8356TIP3   OH246482   4.388   2.833   2.566 -0.1612  0.0643 -0.2384
 8356TIP3    H146483   4.423   2.922   2.568 -1.3935  0.6843 -2.6479
 8356TIP3    H246484   4.296   2.844   2.544 -1.0954 -1.7196  2.2664
 8357TIP3   OH246485   2.004   6.775   5.476 -0.4282 -0.0963 -0.1321
 8357TIP3    H146486   1.922   6.751   5.520  0.2522 -1.5317  0.4220
 8357TIP3    H246487   2.050   6.692   5.465  0.9786  0.6902 -0.4098
 8358TIP3   OH246488   4.910   1.686   6.210 -0.3789 -0.7976  0.3389
 8358TIP3    H146489   4.925   1.771   6.250  2.5888 -0.2991 -1.4980
 8358TIP3    H246490   4.983   1.631   6.241 -1.5210 -2.2959  0.4966
 8359TIP3   OH246491   5.865   1.712  12.205  0.0996 -0.2889 -0.4379
 8359TIP3    H146492   5.885   1.799  12.171  0.1493 -0.9121 -2.0869
 8359TIP3    H246493   5.938   1.692  12.264 -0.8275  1.4968  1.4534
 8360TIP3   OH246494   5.101   0.997  11.795 -0.6834 -0.4257  0.1374
 8360TIP3    H146495   5.159   1.038  11.859 -0.7239  1.8648 -1.2240
 8360TIP3    H246496   5.160   0.953  11.734 -0.5689 -0.8078  0.5079
 8361TIP3   OH246497   1.465   4.041   0.843  0.0254 -0.3669  0.3545
 8361TIP3    H146498   1.423   3.993   0.915 -0.6050 -2.3183 -1.2323
 8361TIP3    H246499   1.557   4.046   0.868 -0.5456  1.2984  2.4697
 8362TIP3   OH246500   0.601   5.948   0.225 -0.3405  0.7694  0.4018
 8362TIP3    H146501   0.517   5.995   0.230 -1.2556 -0.8491  1.0965
 8362TIP3    H246502   0.598   5.903   0.140  1.2730  3.1743 -1.0537
 8363TIP3   OH246503   5.476   6.704   4.844 -1.1399  0.2849  0.2292
 8363TIP3    H146504   5.521   6.788   4.854  1.1607 -0.7754 -0.3868
 8363TIP3    H246505   5.437   6.687   4.929  2.3816 -0.1282  1.9207
 8364TIP3   OH246506   6.338   2.581  12.917  0.3852  0.1869 -0.4240
 8364TIP3    H146507   6.260   2.635  12.912 -0.1307 -0.6100 -1.1125
 8364TIP3    H246508   6.307   2.496  12.948  1.0158 -0.0519 -0.4294
 8365TIP3   OH246509   6.358   1.493   1.312 -0.1286 -0.3178 -0.2039
 8365TIP3    H146510   6.291   1.517   1.247  0.3561  0.7603 -0.3181
 8365TIP3    H246511   6.318   1.514   1.396  0.5999  1.8214 -0.3295
 8366TIP3   OH246512   0.001   6.228  13.098  0.5440 -0.0605 -0.3145
 8366TIP3    H146513   0.012   6.176  13.019 -1.2394  1.1615 -1.4559
 8366TIP3    H246514   0.088   6.264  13.117  0.8632  0.2152 -2.1638
 8367TIP3   OH246515   1.971   3.353  12.038  0.8933 -0.0045  0.1149
 8367TIP3    H146516   1.925   3.376  12.118 -1.1917  0.4990 -1.1791
 8367TIP3    H246517   2.015   3.270  12.059  0.5801  0.2341  1.8303
 8368TIP3   OH246518   5.939   3.404   5.988 -0.2642 -0.4675 -0.3149
 8368TIP3    H146519   5.852   3.397   6.027 -0.1292 -0.9776 -0.1003
 8368TIP3    H246520   5.960   3.497   5.992 -0.4886 -0.4386  0.3127
 8369TIP3   OH246521   1.515   4.252  15.971  0.4452 -0.0192  0.5411
 8369TIP3    H146522   1.490   4.230  16.061  2.4976 -0.9876  0.9131
 8369TIP3    H246523   1.480   4.180  15.918  0.0193  0.0903  0.6653
 8370TIP3   OH246524   4.193   1.876   1.298  0.1340  0.2341 -0.1334
 8370TIP3    H146525   4.246   1.924   1.235  0.8803  1.6355  1.4732
 8370TIP3    H246526   4.247   1.873   1.377 -0.7241 -1.5450  0.4477
 8371TIP3   OH246527   1.851   5.685   1.408  0.0428 -0.0089  0.8209
 8371TIP3    H146528   1.931   5.706   1.359 -1.3426  1.0417 -1.0716
 8371TIP3    H246529   1.858   5.738   1.488  0.2845  1.6759 -0.2782
 8372TIP3   OH246530   6.473   4.043  14.874  0.1777  0.0558  0.2597
 8372TIP3    H146531   6.377   4.040  14.875  0.1148  1.2698  1.3749
 8372TIP3    H246532   6.497   4.023  14.783 -1.3532  3.4436 -1.0851
 8373TIP3   OH246533   3.467   3.559  13.936 -0.4047  0.1527 -0.7713
 8373TIP3    H146534   3.374   3.580  13.925 -0.6455 -0.2495  0.3532
 8373TIP3    H246535   3.491   3.600  14.019 -0.0661 -1.2747 -0.1336
 8374TIP3   OH246536   0.112   3.870   4.270  0.3454 -0.5924 -0.1921
 8374TIP3    H146537   0.096   3.789   4.320  0.6852 -0.9633 -0.6736
 8374TIP3    H246538   0.207   3.877   4.265  0.3208  0.0209  0.1254
 8375TIP3   OH246539   0.145   6.171   6.118 -0.1662  0.3077  0.0722
 8375TIP3    H146540   0.130   6.245   6.176 -0.8661 -0.0750  0.3925
 8375TIP3    H246541   0.058   6.135   6.102  0.1101 -0.1078 -0.5256
 8376TIP3   OH246542   6.140   5.269   5.666  0.5602  0.3488  0.1681
 8376TIP3    H146543   6.135   5.360   5.695 -2.6583  0.5885 -0.7607
 8376TIP3    H246544   6.207   5.269   5.598 -0.2904  2.3143 -0.7409
 8377TIP3   OH246545   4.689   1.401   4.023 -0.0498 -0.0487  0.2925
 8377TIP3    H146546   4.730   1.318   3.998  0.7182  0.5488 -0.4839
 8377TIP3    H246547   4.603   1.399   3.981 -0.1897 -0.6207  0.6020
 8378TIP3   OH246548   4.152   6.246   0.717  0.0753  0.0950 -0.3981
 8378TIP3    H146549   4.105   6.169   0.686  0.9215 -0.3579 -0.6117
 8378TIP3    H246550   4.235   6.244   0.668  0.4150  0.7240  0.1349
 8379TIP3   OH246551   0.586   4.453   4.048 -0.2508 -0.5098  0.3789
 8379TIP3    H146552   0.675   4.437   4.016  0.5556  0.3028  2.0751
 8379TIP3    H246553   0.599   4.501   4.130 -2.2491 -0.7208  0.8576
 8380TIP3   OH246554   5.801   1.661  16.982  0.2510 -0.1536 -0.2021
 8380TIP3    H146555   5.823   1.577  16.940 -1.8642 -0.6058 -0.4984
 8380TIP3    H246556   5.806   1.643  17.075 -1.3449 -0.9791 -0.2493
 8381TIP3   OH246557   1.865   6.063   1.339  0.7167  0.1133 -0.1167
 8381TIP3    H146558   1.867   6.004   1.264  1.1193  0.1178 -0.1111
 8381TIP3    H246559   1.921   6.021   1.404 -1.8401 -1.3792  1.3200
 8382TIP3   OH246560   5.970   2.397  15.200 -0.6086  1.0232 -0.6947
 8382TIP3    H146561   5.895   2.435  15.247 -1.5232  2.3967 -3.0789
 8382TIP3    H246562   6.045   2.450  15.228 -0.7989  0.7252  0.4446
 8383TIP3   OH246563   6.612   5.864  14.310 -0.1797  0.2440 -0.0632
 8383TIP3    H146564   6.606   5.859  14.214 -2.0320 -0.1462  0.0258
 8383TIP3    H246565   6.542   5.807  14.341  1.2232 -0.6604  1.5791
 8384TIP3   OH246566   2.350   5.860  16.816  0.8104 -0.3065  0.4057
 8384TIP3    H146567   2.370   5.787  16.758 -2.8818 -0.3100 -1.1330
 8384TIP3    H246568   2.328   5.819  16.899  3.5032 -0.4798  1.1281
 8385TIP3   OH246569   0.097   3.594   1.067 -0.4541 -0.1795  0.5931
 8385TIP3    H146570   0.168   3.657   1.073  0.4540 -0.8658 -1.8370
 8385TIP3    H246571   0.018   3.645   1.086  0.5226  0.8256  2.2429
 8386TIP3   OH246572   3.929   2.848   3.758 -0.2913  0.3435 -0.2591
 8386TIP3    H146573   3.834   2.843   3.745 -0.9313  0.7645  3.2396
 8386TIP3    H246574   3.953   2.934   3.726 -0.4991 -0.6946 -3.5754
 8387TIP3   OH246575   3.803   6.755   1.049  0.1017 -0.1375  0.3033
 8387TIP3    H146576   3.746   6.683   1.022  0.9616 -1.1740  1.1431
 8387TIP3    H246577   3.777   6.829   0.994  0.2812 -1.5154 -1.7234
 8388TIP3   OH246578   6.304   0.101  12.028  0.0305 -1.1074  0.5930
 8388TIP3    H146579   6.209   0.114  12.027  0.2435  0.5859 -0.7946
 8388TIP3    H246580   6.336   0.164  12.092  0.2866 -1.1695  0.5268
 8389TIP3   OH246581   1.754   1.603  14.209  0.3474  0.7870  0.2774
 8389TIP3    H146582   1.761   1.509  14.224  0.3320  0.7741  0.2075
 8389TIP3    H246583   1.697   1.610  14.131  0.3663  0.8528  0.2694
 8390TIP3   OH246584   1.114   5.654  12.717  0.3180  0.0089 -0.2484
 8390TIP3    H146585   1.162   5.710  12.778  2.6729 -0.5535 -1.4798
 8390TIP3    H246586   1.067   5.715  12.660  0.1273  0.6129  0.5433
 8391TIP3   OH246587   0.967   1.587   1.719 -0.3492 -0.0038  0.5457
 8391TIP3    H146588   0.931   1.664   1.763 -0.8444 -0.4653  0.9656
 8391TIP3    H246589   0.890   1.541   1.684 -0.1163 -0.6562  0.8800
 8392TIP3   OH246590   2.027   0.498  16.337 -0.3306  0.0030 -0.1338
 8392TIP3    H146591   2.001   0.580  16.297 -0.6370  0.6407  1.3143
 8392TIP3    H246592   2.021   0.433  16.267 -0.1581  1.1923 -1.2714
 8393TIP3   OH246593   2.644   6.778   2.077 -0.6972  0.4788  0.5546
 8393TIP3    H146594   2.647   6.838   2.151 -1.2076  0.5987  0.4878
 8393TIP3    H246595   2.591   6.825   2.011 -2.4266 -0.6604  1.0701
 8394TIP3   OH246596   1.147   1.201  14.749  0.7199 -0.3335  0.2083
 8394TIP3    H146597   1.206   1.132  14.719 -1.2531 -2.2541  0.4361
 8394TIP3    H246598   1.076   1.201  14.684  0.3190  0.9989  0.6206
 8395TIP3   OH246599   2.221   4.107  13.140 -0.2222 -0.1739  0.1052
 8395TIP3    H146600   2.191   4.188  13.100  1.1559  1.1155  1.5028
 8395TIP3    H246601   2.314   4.102  13.117 -0.2455 -1.2664  0.1990
 8396TIP3   OH246602   2.093   2.425  11.438 -0.0980  0.6432  0.4991
 8396TIP3    H146603   2.055   2.487  11.501  0.6423  2.3201 -0.6115
 8396TIP3    H246604   2.144   2.365  11.492 -1.8786  0.1682  1.7408
 8397TIP3   OH246605   2.775   3.117  14.077  0.3989 -0.7365 -0.0734
 8397TIP3    H146606   2.756   3.067  13.997  0.4665 -2.3781  0.8893
 8397TIP3    H246607   2.695   3.112  14.129  0.2648  0.5435 -0.1175
 8398TIP3   OH246608   2.518   5.699  11.486  0.0086  0.2417 -0.0217
 8398TIP3    H146609   2.511   5.791  11.509  0.5450  0.7553 -1.7702
 8398TIP3    H246610   2.561   5.698  11.400 -2.4359 -1.4979 -1.3437
 8399TIP3   OH246611   5.591   4.201   2.878  0.3722  0.7344 -0.2010
 8399TIP3    H146612   5.560   4.274   2.824  0.8799  1.0503 -0.0732
 8399TIP3    H246613   5.687   4.211   2.879  0.5545 -0.6475 -1.2046
 8400TIP3   OH246614   1.614   3.724   1.571 -0.4838  0.2951  0.0651
 8400TIP3    H146615   1.658   3.683   1.497  1.0492  1.4574  0.2789
 8400TIP3    H246616   1.672   3.708   1.646 -0.6443  1.4533  0.4605
 8401TIP3   OH246617   4.026   3.193   2.333 -0.6647  0.4059  0.2381
 8401TIP3    H146618   4.020   3.181   2.427 -1.7803 -2.5324 -0.1041
 8401TIP3    H246619   3.953   3.251   2.311 -1.9686 -0.9081  0.9477
 8402TIP3   OH246620   4.163   3.301   2.565  0.4822 -0.4077 -0.0116
 8402TIP3    H146621   4.087   3.359   2.564  1.9812  1.9620  3.5178
 8402TIP3    H246622   4.142   3.235   2.631 -0.6978 -3.4838 -3.1363
 8403TIP3   OH246623   4.517   3.317   2.108 -0.4622  0.0525 -0.0839
 8403TIP3    H146624   4.428   3.299   2.139  0.4573 -2.1023  1.4728
 8403TIP3    H246625   4.574   3.291   2.180  1.5824 -1.3376 -2.0863
 8404TIP3   OH246626   3.842   5.265   5.578 -0.3432  0.0741 -0.2724
 8404TIP3    H146627   3.785   5.196   5.546 -0.2324  0.3316 -1.0425
 8404TIP3    H246628   3.784   5.340   5.590 -0.7846 -0.5688  2.1265
 8405TIP3   OH246629   2.348   1.815   0.154 -0.0488 -0.7249  0.8012
 8405TIP3    H146630   2.274   1.875   0.161  0.0869 -0.7324  2.9147
 8405TIP3    H246631   2.308   1.729   0.139 -0.3822 -0.5137  0.4661
 8406TIP3   OH246632   1.262   4.679   5.595 -0.1847 -0.6368 -0.4458
 8406TIP3    H146633   1.232   4.589   5.611 -1.2530 -0.5766 -1.9029
 8406TIP3    H246634   1.195   4.734   5.635 -0.6689 -0.5057 -1.4093
 8407TIP3   OH246635   1.048   1.195  14.021  0.4240  0.0167 -0.4299
 8407TIP3    H146636   1.008   1.148  14.094 -0.0791  1.4874  0.2915
 8407TIP3    H246637   1.081   1.276  14.060  0.4005  0.7052 -1.7701
 8408TIP3   OH246638   0.652   2.174   2.481 -0.8083 -0.6426  0.0307
 8408TIP3    H146639   0.559   2.166   2.503 -0.6787 -0.5893  0.6065
 8408TIP3    H246640   0.659   2.137   2.393 -1.3522 -0.7781  0.0429
 8409TIP3   OH246641   0.394   6.114  13.241 -0.4230 -0.2159  0.0600
 8409TIP3    H146642   0.360   6.042  13.189 -0.2938  0.1509 -0.5384
 8409TIP3    H246643   0.467   6.077  13.290  0.9746 -0.0062 -1.7951
 8410TIP3   OH246644   5.874   0.160   1.727 -0.4258 -0.1058  0.1541
 8410TIP3    H146645   5.966   0.161   1.702 -0.0499 -1.2075  1.3451
 8410TIP3    H246646   5.866   0.085   1.787 -1.8582  0.6003  0.9175
 8411TIP3   OH246647   0.626   2.448  16.939 -0.0226  0.0123  0.4766
 8411TIP3    H146648   0.711   2.437  16.897 -0.5350 -1.6407 -0.2092
 8411TIP3    H246649   0.584   2.519  16.889  0.7171  0.4422  0.4512
 8412TIP3   OH246650   0.951   5.653   0.886 -0.0749  0.5149 -0.1709
 8412TIP3    H146651   0.944   5.728   0.827  1.3963 -0.3108 -1.4786
 8412TIP3    H246652   1.043   5.652   0.913 -0.0989 -0.7476 -0.0767
 8413TIP3   OH246653   5.553   0.522   0.306 -0.3915 -0.0153 -0.3091
 8413TIP3    H146654   5.586   0.562   0.387  2.4244  0.3249 -1.5299
 8413TIP3    H246655   5.502   0.591   0.264 -1.0256  0.1284  0.6737
 8414TIP3   OH246656   4.066   2.557  15.525 -0.1530  0.2097 -0.0675
 8414TIP3    H146657   4.109   2.499  15.462 -0.3502  0.4173 -0.3984
 8414TIP3    H246658   4.008   2.500  15.574 -1.7909  0.4035 -1.6665
 8415TIP3   OH246659   3.719   4.676   0.571  0.1324 -0.1649  0.0036
 8415TIP3    H146660   3.629   4.652   0.548  0.2771 -0.5988 -0.1235
 8415TIP3    H246661   3.735   4.631   0.654 -0.4961  1.6449  1.1626
 8416TIP3   OH246662   2.250   3.853   1.656  0.6343  0.7914 -0.2753
 8416TIP3    H146663   2.285   3.807   1.580 -1.3601 -0.5826 -0.4221
 8416TIP3    H246664   2.161   3.876   1.632  0.2866  1.2259  1.2879
 8417TIP3   OH246665   1.711   5.105   0.262 -0.5461  0.0490 -0.0606
 8417TIP3    H146666   1.710   5.138   0.352 -1.8742 -0.1447  0.0108
 8417TIP3    H246667   1.625   5.127   0.227 -0.5583 -1.1332 -0.8334
 8418TIP3   OH246668   5.640   4.049  15.564 -0.3280 -0.2826 -0.0642
 8418TIP3    H146669   5.639   3.973  15.506  0.3461 -0.0870 -0.3382
 8418TIP3    H246670   5.629   4.124  15.506  1.4162 -0.0095 -0.0807
 8419TIP3   OH246671   0.700   4.752   5.433  0.3471 -0.1404 -0.2575
 8419TIP3    H146672   0.789   4.757   5.468  0.0183  0.5772  0.5004
 8419TIP3    H246673   0.660   4.677   5.476 -0.5036  1.5152  2.0591
 8420TIP3   OH246674   5.449   5.417  14.953  0.0811  0.4633 -0.6098
 8420TIP3    H146675   5.505   5.340  14.943  1.6341  1.7195 -2.1066
 8420TIP3    H246676   5.417   5.411  15.044  0.0682 -1.9412 -0.7004
 8421TIP3   OH246677   5.830   2.944   4.350 -0.4527  0.2842 -0.0518
 8421TIP3    H146678   5.891   3.004   4.308 -0.2802  0.2216  0.1059
 8421TIP3    H246679   5.751   2.996   4.366 -0.8252  0.0912 -1.1943
 8422TIP3   OH246680   5.326   4.725  13.638  0.3454 -0.2096  0.4761
 8422TIP3    H146681   5.264   4.787  13.600  0.2171 -0.5397  0.1426
 8422TIP3    H246682   5.292   4.639  13.615  2.3843 -0.4250 -2.2212
 8423TIP3   OH246683   3.617   5.395   2.637  0.2469  0.2102 -0.3268
 8423TIP3    H146684   3.576   5.348   2.710 -1.5255  1.2020 -0.6252
 8423TIP3    H246685   3.561   5.471   2.623  2.0123  1.4575 -1.0401
 8424TIP3   OH246686   4.118   1.833   0.996  0.4586 -0.3276  0.1765
 8424TIP3    H146687   4.030   1.794   0.992  0.3043  0.1175 -1.3203
 8424TIP3    H246688   4.102   1.926   1.014  0.5347 -0.0162 -1.2644
 8425TIP3   OH246689   2.952   6.118  14.033  0.0462 -0.2553 -0.3196
 8425TIP3    H146690   2.987   6.203  14.057 -1.0664 -0.0140  0.5336
 8425TIP3    H246691   3.029   6.063  14.020  0.7562  0.4012  0.9389
 8426TIP3   OH246692   3.591   0.803  12.593 -0.2405 -0.0774 -0.2648
 8426TIP3    H146693   3.533   0.795  12.517 -3.0022 -2.5285  1.9007
 8426TIP3    H246694   3.564   0.885  12.635 -0.9885 -0.3736 -0.1622
 8427TIP3   OH246695   3.192   2.130   1.035 -0.3298 -0.0392 -0.2181
 8427TIP3    H146696   3.257   2.199   1.020 -0.2947  0.2749  1.2329
 8427TIP3    H246697   3.114   2.177   1.064 -0.6848 -0.5388 -0.3500
 8428TIP3   OH246698   3.712   2.930   2.262  0.2223  0.2312 -0.4185
 8428TIP3    H146699   3.629   2.953   2.222 -0.4788  0.9479  1.3179
 8428TIP3    H246700   3.765   2.895   2.191 -1.2617  0.5483 -1.7271
 8429TIP3   OH246701   2.788   0.041   1.603  0.3799  0.2099 -0.2112
 8429TIP3    H146702   2.694   0.029   1.614  0.0876  2.9477  0.9901
 8429TIP3    H246703   2.824   0.036   1.692  1.0173  1.4089 -0.3745
 8430TIP3   OH246704   3.378   6.359  11.000  0.3965  0.0295  0.3191
 8430TIP3    H146705   3.431   6.301  10.944  0.0155 -0.4550  0.4624
 8430TIP3    H246706   3.330   6.413  10.938  0.7503  0.1972  0.1852
 8431TIP3   OH246707   0.845   5.449   0.703  0.0480 -0.2600  0.1907
 8431TIP3    H146708   0.876   5.538   0.691  1.3610 -0.6139  0.7543
 8431TIP3    H246709   0.750   5.454   0.691  0.3172  0.8207 -1.8359
 8432TIP3   OH246710   2.408   6.486  12.981 -0.6143  0.1538 -0.0698
 8432TIP3    H146711   2.457   6.550  13.033 -1.2404  0.1118  0.6015
 8432TIP3    H246712   2.404   6.408  13.036 -1.8225  0.3148  0.1030
 8433TIP3   OH246713   5.061   2.043   1.963 -0.0227 -0.3815 -0.7580
 8433TIP3    H146714   4.969   2.022   1.975  0.2553 -2.5870 -1.8700
 8433TIP3    H246715   5.071   2.132   1.998 -2.1842 -0.7217  0.9182
 8434TIP3   OH246716   3.497   2.968  14.459 -0.2933  0.1990  0.3329
 8434TIP3    H146717   3.557   2.925  14.520  1.2534  1.3970 -0.2931
 8434TIP3    H246718   3.410   2.955  14.498  0.6168  0.8260  2.7472
 8435TIP3   OH246719   1.045   3.035  14.950 -0.2229  0.2811  0.0105
 8435TIP3    H146720   1.104   3.033  15.026  1.1543 -1.9099 -1.0022
 8435TIP3    H246721   1.073   3.110  14.899  0.1863  0.5860  0.6749
 8436TIP3   OH246722   0.693   3.979  13.642 -0.1950 -0.1875  0.2724
 8436TIP3    H146723   0.712   4.043  13.573  0.7024 -0.4548  0.2678
 8436TIP3    H246724   0.699   3.894  13.599  1.4168 -0.4158  0.9004
 8437TIP3   OH246725   1.630   2.890  13.737 -0.3174  0.3924  0.0469
 8437TIP3    H146726   1.701   2.954  13.740  0.1744 -0.0373 -1.5152
 8437TIP3    H246727   1.633   2.855  13.648 -1.4531 -0.8127  0.4495
 8438TIP3   OH246728   1.578   0.208  16.657  0.3401 -0.7841  0.7827
 8438TIP3    H146729   1.654   0.260  16.682  0.2040 -0.2693  0.1740
 8438TIP3    H246730   1.590   0.190  16.564  0.3835 -1.8639  0.9838
 8439TIP3   OH246731   4.928   3.536  14.831 -0.5195  0.6324  0.2787
 8439TIP3    H146732   4.898   3.447  14.846 -0.3772  0.2900 -1.2580
 8439TIP3    H246733   4.967   3.564  14.914 -0.0786 -0.9245  0.6161
 8440TIP3   OH246734   4.596   0.237  14.962  0.5182 -0.2565 -0.5484
 8440TIP3    H146735   4.520   0.280  14.922 -0.7825 -0.5592  1.4332
 8440TIP3    H246736   4.634   0.185  14.892 -1.0572 -0.0157 -1.6361
 8441TIP3   OH246737   0.015   3.078   4.550 -0.3949  0.7590  0.0300
 8441TIP3    H146738   0.074   3.147   4.580 -0.2032  0.8621 -0.5638
 8441TIP3    H246739   0.017   3.085   4.454 -0.6401  0.1560 -0.0242
 8442TIP3   OH246740   4.364   1.523  11.438  1.0846 -0.5834  0.2719
 8442TIP3    H146741   4.296   1.537  11.504 -0.2370  0.5102 -1.2344
 8442TIP3    H246742   4.326   1.458  11.378  0.7012  1.0944 -1.3816
 8443TIP3   OH246743   2.273   6.501  14.605  0.6132 -0.6170 -0.2348
 8443TIP3    H146744   2.192   6.450  14.598 -0.3292  0.5014  1.9166
 8443TIP3    H246745   2.245   6.589  14.627  2.3370  0.4314 -1.8653
 8444TIP3   OH246746   2.056   6.678  10.274  0.7957 -0.1376  0.7976
 8444TIP3    H146747   1.988   6.643  10.332  0.0046 -0.0348 -0.0432
 8444TIP3    H246748   2.049   6.773  10.284 -1.0357  0.0261 -1.2551
 8445TIP3   OH246749   5.096   6.611   0.698  0.4756  0.4275 -0.9356
 8445TIP3    H146750   5.100   6.547   0.769 -0.5571  1.0674 -0.2881
 8445TIP3    H246751   5.064   6.561   0.622 -0.6438  0.2305 -0.3514
 8446TIP3   OH246752   6.375   3.509  15.558 -0.2092  0.2728  0.2891
 8446TIP3    H146753   6.326   3.475  15.483 -2.1120  1.2952  0.9923
 8446TIP3    H246754   6.307   3.531  15.622  1.1634  2.0890  1.2043
 8447TIP3   OH246755   4.486   6.590   0.086 -0.0980  0.0795  0.2376
 8447TIP3    H146756   4.517   6.534   0.157 -2.3217 -0.9692  0.4467
 8447TIP3    H246757   4.545   6.665   0.088  1.6029 -1.2111  1.3819
 8448TIP3   OH246758   5.845   2.108   3.672 -0.0286  0.4746 -0.1947
 8448TIP3    H146759   5.776   2.162   3.634 -2.1243 -0.9833  1.2725
 8448TIP3    H246760   5.873   2.050   3.602 -1.9498 -0.4103 -0.2861
 8449TIP3   OH246761   5.564   0.270   4.331 -1.1260  0.0190  0.1815
 8449TIP3    H146762   5.657   0.248   4.337 -1.3306 -0.9294  0.0602
 8449TIP3    H246763   5.528   0.250   4.418 -1.0043  1.5174  0.6076
 8450TIP3   OH246764   4.370   3.873  16.430  0.4734  0.3290  0.5309
 8450TIP3    H146765   4.350   3.943  16.368 -2.7178 -1.8832 -1.2108
 8450TIP3    H246766   4.334   3.903  16.513 -0.7514  0.8479 -0.1684
 8451TIP3   OH246767   6.299   4.099  13.326  0.4247 -0.3403  0.3483
 8451TIP3    H146768   6.230   4.079  13.390 -0.6270  1.7403 -0.0239
 8451TIP3    H246769   6.360   4.155  13.374 -0.8664  2.0340 -0.5827
 8452TIP3   OH246770   4.888   2.526   3.119 -0.2322  0.5516  0.0182
 8452TIP3    H146771   4.981   2.527   3.093 -0.5875  0.9118 -1.3476
 8452TIP3    H246772   4.852   2.448   3.077 -0.4890  0.2309  0.8166
 8453TIP3   OH246773   1.597   1.275   5.218  0.4123 -0.4495  0.6696
 8453TIP3    H146774   1.528   1.276   5.152  0.2744 -1.4322  0.7837
 8453TIP3    H246775   1.661   1.340   5.188  0.7555 -1.4594 -0.8754
 8454TIP3   OH246776   3.919   4.952  11.523 -0.2851  0.3067  0.7743
 8454TIP3    H146777   3.932   4.872  11.472  0.3084  0.0946  1.2498
 8454TIP3    H246778   3.913   4.921  11.614  1.0222  0.8957  1.0733
 8455TIP3   OH246779   1.908   1.452   2.213  0.2036 -0.5020 -0.3986
 8455TIP3    H146780   1.910   1.374   2.269 -0.8914 -0.5042 -0.3506
 8455TIP3    H246781   1.881   1.419   2.127  1.7165 -0.4729 -0.9163
 8456TIP3   OH246782   2.218   2.498  12.100 -0.6394  0.1502  0.3265
 8456TIP3    H146783   2.252   2.499  12.011 -0.9260  0.4707  0.2143
 8456TIP3    H246784   2.162   2.420  12.104 -0.6252  0.1349  0.2247
 8457TIP3   OH246785   5.873   3.254  14.972 -0.8474  0.0335 -0.5811
 8457TIP3    H146786   5.859   3.164  14.943 -0.0676 -0.5281  0.7005
 8457TIP3    H246787   5.803   3.304  14.931 -0.1101 -0.7744 -2.9730
 8458TIP3   OH246788   4.007   0.316  15.132  0.3809  0.5852 -0.6040
 8458TIP3    H146789   4.005   0.268  15.049  0.0633 -0.7623  0.1439
 8458TIP3    H246790   4.091   0.291  15.172 -0.5824 -0.9093  0.6296
 8459TIP3   OH246791   5.496   4.398  11.519  0.2216 -0.2174 -0.3061
 8459TIP3    H146792   5.532   4.408  11.607  0.7293 -1.3165 -0.3601
 8459TIP3    H246793   5.445   4.316  11.524 -1.2121  0.6242 -0.5810
 8460TIP3   OH246794   2.113   2.009  13.814 -0.0792  0.2893 -0.7043
 8460TIP3    H146795   2.101   1.941  13.880 -0.7247 -0.0993 -1.2123
 8460TIP3    H246796   2.032   2.009  13.764  0.5000  0.3978 -1.6737
 8461TIP3   OH246797   5.485   6.034  13.740  0.2465 -0.0083 -0.3973
 8461TIP3    H146798   5.461   6.091  13.667 -0.6988 -0.1864 -0.2322
 8461TIP3    H246799   5.462   6.083  13.818 -0.1803 -0.4417 -0.2467
 8462TIP3   OH246800   3.837   3.128  15.349 -0.1550  0.1011  0.2929
 8462TIP3    H146801   3.921   3.095  15.320  0.4737  1.5798  0.3395
 8462TIP3    H246802   3.817   3.078  15.428  0.7507 -0.1749  0.3528
 8463TIP3   OH246803   4.821   1.676  15.541 -0.1775  0.5691 -0.3455
 8463TIP3    H146804   4.784   1.587  15.538  0.6316  0.2240 -0.2201
 8463TIP3    H246805   4.890   1.676  15.475 -1.2227  1.6068 -1.4906
 8464TIP3   OH246806   4.298   2.086  11.416  0.2207  0.3681  0.3282
 8464TIP3    H146807   4.343   2.086  11.332  0.3104  0.5584  0.3767
 8464TIP3    H246808   4.227   2.150  11.405  0.7359  1.0010  0.6684
 8465TIP3   OH246809   4.696   0.077   4.600 -0.2993  0.3602 -0.4177
 8465TIP3    H146810   4.763   0.008   4.608  1.3181  2.0695  2.1840
 8465TIP3    H246811   4.741   0.148   4.555 -0.8127  1.0096  0.0781
 8466TIP3   OH246812   2.276   4.737  14.180 -0.1108 -0.1823  0.2472
 8466TIP3    H146813   2.334   4.677  14.133  1.3821  1.3074  0.0931
 8466TIP3    H246814   2.324   4.820  14.182 -1.8847  0.8855  0.8884
 8467TIP3   OH246815   1.909   1.332  15.693 -0.5651 -0.3623  0.3302
 8467TIP3    H146816   1.822   1.359  15.663 -0.1398  2.1634  1.0973
 8467TIP3    H246817   1.906   1.343  15.788  0.1095 -1.8801  0.5560
 8468TIP3   OH246818   6.421   4.131  12.924 -0.0190  0.4845  0.1689
 8468TIP3    H146819   6.390   4.074  12.854  1.4233 -1.8770  1.3082
 8468TIP3    H246820   6.351   4.131  12.988  0.4429 -1.1878  0.7408
 8469TIP3   OH246821   6.526   1.481  14.097  0.0579  0.1636 -0.5092
 8469TIP3    H146822   6.447   1.532  14.078 -0.7311 -0.5160  0.7212
 8469TIP3    H246823   6.527   1.476  14.193  0.0591 -2.1589 -0.5893
 8470TIP3   OH246824   1.550   5.016   1.309 -0.0216 -0.3522 -0.0159
 8470TIP3    H146825   1.531   4.924   1.291  1.3767 -1.0030  1.5270
 8470TIP3    H246826   1.515   5.031   1.397 -2.2380  1.2853 -1.0790
 8471TIP3   OH246827   5.176   3.423   2.989 -0.0400  0.3504 -0.4145
 8471TIP3    H146828   5.194   3.364   3.062 -0.6652  0.9645  0.2563
 8471TIP3    H246829   5.180   3.511   3.028 -0.7254  0.6699 -1.0391
 8472TIP3   OH246830   1.931   0.543   5.090 -0.3852  0.6666 -0.2584
 8472TIP3    H146831   1.970   0.463   5.053 -0.9055  0.6440 -0.7656
 8472TIP3    H246832   1.980   0.614   5.049  0.2140  0.6107  0.3445
 8473TIP3   OH246833   6.390   2.101   0.457  0.2427 -0.3876 -0.1350
 8473TIP3    H146834   6.375   2.042   0.383 -0.4532  0.4866 -0.7129
 8473TIP3    H246835   6.373   2.047   0.534  0.3138 -1.1346 -0.6318
 8474TIP3   OH246836   1.634   3.169  15.067  0.3109 -0.7314 -0.7835
 8474TIP3    H146837   1.674   3.119  15.138 -1.7184  0.6217  1.4563
 8474TIP3    H246838   1.664   3.259  15.081  1.7471 -0.7637 -3.1228
 8475TIP3   OH246839   2.260   3.657   1.426 -0.0823 -0.0849 -0.0880
 8475TIP3    H146840   2.271   3.594   1.497  3.3355  1.2369  0.7569
 8475TIP3    H246841   2.313   3.622   1.355  2.0635  1.7777  0.4719
 8476TIP3   OH246842   4.065   3.326  14.298  0.3391  0.1335 -0.1197
 8476TIP3    H146843   4.049   3.262  14.368 -0.2118  1.6062  1.1494
 8476TIP3    H246844   4.002   3.397  14.315  0.1945  0.5528 -2.1157
 8477TIP3   OH246845   4.596   1.780   4.808  0.1605  0.0416  0.0320
 8477TIP3    H146846   4.541   1.857   4.820 -1.1074 -0.8446  0.0644
 8477TIP3    H246847   4.626   1.757   4.896  0.2334  0.2728  0.0672
 8478TIP3   OH246848   5.874   0.557   0.974 -0.2357  0.0952  0.3862
 8478TIP3    H146849   5.788   0.595   0.955  0.0260  0.4100 -0.1749
 8478TIP3    H246850   5.896   0.591   1.061  0.5909  2.3614 -0.6331
 8479TIP3   OH246851   1.254   6.029   3.403  0.8713 -0.0788  0.9859
 8479TIP3    H146852   1.206   6.050   3.323  1.7038  0.8384  0.7082
 8479TIP3    H246853   1.261   5.934   3.403  2.6175 -0.0178 -1.1262
 8480TIP3   OH246854   3.961   5.514  11.813  0.2832 -0.0105 -0.0978
 8480TIP3    H146855   3.895   5.474  11.870 -1.0982 -0.8836 -2.2059
 8480TIP3    H246856   3.962   5.606  11.839 -0.7851 -0.2393  0.8540
 8481TIP3   OH246857   3.127   5.679  10.338  0.3273 -0.2785 -0.0598
 8481TIP3    H146858   3.172   5.761  10.357 -0.0044 -0.5380  2.0581
 8481TIP3    H246859   3.072   5.699  10.262  1.3069  1.0309 -0.4672
 8482TIP3   OH246860   6.622   5.674  16.153 -0.3476 -0.4349  0.2384
 8482TIP3    H146861   6.686   5.636  16.213  0.5209  2.1860  1.1107
 8482TIP3    H246862   6.538   5.658  16.195  0.0430 -0.7009  0.9464
 8483TIP3   OH246863   6.043   4.511  10.125  0.0526  0.1313 -0.4333
 8483TIP3    H146864   6.022   4.446  10.192 -0.1473  0.5655 -0.0685
 8483TIP3    H246865   5.963   4.518  10.073 -0.4180  1.0746  0.3656
 8484TIP3   OH246866   1.771   5.928  11.559 -0.1821 -0.4298  0.1716
 8484TIP3    H146867   1.676   5.915  11.565 -0.0241 -1.5279  0.4878
 8484TIP3    H246868   1.803   5.916  11.648  0.5455 -2.8302 -0.3390
 8485TIP3   OH246869   1.023   4.769   2.163 -0.0178  0.2312  0.2531
 8485TIP3    H146870   1.058   4.788   2.250  0.1106 -2.0755  0.7820
 8485TIP3    H246871   0.929   4.758   2.178 -0.3094  1.7837 -0.3002
 8486TIP3   OH246872   6.496   2.704   2.230 -0.1071  0.3582 -0.0758
 8486TIP3    H146873   6.556   2.738   2.297 -0.1914 -1.2119  0.8496
 8486TIP3    H246874   6.530   2.616   2.210 -1.9491 -0.4782  0.2911
 8487TIP3   OH246875   1.093   1.378   4.991 -0.3706 -0.1159  0.8752
 8487TIP3    H146876   1.147   1.344   4.920  0.0542  1.0887  0.6001
 8487TIP3    H246877   1.136   1.349   5.071 -1.1553 -1.9629  0.6863
 8488TIP3   OH246878   4.743   2.407  16.442  0.4664 -0.0640 -0.0549
 8488TIP3    H146879   4.786   2.378  16.522 -0.1912  0.9888  0.7100
 8488TIP3    H246880   4.774   2.497  16.429 -0.6591  0.3381 -0.0704
 8489TIP3   OH246881   0.091   2.640   4.470 -0.7623  0.0210 -0.1536
 8489TIP3    H146882   0.106   2.703   4.540  0.1059 -1.2541  0.8767
 8489TIP3    H246883  -0.002   2.646   4.450 -1.0173  0.4240  1.1109
 8490TIP3   OH246884   3.124   5.896  15.014  0.0173 -0.3426  0.2155
 8490TIP3    H146885   3.064   5.948  15.068  0.5403  0.9266 -0.3850
 8490TIP3    H246886   3.100   5.805  15.033 -1.3394  0.1102  0.8372
 8491TIP3   OH246887   2.767   4.227  12.248  0.1613  0.5503 -0.3299
 8491TIP3    H146888   2.703   4.266  12.189  2.6632  1.2608 -2.8105
 8491TIP3    H246889   2.803   4.153  12.199  1.5635  0.4829  0.7262
 8492TIP3   OH246890   3.958   3.330  16.596  0.1093 -0.8551  0.3569
 8492TIP3    H146891   3.899   3.293  16.662  0.4716 -1.7426  0.1909
 8492TIP3    H246892   3.985   3.255  16.543  0.1347 -0.2103 -0.5642
 8493TIP3   OH246893   6.118   3.409  15.050 -0.1164 -0.0903 -0.3816
 8493TIP3    H146894   6.113   3.503  15.032  0.0466  0.0179  0.1359
 8493TIP3    H246895   6.029   3.376  15.032 -0.5838  0.4207  0.8640
 8494TIP3   OH246896   6.444   4.654   5.227  0.4986  0.8287  0.0439
 8494TIP3    H146897   6.522   4.617   5.185  0.0797  0.4572 -0.4114
 8494TIP3    H246898   6.374   4.642   5.163 -0.6827 -1.7988  1.6398
 8495TIP3   OH246899   5.054   6.771  11.811  0.2673 -0.3079 -0.0704
 8495TIP3    H146900   4.967   6.766  11.770  0.2966 -0.7622 -0.0859
 8495TIP3    H246901   5.094   6.687  11.790  1.0053  0.1877 -0.7169
 8496TIP3   OH246902   2.460   1.392  15.764  0.0621  0.9596  0.3896
 8496TIP3    H146903   2.454   1.441  15.846  1.1195 -1.7110  2.1856
 8496TIP3    H246904   2.544   1.346  15.770 -0.7878 -0.9323 -1.2296
 8497TIP3   OH246905   6.628   2.340  11.858 -0.0307  0.3483 -0.5190
 8497TIP3    H146906   6.666   2.305  11.777 -2.6518 -1.6879 -1.0178
 8497TIP3    H246907   6.539   2.364  11.833 -1.2791 -1.3510  1.9449
 8498TIP3   OH246908   5.058   2.679   0.573  0.3226 -0.1871  0.2624
 8498TIP3    H146909   5.094   2.767   0.583  2.7973 -1.2004  0.8552
 8498TIP3    H246910   5.048   2.668   0.479  1.4526  0.1902  0.0882
 8499TIP3   OH246911   4.722   0.381   3.446 -0.5258  0.5250 -0.8050
 8499TIP3    H146912   4.760   0.306   3.401 -2.1978 -1.4168  0.7812
 8499TIP3    H246913   4.745   0.367   3.538 -2.7104  0.7076 -0.1827
 8500TIP3   OH246914   4.438   1.326  11.643  0.3283 -0.5734  0.6515
 8500TIP3    H146915   4.444   1.361  11.554  1.6305 -1.4485  0.3656
 8500TIP3    H246916   4.430   1.404  11.699 -0.9780 -0.0293 -0.2299
 8501TIP3   OH246917   3.795   1.947   0.138 -0.3178  0.5213  0.5880
 8501TIP3    H146918   3.839   1.954   0.223  0.3033 -0.1477  0.3379
 8501TIP3    H246919   3.714   1.900   0.156  0.1086 -0.1748  0.7226
 8502TIP3   OH246920   6.430   5.360  11.674 -0.6490  0.6799 -0.8292
 8502TIP3    H146921   6.464   5.422  11.738  0.6763  0.7591 -1.5751
 8502TIP3    H246922   6.508   5.323  11.633 -1.4311 -0.7438 -1.1016
 8503TIP3   OH246923   4.833   3.325  12.372 -0.4339 -0.1067  0.1014
 8503TIP3    H146924   4.893   3.256  12.399 -1.5125 -1.4359 -0.7873
 8503TIP3    H246925   4.879   3.406  12.393  0.3514 -1.0530  2.3719
 8504TIP3   OH246926   1.649   5.883  13.665  0.2303 -0.1460  0.2854
 8504TIP3    H146927   1.565   5.915  13.698 -0.7345 -0.7637 -1.4050
 8504TIP3    H246928   1.636   5.789  13.652  2.4187 -1.0315  3.3984
 8505TIP3   OH246929   2.650   3.877   4.784  0.1842 -0.0599 -0.4428
 8505TIP3    H146930   2.641   3.908   4.874  1.0793  0.5322 -0.5377
 8505TIP3    H246931   2.735   3.911   4.756  0.5421 -1.4003 -1.0489
 8506TIP3   OH246932   0.322   3.853   6.063 -0.1270  0.4656  0.0801
 8506TIP3    H146933   0.303   3.874   6.155  1.3729  0.9587  0.2991
 8506TIP3    H246934   0.396   3.909   6.040  1.3554 -1.6429 -0.5637
 8507TIP3   OH246935   4.192   4.547  15.065 -0.2340 -0.6386  0.4056
 8507TIP3    H146936   4.158   4.599  14.992  0.4634 -1.4487 -0.5143
 8507TIP3    H246937   4.116   4.536  15.123 -0.3724  1.5018  0.7272
 8508TIP3   OH246938   4.273   0.260   2.943 -0.0221  0.1678  0.6864
 8508TIP3    H146939   4.277   0.172   2.979  0.9937  0.1835  0.6208
 8508TIP3    H246940   4.188   0.294   2.973 -0.3406 -0.7576  0.8572
 8509TIP3   OH246941   6.495   5.505  11.890  0.1076  0.0835 -0.7987
 8509TIP3    H146942   6.401   5.524  11.890  0.2347  0.7833 -1.5226
 8509TIP3    H246943   6.537   5.591  11.888  0.7878 -0.1910  0.5536
 8510TIP3   OH246944   3.203   0.767  16.931  0.0800  0.3904 -0.1623
 8510TIP3    H146945   3.229   0.717  16.854 -0.5467 -0.8800  0.4106
 8510TIP3    H246946   3.109   0.750  16.940  0.2098  0.2243  1.0693
 8511TIP3   OH246947   4.153   3.326  16.260  0.2303  0.2618 -0.3260
 8511TIP3    H146948   4.197   3.248  16.295 -0.3056 -0.2093 -0.6950
 8511TIP3    H246949   4.213   3.398  16.282 -0.2477  0.0559  1.9080
 8512TIP3   OH246950   3.834   6.238   6.466 -0.7174 -0.0154  0.5932
 8512TIP3    H146951   3.810   6.309   6.407 -1.4865  1.0236  2.0936
 8512TIP3    H246952   3.881   6.280   6.538 -0.5752 -1.1089  1.1696
 8513TIP3   OH246953   6.129   1.342   4.079 -0.1409  0.2034 -0.0524
 8513TIP3    H146954   6.217   1.314   4.056 -1.0238 -2.2457 -0.7024
 8513TIP3    H246955   6.139   1.435   4.103  2.6580 -0.1472  0.4434
 8514TIP3   OH246956   3.524   5.631  12.941  0.0172  0.2315 -0.3223
 8514TIP3    H146957   3.444   5.667  12.905  0.1485  1.0507  0.1824
 8514TIP3    H246958   3.498   5.592  13.025  0.2319  0.9399  0.0753
 8515TIP3   OH246959   0.715   2.597   2.359 -0.0261  0.2910  0.3696
 8515TIP3    H146960   0.668   2.593   2.442  2.6794  2.1012  2.1539
 8515TIP3    H246961   0.786   2.534   2.368  0.9304  1.2768 -0.1294
 8516TIP3   OH246962   1.852   4.758   4.874  0.3555 -0.9093  0.3241
 8516TIP3    H146963   1.847   4.846   4.911  1.6442  0.1791 -1.8979
 8516TIP3    H246964   1.870   4.701   4.950 -0.4360  0.7033  1.7919
 8517TIP3   OH246965   0.683   0.882   4.004 -0.1772  0.6755 -0.1858
 8517TIP3    H146966   0.658   0.865   3.913  2.3030  0.3540 -0.8872
 8517TIP3    H246967   0.675   0.977   4.013 -2.7785  0.4978  0.0815
 8518TIP3   OH246968   6.132   4.984   2.349 -0.0546  0.2058 -0.4582
 8518TIP3    H146969   6.158   5.024   2.266  2.1872  1.3348  0.6928
 8518TIP3    H246970   6.176   4.899   2.349 -1.3997 -0.5155 -1.0949
 8519TIP3   OH246971   6.750   5.428  11.075  0.1504  0.0040  0.0884
 8519TIP3    H146972   6.671   5.477  11.053 -0.1602 -0.2883  0.5281
 8519TIP3    H246973   6.742   5.347  11.025  0.3039  0.0853 -0.0692
 8520TIP3   OH246974   5.469   3.591  11.564 -0.2340 -0.4445 -0.4363
 8520TIP3    H146975   5.509   3.638  11.637  0.0897 -0.4856 -0.5892
 8520TIP3    H246976   5.391   3.550  11.603  0.4299 -1.2197  0.1034
 8521TIP3   OH246977   2.803   2.058  12.289  0.3775  0.1250  0.3645
 8521TIP3    H146978   2.856   1.998  12.340  0.6095  0.4386  0.4931
 8521TIP3    H246979   2.813   2.143  12.332 -0.2450  0.1856  0.4063
 8522TIP3   OH246980   4.309   2.350  14.619 -0.2203  0.1215  0.0762
 8522TIP3    H146981   4.263   2.370  14.701  2.1936 -0.2405  1.6331
 8522TIP3    H246982   4.377   2.417  14.613  1.4588 -1.4985 -0.0354
 8523TIP3   OH246983   3.128   4.978  13.235  0.3264 -0.1772 -0.9177
 8523TIP3    H146984   3.169   5.054  13.276  1.6235 -0.7249 -1.1723
 8523TIP3    H246985   3.068   4.944  13.302 -0.6073  1.2956 -0.9437
 8524TIP3   OH246986   2.571   3.723  16.537 -0.1535  0.2223 -0.1574
 8524TIP3    H146987   2.653   3.771  16.544 -0.2673  0.3048  0.6770
 8524TIP3    H246988   2.588   3.640  16.581 -0.2805 -0.0801 -0.6740
 8525TIP3   OH246989   3.840   2.236  12.852 -0.1269  0.7057 -0.4011
 8525TIP3    H146990   3.891   2.160  12.828 -2.5992 -1.7865  1.5361
 8525TIP3    H246991   3.791   2.258  12.773  0.6633  0.3602 -1.0024
 8526TIP3   OH246992   2.282   5.077   1.636  0.5085 -0.4398  0.1886
 8526TIP3    H146993   2.250   5.067   1.547  0.8276  0.8055 -0.0847
 8526TIP3    H246994   2.280   5.171   1.652  2.1862 -0.4861  0.8535
 8527TIP3   OH246995   0.928   2.686   0.755  0.0429  0.6264 -0.3862
 8527TIP3    H146996   0.883   2.769   0.772  0.5217  0.7215  0.5000
 8527TIP3    H246997   0.957   2.657   0.841  0.6491 -0.0255 -0.7994
 8528TIP3   OH246998   2.123   0.241   3.106 -0.5883  0.2108 -0.1534
 8528TIP3    H146999   2.124   0.323   3.154  0.4943  0.4720 -0.5922
 8528TIP3    H247000   2.033   0.208   3.116 -0.5880  0.6039  1.4221
 8529TIP3   OH247001   4.739   0.860  12.641 -0.0937  0.0717 -0.0962
 8529TIP3    H147002   4.770   0.803  12.711  0.9195 -1.0443 -1.4076
 8529TIP3    H247003   4.813   0.917  12.621 -0.4234  0.4754 -0.1866
 8530TIP3   OH247004   4.741   1.332   0.629 -0.1850 -0.4540  0.0371
 8530TIP3    H147005   4.817   1.371   0.673 -1.8095  0.3144  2.3288
 8530TIP3    H247006   4.749   1.238   0.647  0.3479 -0.4173  0.0241
 8531TIP3   OH247007   6.807   6.200  13.772  0.1338  0.4766  0.0298
 8531TIP3    H147008   6.819   6.280  13.823 -1.2652  2.4327 -2.4520
 8531TIP3    H247009   6.712   6.191  13.763  0.3103  0.6361 -2.6951
 8532TIP3   OH247010   1.094   2.320  16.532 -0.4374 -0.3380 -0.1939
 8532TIP3    H147011   1.135   2.335  16.616 -1.6609  0.6971  0.2562
 8532TIP3    H247012   1.037   2.244  16.546  0.7254 -1.3165 -0.6193
 8533TIP3   OH247013   0.967   3.273  13.031  0.2005  0.3384  0.3697
 8533TIP3    H147014   1.062   3.267  13.032  0.2084  0.1883 -0.5783
 8533TIP3    H247015   0.949   3.366  13.047  0.5418  0.5224 -0.2551
 8534TIP3   OH247016   5.390   5.970   0.281  0.1353 -0.5043 -0.5854
 8534TIP3    H147017   5.460   6.029   0.253  2.5649 -3.4944 -1.2536
 8534TIP3    H247018   5.372   5.916   0.204 -1.4366 -1.2085  0.2311
 8535TIP3   OH247019   6.433   1.897  16.147  0.0698  0.3856  0.1176
 8535TIP3    H147020   6.422   1.981  16.191  0.0793 -0.1871  1.2400
 8535TIP3    H247021   6.362   1.894  16.083  0.3690  1.4564 -0.2884
 8536TIP3   OH247022   0.081   0.158  12.799 -0.0361 -0.4876 -0.0756
 8536TIP3    H147023  -0.007   0.121  12.789  0.1434 -1.9309  2.7863
 8536TIP3    H247024   0.065   0.247  12.831 -0.5105 -1.0730  1.4051
 8537TIP3   OH247025   5.464   3.115   2.972 -0.5717  0.6870 -0.8849
 8537TIP3    H147026   5.558   3.120   2.955 -0.5497  1.7862 -0.5347
 8537TIP3    H247027   5.458   3.111   3.068 -0.8345 -1.2481 -0.9410
 8538TIP3   OH247028   1.630   1.389  12.897  0.0345  0.1369  0.0510
 8538TIP3    H147029   1.569   1.433  12.956 -1.4082 -1.2855 -0.3204
 8538TIP3    H247030   1.715   1.425  12.920 -0.7167  0.9560  1.7287
 8539TIP3   OH247031   3.337   4.478  11.768  0.2108  0.3266  0.3914
 8539TIP3    H147032   3.304   4.455  11.681 -0.3764  0.0625  0.6757
 8539TIP3    H247033   3.353   4.394  11.811 -0.3903  0.4454  0.8641
 8540TIP3   OH247034   5.723   3.330   1.897  0.4527 -0.2129  0.2256
 8540TIP3    H147035   5.721   3.255   1.838 -1.1774  0.0547 -0.1115
 8540TIP3    H247036   5.815   3.358   1.898  1.1492 -2.3564  0.5864
 8541TIP3   OH247037   5.212   3.751  14.803 -0.2078  0.3635  0.0094
 8541TIP3    H147038   5.218   3.660  14.833  1.0397 -0.0477 -1.3696
 8541TIP3    H247039   5.120   3.762  14.779 -0.5391 -0.2820  0.9350
 8542TIP3   OH247040   1.473   4.841   2.706 -0.3490  0.1535  0.3899
 8542TIP3    H147041   1.518   4.782   2.766  0.5938  0.1158 -0.3317
 8542TIP3    H247042   1.485   4.800   2.620 -1.9908  0.0037  0.1931
 8543TIP3   OH247043   2.940   3.670  13.159 -0.4797  0.1569  0.2212
 8543TIP3    H147044   2.921   3.661  13.252 -1.5776  2.8385  0.3521
 8543TIP3    H247045   3.031   3.642  13.150 -0.4585 -0.5057  1.9949
 8544TIP3   OH247046   4.701   4.556  16.578 -0.0478  0.0803  0.1702
 8544TIP3    H147047   4.668   4.544  16.667  0.9344  2.2188  0.8815
 8544TIP3    H247048   4.785   4.511  16.578 -0.1713 -0.1522  0.2357
 8545TIP3   OH247049   4.413   0.192  11.946 -0.4532 -0.6987 -0.5550
 8545TIP3    H147050   4.492   0.193  11.999 -0.3787 -0.5745 -0.6670
 8545TIP3    H247051   4.349   0.144  11.999 -0.2541 -0.9478 -0.5357
 8546TIP3   OH247052   0.978   5.196   3.965  0.4299  0.2171  0.0245
 8546TIP3    H147053   1.069   5.185   3.936  1.4407  0.2853  2.8315
 8546TIP3    H247054   0.980   5.275   4.019 -0.6763 -1.1181  2.1706
 8547TIP3   OH247055   0.114   0.648   1.123 -0.7495  0.4765  0.4667
 8547TIP3    H147056   0.043   0.708   1.144  0.7012  1.6103  2.4785
 8547TIP3    H247057   0.127   0.597   1.203  0.6884  0.2992  0.1429
 8548TIP3   OH247058   5.767   2.775   2.869  0.1290  0.7289 -0.2443
 8548TIP3    H147059   5.693   2.715   2.882  0.9243 -0.3076 -0.3071
 8548TIP3    H247060   5.732   2.846   2.815 -1.0759  0.8005  0.6071
 8549TIP3   OH247061   5.754   4.904  16.632  0.3754  0.1530 -0.1067
 8549TIP3    H147062   5.660   4.912  16.647  0.3688  1.8925 -0.8491
 8549TIP3    H247063   5.763   4.900  16.537  1.1047  1.0178 -0.0864
 8550TIP3   OH247064   1.082   3.728  12.103 -0.1359  0.1480 -0.3701
 8550TIP3    H147065   1.152   3.779  12.143 -0.0325  0.3416 -0.8012
 8550TIP3    H247066   1.032   3.790  12.050 -1.9664  0.4972  1.6101
 8551TIP3   OH247067   1.294   5.635  15.298 -0.2488 -1.0206  0.5290
 8551TIP3    H147068   1.310   5.555  15.349 -1.4214 -0.0721  2.4975
 8551TIP3    H247069   1.200   5.649  15.304 -0.3421 -0.5151 -1.4546
 8552TIP3   OH247070   4.670   4.046  13.232  0.3228  0.3466 -0.0818
 8552TIP3    H147071   4.738   4.084  13.288  1.6655 -2.3344  0.2990
 8552TIP3    H247072   4.719   3.998  13.165 -1.2741  1.4515 -2.1527
 8553TIP3   OH247073   4.413   1.251  13.052  0.1768 -0.2891 -0.4102
 8553TIP3    H147074   4.377   1.289  13.132 -0.9375 -1.0649 -0.5155
 8553TIP3    H247075   4.390   1.158  13.057  1.9725 -0.7880 -0.6315
 8554TIP3   OH247076   1.593   5.451  14.898 -0.7356 -0.3646 -0.1621
 8554TIP3    H147077   1.634   5.470  14.814  0.0436 -0.6236  0.1496
 8554TIP3    H247078   1.609   5.530  14.951  0.8458 -1.0808  0.5057
 8555TIP3   OH247079   0.779   5.261   5.668  0.3310  0.1538 -0.0927
 8555TIP3    H147080   0.835   5.183   5.674 -0.1328 -0.1606  0.2863
 8555TIP3    H247081   0.704   5.232   5.616 -0.3981 -0.0073  0.9993
 8556TIP3   OH247082   4.750   0.449   2.995  0.0677  0.5053  0.2146
 8556TIP3    H147083   4.706   0.364   2.995  1.0079 -0.0458 -2.0169
 8556TIP3    H247084   4.803   0.448   3.075 -2.1968  0.2916  1.8095
 8557TIP3   OH247085   2.980   4.004   5.906  0.4379 -0.3554  0.3053
 8557TIP3    H147086   3.064   4.039   5.936 -0.3525  1.4637  0.5263
 8557TIP3    H247087   2.998   3.913   5.885  2.3651 -0.1178  0.7630
 8558TIP3   OH247088   5.754   3.599   0.365  1.1563 -0.1237  0.2720
 8558TIP3    H147089   5.811   3.643   0.302  1.7212  0.9436  1.5052
 8558TIP3    H247090   5.742   3.662   0.435  1.5063 -1.7190  1.8260
 8559TIP3   OH247091   1.717   5.206   0.517  0.7853  0.1281 -0.4669
 8559TIP3    H147092   1.676   5.285   0.551 -0.7448  0.3844 -2.6893
 8559TIP3    H247093   1.716   5.145   0.591  0.5719  1.6412  0.8417
 8560TIP3   OH247094   5.129   1.054  14.775  0.0255 -0.0385  0.3428
 8560TIP3    H147095   5.173   0.998  14.710  0.0362  1.3047 -0.8665
 8560TIP3    H247096   5.106   0.995  14.846  3.1627 -0.9620  0.7401
 8561TIP3   OH247097   1.006   6.723   5.306 -0.0679 -1.0228 -0.6270
 8561TIP3    H147098   1.035   6.653   5.364  0.4478 -1.3148 -1.2259
 8561TIP3    H247099   0.958   6.679   5.237  0.3717 -0.8033 -1.0783
 8562TIP3   OH247100   4.336   4.245  14.970 -0.9517 -0.2196  0.1692
 8562TIP3    H147101   4.408   4.183  14.983  0.6462  1.1925 -1.4355
 8562TIP3    H247102   4.260   4.202  15.009  0.8488 -1.4912  2.5811
 8563TIP3   OH247103   6.501   6.491   3.750 -0.1145  0.2656  0.1977
 8563TIP3    H147104   6.530   6.460   3.835 -1.0391  0.3185  0.5407
 8563TIP3    H247105   6.540   6.578   3.741  1.0458 -0.2641 -0.0053
 8564TIP3   OH247106   0.810   3.027  16.035 -0.2343 -0.3027 -0.4023
 8564TIP3    H147107   0.784   3.102  16.089 -0.3470  0.0072 -0.8842
 8564TIP3    H247108   0.729   2.978  16.022 -0.6150  0.6703 -1.9128
 8565TIP3   OH247109   3.391   3.658  13.152  0.0275  0.3534 -0.1426
 8565TIP3    H147110   3.315   3.715  13.164 -1.6120 -1.5229 -1.0412
 8565TIP3    H247111   3.396   3.607  13.233 -1.8263 -1.8666 -1.3253
 8566TIP3   OH247112   5.668   4.260   0.620  0.0562 -0.0716 -0.1097
 8566TIP3    H147113   5.745   4.252   0.676 -0.7508  2.8514  1.6313
 8566TIP3    H247114   5.604   4.306   0.674 -2.8775 -2.0534 -1.5852
 8567TIP3   OH247115   6.064   5.925  16.869  0.2973  0.1259 -0.1900
 8567TIP3    H147116   6.029   5.958  16.951 -0.2897  1.0739 -0.7991
 8567TIP3    H247117   6.144   5.977  16.855 -0.0849  0.6034 -0.6482
 8568TIP3   OH247118   4.973   1.905   1.064  0.4176 -0.2955  0.0152
 8568TIP3    H147119   5.002   1.834   1.121 -1.6604 -0.4699  0.9765
 8568TIP3    H247120   5.001   1.985   1.110  0.3438 -0.4620  0.3532
 8569TIP3   OH247121   1.900   3.358   0.945  0.3621  0.6208  0.2116
 8569TIP3    H147122   1.805   3.356   0.956  0.5462  0.1346  2.0224
 8569TIP3    H247123   1.923   3.270   0.913  0.4391 -0.2102  2.4174
 8570TIP3   OH247124   0.322   2.046  14.036 -0.0538  0.5537  0.0477
 8570TIP3    H147125   0.327   2.055  13.941  0.4656 -0.0951  0.0059
 8570TIP3    H247126   0.330   1.951  14.052  0.0999  0.6764  0.7456
 8571TIP3   OH247127   2.249   6.045   0.248 -0.4558 -0.3640  0.0512
 8571TIP3    H147128   2.325   6.030   0.303 -1.2137  3.0659  2.3825
 8571TIP3    H247129   2.274   6.119   0.192 -0.8651 -1.6556 -1.9685
 8572TIP3   OH247130   5.382   0.680  13.229  0.0936  0.3898  0.4887
 8572TIP3    H147131   5.316   0.686  13.161  0.8380  0.2034 -0.2663
 8572TIP3    H247132   5.415   0.590  13.224 -1.3424 -0.3374  2.5546
 8573TIP3   OH247133   6.396   4.274   3.097  0.1148 -0.5159  0.1875
 8573TIP3    H147134   6.426   4.326   3.171 -1.0379 -0.9891  1.0284
 8573TIP3    H247135   6.377   4.188   3.134  0.0490 -0.9254 -0.7660
 8574TIP3   OH247136   5.108   0.749   4.445  0.1462 -0.1780  0.2967
 8574TIP3    H147137   5.197   0.767   4.478  0.8194 -4.0608  1.1573
 8574TIP3    H247138   5.121   0.729   4.352  0.1062 -0.2975  0.3168
 8575TIP3   OH247139   5.396   6.432  16.148 -0.4301 -0.0350  0.2476
 8575TIP3    H147140   5.371   6.515  16.188 -2.2609 -0.4945  0.1256
 8575TIP3    H247141   5.314   6.386  16.134  0.5098 -1.6918 -0.1164
 8576TIP3   OH247142   5.601   3.080   4.742 -0.1293 -0.3029 -0.3456
 8576TIP3    H147143   5.601   2.989   4.714  1.9846 -0.0111 -1.4500
 8576TIP3    H247144   5.605   3.131   4.661 -2.5454  0.8856  0.1644
 8577TIP3   OH247145   0.666   2.382   3.807 -0.2472 -0.3832 -0.1331
 8577TIP3    H147146   0.732   2.387   3.876 -0.9752 -1.2320  0.6546
 8577TIP3    H247147   0.716   2.386   3.725  0.6017  1.1219  0.4133
 8578TIP3   OH247148   0.396   0.321   5.572 -0.5834  0.1954  0.2294
 8578TIP3    H147149   0.468   0.258   5.573 -1.1995 -0.7054 -2.5704
 8578TIP3    H247150   0.322   0.273   5.608 -0.2574  0.5270  1.3921
 8579TIP3   OH247151   1.989   1.620  16.393 -0.2565 -0.7688 -0.0466
 8579TIP3    H147152   2.065   1.636  16.337 -1.2096  0.0970 -1.1356
 8579TIP3    H247153   1.945   1.704  16.399 -0.5089 -0.9922  1.5416
 8580TIP3   OH247154   3.289   2.097   4.170 -0.2829  0.2515 -0.1415
 8580TIP3    H147155   3.263   2.049   4.248 -2.2061  0.2936 -0.7130
 8580TIP3    H247156   3.301   2.030   4.103 -2.0717  0.4411 -0.6972
 8581TIP3   OH247157   5.271   3.470   2.478  0.6506 -0.4142 -0.4739
 8581TIP3    H147158   5.259   3.449   2.571 -0.0995 -1.5399 -0.8076
 8581TIP3    H247159   5.238   3.393   2.431  0.2979  0.4470 -1.6954
 8582TIP3   OH247160   3.244   1.870  16.123 -0.0451  0.3585  0.2157
 8582TIP3    H147161   3.179   1.911  16.066  0.4514  1.6790  0.5658
 8582TIP3    H247162   3.324   1.921  16.108  0.2879  0.2510  1.5404
 8583TIP3   OH247163   3.173   6.497   5.781  0.2871  0.2188  0.4420
 8583TIP3    H147164   3.249   6.472   5.833  0.8307 -1.0948 -0.9250
 8583TIP3    H247165   3.099   6.455   5.824  0.4759  0.5758  1.1296
 8584TIP3   OH247166   4.012   0.984  11.859  0.3046 -0.2247 -0.3432
 8584TIP3    H147167   4.010   0.990  11.764  3.4347  1.1209 -0.4573
 8584TIP3    H247168   4.078   1.048  11.886 -0.5259 -0.4950  2.7580
 8585TIP3   OH247169   5.812   1.501   4.206  0.2555  0.0788  0.3358
 8585TIP3    H147170   5.850   1.414   4.222  0.4982  0.0466 -0.3865
 8585TIP3    H247171   5.733   1.484   4.155 -0.1327  0.2301  0.8807
 8586TIP3   OH247172   4.191   4.816  12.140  0.0473 -0.1751  0.4292
 8586TIP3    H147173   4.109   4.803  12.091 -0.5981  1.6174  0.9336
 8586TIP3    H247174   4.168   4.795  12.230  0.6188 -1.2944  0.3209
 8587TIP3   OH247175   3.191   0.135   1.839  0.1179  0.0186 -0.4507
 8587TIP3    H147176   3.234   0.190   1.904 -1.2547 -0.0424  0.5622
 8587TIP3    H247177   3.256   0.067   1.819  0.4467 -0.2056  1.1939
 8588TIP3   OH247178   5.453   6.072   3.642  0.2476  0.4512 -0.5397
 8588TIP3    H147179   5.424   6.010   3.576 -2.8371  0.6519  0.4316
 8588TIP3    H247180   5.523   6.121   3.601 -1.1364  0.1877 -3.4595
 8589TIP3   OH247181   2.864   5.179  10.483  0.5912  0.5235  0.2410
 8589TIP3    H147182   2.861   5.264  10.439  2.3434  0.2681 -0.4390
 8589TIP3    H247183   2.785   5.134  10.453 -0.3620  1.8734  0.5927
 8590TIP3   OH247184   6.597   5.723  12.229 -0.0188  0.0750  0.0289
 8590TIP3    H147185   6.508   5.712  12.194 -0.9362  1.5246  1.7480
 8590TIP3    H247186   6.599   5.814  12.259  2.4004  0.3642 -0.8242
 8591TIP3   OH247187   6.373   1.708   5.679 -0.5129  0.0327 -0.0397
 8591TIP3    H147188   6.423   1.715   5.597  0.3531 -0.8863  0.3822
 8591TIP3    H247189   6.300   1.649   5.657 -0.4808  0.0656 -0.2388
 8592TIP3   OH247190   0.194   5.293   0.093 -0.1859  0.2301  0.3627
 8592TIP3    H147191   0.151   5.232   0.152  2.1890  0.7373  2.7987
 8592TIP3    H247192   0.287   5.268   0.095  0.5385  2.6051 -0.2087
 8593TIP3   OH247193   4.726   4.762  11.227 -0.4217  0.7117  0.3440
 8593TIP3    H147194   4.781   4.828  11.185 -0.5469  0.2508 -0.5927
 8593TIP3    H247195   4.637   4.787  11.204 -0.4064 -1.6638 -3.1865
 8594TIP3   OH247196   2.034   6.373  14.616  0.5201  0.3729  0.1270
 8594TIP3    H147197   2.006   6.286  14.644 -0.3493  0.0094 -1.7247
 8594TIP3    H247198   1.952   6.421  14.602  0.9768  2.1102  2.7568
 8595TIP3   OH247199   1.643   2.698  10.863 -0.6848  0.2597  0.2410
 8595TIP3    H147200   1.679   2.754  10.794 -0.7245 -0.7363 -0.6200
 8595TIP3    H247201   1.566   2.658  10.824 -0.2255 -0.9848  0.5489
 8596TIP3   OH247202   3.630   5.357  14.280  0.1811 -0.3682  0.1080
 8596TIP3    H147203   3.679   5.384  14.358 -1.5171 -1.3698  1.5961
 8596TIP3    H247204   3.660   5.268  14.264 -0.4434 -0.6459  0.4554
 8597TIP3   OH247205   3.467   1.725  13.410 -0.1140 -0.1684  0.3531
 8597TIP3    H147206   3.502   1.737  13.499 -0.4615 -0.9392  0.6006
 8597TIP3    H247207   3.512   1.790  13.358  0.1793  0.2242  1.0798
 8598TIP3   OH247208   1.303   0.252  15.616 -0.7022  0.4826  0.0454
 8598TIP3    H147209   1.365   0.324  15.607  0.1284 -0.1778  0.3068
 8598TIP3    H247210   1.333   0.204  15.693 -1.8239  0.4110  0.4577
 8599TIP3   OH247211   2.065   4.321  16.404 -0.3211  0.0900 -0.1132
 8599TIP3    H147212   2.111   4.245  16.368  0.2704  1.0989 -1.5973
 8599TIP3    H247213   2.093   4.326  16.495  2.2854  0.4568 -0.8557
 8600TIP3   OH247214   2.751   0.677   1.610 -0.2316 -0.2630  0.2085
 8600TIP3    H147215   2.658   0.672   1.632 -0.1718  1.1451  0.8366
 8600TIP3    H247216   2.796   0.664   1.693  0.1253 -0.1763  0.0314
 8601TIP3   OH247217   2.221   0.337   5.244 -0.5302  0.7272  0.3525
 8601TIP3    H147218   2.179   0.286   5.313 -1.1185 -0.1206 -0.6114
 8601TIP3    H247219   2.159   0.335   5.172  0.3804  1.0092 -0.4537
 8602TIP3   OH247220   6.732   4.804  12.632 -0.0944  0.3199 -0.0827
 8602TIP3    H147221   6.638   4.784  12.631 -0.2670  0.9255  1.6486
 8602TIP3    H247222   6.736   4.899  12.638  0.6097  0.2298  1.0107
 8603TIP3   OH247223   3.742   3.154   1.563  0.0772 -0.3679 -0.4811
 8603TIP3    H147224   3.752   3.244   1.532 -0.4842 -0.7190 -1.7393
 8603TIP3    H247225   3.650   3.133   1.547 -0.6635 -0.1013  2.8501
 8604TIP3   OH247226   4.829   4.737  17.067  0.0711  0.2663 -0.4717
 8604TIP3    H147227   4.833   4.820  17.018  1.3709 -0.7521 -2.2166
 8604TIP3    H247228   4.736   4.725  17.086 -0.1521  2.0711 -0.2693
 8605TIP3   OH247229   4.871   5.444   1.044  0.5805 -0.4811  0.0884
 8605TIP3    H147230   4.953   5.489   1.022  1.0899 -1.0112  0.8535
 8605TIP3    H247231   4.886   5.408   1.131 -1.4798  1.8022  1.4762
 8606TIP3   OH247232   1.018   4.912   4.683 -0.1142  0.3779  0.6788
 8606TIP3    H147233   1.009   5.007   4.685  1.4144  0.5390  1.1413
 8606TIP3    H247234   0.928   4.879   4.685 -0.7209  1.8088 -0.8348
 8607TIP3   OH247235   5.952   5.655   6.342  0.6135 -0.0775 -0.2734
 8607TIP3    H147236   5.911   5.719   6.283  2.2040 -0.4693 -1.9187
 8607TIP3    H247237   6.038   5.693   6.361  0.6023 -0.5663  0.8064
 8608TIP3   OH247238   4.934   4.574  15.909 -0.7051  0.1641  0.2080
 8608TIP3    H147239   4.928   4.529  15.825  1.2129 -0.5236  0.4073
 8608TIP3    H247240   4.854   4.628  15.912 -1.7102 -1.1408 -1.2304
 8609TIP3   OH247241   1.604   1.653  13.968 -0.0085 -0.0105  1.1079
 8609TIP3    H147242   1.555   1.721  14.015 -1.2782  0.2101 -0.4640
 8609TIP3    H247243   1.663   1.702  13.911 -0.6236 -0.2084  0.2845
 8610TIP3   OH247244   6.097   2.326   4.284 -0.1549  0.5253 -0.0812
 8610TIP3    H147245   6.108   2.398   4.222  0.0887  0.6640  0.1194
 8610TIP3    H247246   6.003   2.311   4.287 -0.5381  2.6608  1.9024
 8611TIP3   OH247247   5.972   1.884   1.278  0.4494  0.0612  0.1782
 8611TIP3    H147248   5.896   1.935   1.252  0.8564 -0.1290 -1.5344
 8611TIP3    H247249   5.945   1.792   1.269  1.0542 -0.0171 -1.1587
 8612TIP3   OH247250   4.184   5.990  15.779 -0.0969  0.4204 -0.9484
 8612TIP3    H147251   4.187   6.085  15.772  0.2239  0.3413 -2.1147
 8612TIP3    H247252   4.248   5.959  15.715  1.5278 -0.5505  1.0330
 8613TIP3   OH247253   4.624   3.180  11.648 -0.2008  0.1918  0.1798
 8613TIP3    H147254   4.667   3.193  11.564 -0.2661 -0.8153 -0.0252
 8613TIP3    H247255   4.559   3.111  11.631  0.0597 -0.3070  1.1436
 8614TIP3   OH247256   1.717   1.962   4.571 -0.2199 -0.2620 -0.8106
 8614TIP3    H147257   1.773   2.019   4.520  0.1698 -1.2266 -1.4895
 8614TIP3    H247258   1.628   1.989   4.548 -0.0554  0.7515 -0.3189
 8615TIP3   OH247259   2.804   1.605  15.189 -0.3584  0.2075  0.4147
 8615TIP3    H147260   2.764   1.521  15.168  0.5364 -0.8160  2.4939
 8615TIP3    H247261   2.846   1.591  15.274  0.6007  2.5051  0.3964
 8616TIP3   OH247262   2.161   0.500  12.946  0.3863 -0.1995 -0.3255
 8616TIP3    H147263   2.072   0.498  12.910  0.5986  0.6557 -0.9315
 8616TIP3    H247264   2.174   0.412  12.983 -0.1624 -0.8275 -1.5638
 8617TIP3   OH247265   2.441   6.329  16.083 -0.3400 -0.7271 -0.0606
 8617TIP3    H147266   2.428   6.246  16.038  2.1539 -0.7820 -0.8416
 8617TIP3    H247267   2.535   6.346  16.075 -0.6045  1.6496  1.0095
 8618TIP3   OH247268   5.181   6.737   5.662  0.2812  0.2443  0.3194
 8618TIP3    H147269   5.249   6.671   5.660 -0.5180 -0.5845  0.1277
 8618TIP3    H247270   5.100   6.689   5.678 -0.4303  1.0821 -0.6160
 8619TIP3   OH247271   3.798   5.864   4.018  0.1134 -0.0725  0.1153
 8619TIP3    H147272   3.873   5.821   4.059 -0.0119 -0.3502  0.0560
 8619TIP3    H247273   3.836   5.938   3.970  0.3662 -0.2903 -0.0250
 8620TIP3   OH247274   0.332   5.516  10.716  0.0919  0.2730 -0.4587
 8620TIP3    H147275   0.424   5.539  10.731  0.2126  1.1516 -2.2445
 8620TIP3    H247276   0.335   5.429  10.676  0.1530  0.2744 -0.4577
 8621TIP3   OH247277   1.499   0.587  15.339  0.6991 -0.6995 -0.0167
 8621TIP3    H147278   1.466   0.652  15.400  1.4714  0.0473 -0.3720
 8621TIP3    H247279   1.593   0.604  15.333  0.2115  2.0397 -4.5034
 8622TIP3   OH247280   6.687   4.604   2.786 -0.8430  0.0717 -0.2656
 8622TIP3    H147281   6.664   4.598   2.693  0.1210 -2.5279 -0.4223
 8622TIP3    H247282   6.656   4.522   2.824 -0.2331  0.5985  1.4817
 8623TIP3   OH247283   5.050   4.456  12.233  0.1679  0.5300  0.2489
 8623TIP3    H147284   5.053   4.551  12.222  1.6759  0.4612 -0.1781
 8623TIP3    H247285   5.139   4.427  12.215  0.6408 -0.6257  3.8128
 8624TIP3   OH247286   5.300   0.524  11.290 -0.0696 -0.2369  0.2555
 8624TIP3    H147287   5.263   0.529  11.378  1.4446 -0.0952  0.9066
 8624TIP3    H247288   5.389   0.493  11.303  0.2489 -0.0030 -1.2206
 8625TIP3   OH247289   1.041   5.929   2.358 -0.0176  0.6425 -0.1470
 8625TIP3    H147290   1.008   5.980   2.284  0.9022  1.3450 -0.0836
 8625TIP3    H247291   1.010   5.976   2.435 -1.0924 -0.1644 -0.0554
 8626TIP3   OH247292   3.150   1.253   1.771 -0.2688 -0.8017 -0.3021
 8626TIP3    H147293   3.085   1.266   1.841 -0.3483 -1.3872 -0.2644
 8626TIP3    H247294   3.184   1.341   1.754  1.8007 -0.9465  2.4370
 8627TIP3   OH247295   2.554   2.793  15.878  0.0060  0.0987 -0.1367
 8627TIP3    H147296   2.606   2.860  15.921 -1.5708  1.2103  0.1339
 8627TIP3    H247297   2.597   2.777  15.794 -0.6336  2.8852 -1.0783
 8628TIP3   OH247298   3.041   1.935   6.725  0.1084  0.3580 -0.2209
 8628TIP3    H147299   2.980   1.979   6.784  0.3518  1.1470 -0.5425
 8628TIP3    H247300   2.992   1.926   6.643  0.4858  1.1972 -0.5499
 8629TIP3   OH247301   3.873   3.803  11.904  0.2048 -0.0422 -0.2759
 8629TIP3    H147302   3.967   3.791  11.891  0.4574  0.2356  1.1211
 8629TIP3    H247303   3.833   3.725  11.865  0.9917 -0.0876 -1.0187
 8630TIP3   OH247304   4.017   3.667  16.162  0.4439 -0.0574  0.1447
 8630TIP3    H147305   3.947   3.626  16.214 -0.6469  1.0171 -0.4346
 8630TIP3    H247306   4.028   3.754  16.201  0.9398  0.0646 -0.2590
 8631TIP3   OH247307   3.753   3.811  12.217 -0.1055 -0.1928 -0.1409
 8631TIP3    H147308   3.709   3.824  12.133 -0.0229  0.9091 -0.0316
 8631TIP3    H247309   3.689   3.839  12.282  1.2663  3.1718 -0.0459
 8632TIP3   OH247310   3.365   4.588  14.537  0.4131  0.1506 -0.1467
 8632TIP3    H147311   3.327   4.674  14.516 -1.1679 -0.4048  0.2708
 8632TIP3    H247312   3.401   4.556  14.454 -0.8188  0.3497 -0.7772
 8633TIP3   OH247313   4.281   4.350   3.406  0.0116  0.5012  0.2859
 8633TIP3    H147314   4.283   4.359   3.311 -1.3068 -2.5250 -0.1331
 8633TIP3    H247315   4.188   4.341   3.427  0.4357 -2.9596  1.2723
 8634TIP3   OH247316   3.970   4.329  16.000 -0.1658  0.1417 -0.2237
 8634TIP3    H147317   4.002   4.417  16.016 -1.3972  0.5765 -0.0424
 8634TIP3    H247318   4.012   4.302  15.918  0.2992  0.8535 -0.2198
 8635TIP3   OH247319   1.254   2.800   2.498  0.2519 -0.5940 -0.4372
 8635TIP3    H147320   1.325   2.774   2.440  1.0547 -2.0609  1.1348
 8635TIP3    H247321   1.279   2.766   2.584 -1.7011  0.0333  0.4334
 8636TIP3   OH247322   3.750   4.415  12.943  0.1617 -0.2512  0.0655
 8636TIP3    H147323   3.799   4.340  12.910  1.6188 -0.4677  2.4484
 8636TIP3    H247324   3.696   4.380  13.014  0.6572  0.8357  1.0329
 8637TIP3   OH247325   0.860   4.967   5.627 -0.1433  0.3069 -0.0681
 8637TIP3    H147326   0.779   4.937   5.668  0.2481  1.5857  1.7652
 8637TIP3    H247327   0.928   4.912   5.663 -0.0830 -0.3103 -1.0824
 8638TIP3   OH247328   1.571   4.936  13.171  0.0689 -0.0652 -0.0001
 8638TIP3    H147329   1.605   4.928  13.082  0.5856 -0.2755  0.2109
 8638TIP3    H247330   1.639   4.984  13.218  0.5125 -1.3172  0.6638
 8639TIP3   OH247331   2.816   1.891   2.232  0.3512 -0.5697 -0.1049
 8639TIP3    H147332   2.899   1.852   2.206  0.0211  0.7061 -3.5610
 8639TIP3    H247333   2.760   1.883   2.155 -1.1615  2.7096  0.4522
 8640TIP3   OH247334   1.923   6.246  15.292 -0.1981 -0.2086  0.4231
 8640TIP3    H147335   1.909   6.227  15.199  0.0950  0.3797  0.2551
 8640TIP3    H247336   1.847   6.207  15.336 -1.2674  1.0219 -0.2410
 8641TIP3   OH247337   1.370   6.775  16.044 -0.8620  0.6411  0.3322
 8641TIP3    H147338   1.342   6.737  16.127  1.9563 -1.8508  0.3098
 8641TIP3    H247339   1.374   6.869  16.061 -0.9601  0.2636  2.8429
 8642TIP3   OH247340   3.574   6.196  10.552 -0.2457 -0.2188 -0.3783
 8642TIP3    H147341   3.637   6.127  10.529 -0.3363 -1.0652  1.6808
 8642TIP3    H247342   3.489   6.151  10.553 -0.1581 -0.4937  2.2632
 8643TIP3   OH247343   2.977   0.641   4.026 -0.0889  0.2598  0.0362
 8643TIP3    H147344   2.889   0.633   4.064  0.2146 -0.4388  0.6188
 8643TIP3    H247345   3.028   0.685   4.094  0.3582 -0.6290  0.2867
 8644TIP3   OH247346   4.698   3.988   1.050  0.0379  0.5122  0.4120
 8644TIP3    H147347   4.646   3.929   1.105  1.6481  0.1777  1.6486
 8644TIP3    H247348   4.679   3.961   0.960 -2.0933  0.5880  0.7877
 8645TIP3   OH247349   2.472   2.448   2.744 -0.0108  0.4861 -0.1781
 8645TIP3    H147350   2.517   2.520   2.789 -1.4051  1.8007 -0.7740
 8645TIP3    H247351   2.379   2.466   2.758 -0.4080 -2.0406  0.8679
 8646TIP3   OH247352   0.867   3.603  10.340  0.2041  0.5521  0.0767
 8646TIP3    H147353   0.932   3.615  10.409 -1.9779 -1.6973  2.7347
 8646TIP3    H247354   0.901   3.530  10.288  0.6841  0.6169  0.2887
 8647TIP3   OH247355   5.600   3.092   4.334  0.3989  0.2983 -0.3177
 8647TIP3    H147356   5.597   3.173   4.283  0.2451  0.2360 -0.4091
 8647TIP3    H247357   5.513   3.055   4.324  0.5514 -0.0181 -0.5075
 8648TIP3   OH247358   1.714   1.149  12.343  0.0156  0.0241  0.2347
 8648TIP3    H147359   1.780   1.133  12.411  1.0120 -0.5779 -0.8411
 8648TIP3    H247360   1.743   1.097  12.269 -2.8255 -2.0493  0.3916
 8649TIP3   OH247361   3.538   0.372  13.549 -0.0879  0.3019  0.7104
 8649TIP3    H147362   3.585   0.455  13.553  1.6655 -0.6137  0.3783
 8649TIP3    H247363   3.601   0.311  13.509 -2.2768 -0.5278 -1.8066
 8650TIP3   OH247364   6.678   0.401  16.837 -0.0283 -0.4582  0.2104
 8650TIP3    H147365   6.633   0.438  16.761  1.1152  0.6464  0.0374
 8650TIP3    H247366   6.608   0.382  16.900 -0.8982 -0.5925 -0.7808
 8651TIP3   OH247367   2.959   0.023  15.710 -0.5620 -0.4959 -0.1022
 8651TIP3    H147368   3.013   0.097  15.682 -0.1385 -1.1608 -1.1081
 8651TIP3    H247369   2.870   0.048  15.685 -0.4989 -0.1024  0.0529
 8652TIP3   OH247370   4.843   1.596   3.268 -0.4446 -0.3890 -0.0114
 8652TIP3    H147371   4.769   1.602   3.207 -0.7770 -0.3926  0.3939
 8652TIP3    H247372   4.804   1.576   3.352 -0.0232  0.0704  0.3020
 8653TIP3   OH247373   0.166   2.930   1.618 -0.1720  0.2492 -0.5496
 8653TIP3    H147374   0.173   2.878   1.538  1.1613 -0.8940  0.2649
 8653TIP3    H247375   0.238   2.993   1.612 -1.5439  1.8091 -1.3492
 8654TIP3   OH247376   1.990   2.926  13.631  0.1535 -0.1587  0.4648
 8654TIP3    H147377   1.954   2.934  13.543  1.1436  1.0823  0.1465
 8654TIP3    H247378   1.930   2.977  13.686  0.5434  0.5981  0.1967
 8655TIP3   OH247379   2.120   4.399  13.094  0.0269 -0.2417  0.5953
 8655TIP3    H147380   2.099   4.383  13.186  1.5589  0.6933  1.1325
 8655TIP3    H247381   2.186   4.468  13.096  0.7150 -0.8086 -1.1676
 8656TIP3   OH247382   1.062   4.640  11.139 -0.1346  0.0841  0.7785
 8656TIP3    H147383   1.145   4.665  11.098 -1.9309  1.0467 -2.5881
 8656TIP3    H247384   0.995   4.667  11.077 -2.9197 -3.0576  2.1203
 8657TIP3   OH247385   1.877   3.423  11.781  0.3075 -0.2047 -0.1171
 8657TIP3    H147386   1.803   3.362  11.780 -2.3108  2.6854  1.5534
 8657TIP3    H247387   1.929   3.395  11.857  1.0038 -2.1825 -1.2338
 8658TIP3   OH247388   0.757   2.629   3.256 -0.2234  0.0178  0.2585
 8658TIP3    H147389   0.775   2.650   3.165 -0.6933  1.2835  0.4376
 8658TIP3    H247390   0.662   2.636   3.265 -0.1495  0.3302  0.9295
 8659TIP3   OH247391   4.724   4.043   5.235 -0.1603 -0.0472  0.1939
 8659TIP3    H147392   4.708   3.958   5.194  1.7126 -0.0422 -0.6580
 8659TIP3    H247393   4.699   4.107   5.168 -0.1807  0.0390  0.2835
 8660TIP3   OH247394   6.249   1.166  11.608 -0.4100 -0.0232 -0.3214
 8660TIP3    H147395   6.216   1.253  11.584 -0.1964  0.1408 -0.0476
 8660TIP3    H247396   6.173   1.109  11.605 -0.4710  0.0885 -0.9137
 8661TIP3   OH247397   0.147   0.722   0.248 -0.0918 -0.1785  0.2248
 8661TIP3    H147398   0.183   0.772   0.175  1.3216  0.4209  1.2935
 8661TIP3    H247399   0.222   0.676   0.285 -0.6816 -0.0918  1.5909
 8662TIP3   OH247400   5.879   2.276   4.786  0.0777 -0.2834 -0.9894
 8662TIP3    H147401   5.894   2.202   4.844  0.0463  0.2245 -0.3299
 8662TIP3    H247402   5.802   2.320   4.822 -0.0445 -0.0627 -1.5151
 8663TIP3   OH247403   6.116   5.617   6.099  0.0018 -0.0386 -0.1575
 8663TIP3    H147404   6.193   5.612   6.156  2.0438  0.2258 -2.7013
 8663TIP3    H247405   6.050   5.660   6.152  2.1646  1.3355  1.6188
 8664TIP3   OH247406   0.777   2.702  13.730 -0.2689  0.5874 -0.2370
 8664TIP3    H147407   0.692   2.711  13.686  0.1259  0.9082 -0.9416
 8664TIP3    H247408   0.783   2.779  13.786 -0.2512  0.7820 -0.5090
 8665TIP3   OH247409   2.223   4.780   6.207  0.0228 -0.5204  0.2262
 8665TIP3    H147410   2.143   4.830   6.218  1.1620  1.1027  1.5950
 8665TIP3    H247411   2.257   4.768   6.296  0.9092 -1.8556 -0.2532
 8666TIP3   OH247412   6.005   5.338  16.034  0.2890 -0.0573  0.5519
 8666TIP3    H147413   6.032   5.247  16.052  0.4351  0.0824  1.0507
 8666TIP3    H247414   5.983   5.373  16.120  1.0534  0.6453  0.4758
 8667TIP3   OH247415   2.287   0.490   5.950 -0.5988 -0.1063 -0.0717
 8667TIP3    H147416   2.280   0.397   5.974  3.0002 -0.5958 -0.3863
 8667TIP3    H247417   2.350   0.526   6.012 -1.6307  2.0815 -0.2185
 8668TIP3   OH247418   5.310   0.212   5.489 -0.1113 -0.6469 -0.1012
 8668TIP3    H147419   5.376   0.273   5.455  0.3460 -2.3318 -2.5282
 8668TIP3    H247420   5.329   0.205   5.582  3.0289 -0.8816 -0.6634
 8669TIP3   OH247421   3.460   1.263  12.509  0.3293  0.3383 -0.4018
 8669TIP3    H147422   3.462   1.297  12.419 -0.5589  2.9799  0.4711
 8669TIP3    H247423   3.486   1.337  12.563 -1.4254 -0.4639  1.6883
 8670TIP3   OH247424   1.413   3.793  11.212  0.5012 -0.2867 -0.0160
 8670TIP3    H147425   1.410   3.700  11.191  1.8306 -0.2113 -0.6431
 8670TIP3    H247426   1.501   3.821  11.186 -0.0206  1.2378 -0.2796
 8671TIP3   OH247427   2.473   6.215   5.929  0.0604  0.1090  0.3422
 8671TIP3    H147428   2.461   6.301   5.970 -0.1175  0.9074 -1.3046
 8671TIP3    H247429   2.561   6.188   5.957  0.4431  1.1981  0.2661
 8672TIP3   OH247430   1.872   2.124   2.449  0.1066 -0.7892 -0.3689
 8672TIP3    H147431   1.933   2.106   2.377  0.3898 -2.7784  0.2976
 8672TIP3    H247432   1.848   2.037   2.482  0.9380  0.0471  2.7580
 8673TIP3   OH247433   1.709   0.409  13.676  0.0822 -0.0776  0.6499
 8673TIP3    H147434   1.730   0.349  13.748  0.6460  0.1125  0.6489
 8673TIP3    H247435   1.794   0.432  13.639 -0.2098 -0.2732 -0.1657
 8674TIP3   OH247436   5.980   4.625   1.191 -0.3273 -0.0911 -0.0114
 8674TIP3    H147437   6.066   4.632   1.232  0.1662  0.4060 -1.0854
 8674TIP3    H247438   5.928   4.695   1.232  0.6137  1.4074 -1.2696
 8675TIP3   OH247439   6.200   2.643  14.947  0.3359  0.5889 -0.2450
 8675TIP3    H147440   6.188   2.562  14.996 -1.6571  1.4772  0.8468
 8675TIP3    H247441   6.153   2.630  14.865 -0.1114  0.6824 -0.0053
 8676TIP3   OH247442   1.054   0.162   1.707 -0.2381  0.4492  0.3832
 8676TIP3    H147443   1.129   0.132   1.656 -0.3415 -0.4166  0.7296
 8676TIP3    H247444   1.092   0.207   1.782 -0.0815  0.9446  0.0156
 8677TIP3   OH247445   5.498   3.984  13.208  0.0626 -0.0117  0.2349
 8677TIP3    H147446   5.567   3.919  13.191  1.5361  1.4492  0.3832
 8677TIP3    H247447   5.504   4.001  13.302  1.3892  2.0770 -0.1596
 8678TIP3   OH247448   3.300   5.018  16.213  0.5670 -0.1209  0.0160
 8678TIP3    H147449   3.394   5.028  16.227  0.5792 -1.1404  0.7683
 8678TIP3    H247450   3.293   4.957  16.140  0.4726  0.9716 -0.9243
 8679TIP3   OH247451   1.665   0.627   1.015  0.0753  0.3805 -0.0994
 8679TIP3    H147452   1.749   0.584   0.994  0.4258  1.3482 -0.7342
 8679TIP3    H247453   1.603   0.587   0.954 -0.6027 -2.3525  2.1452
 8680TIP3   OH247454   6.094   6.279   5.156 -0.6923 -0.0159 -0.1802
 8680TIP3    H147455   6.061   6.363   5.187  2.7065  1.0066  1.1508
 8680TIP3    H247456   6.145   6.245   5.230  1.4189 -1.1985 -2.0707
 8681TIP3   OH247457   1.437   3.255  14.896 -0.3765  0.3869  0.1760
 8681TIP3    H147458   1.497   3.206  14.951 -1.5752  0.1325  1.3149
 8681TIP3    H247459   1.383   3.305  14.958  0.1441  2.3932 -0.8975
 8682TIP3   OH247460   4.182   0.314  13.922 -0.0500 -0.8227 -0.0315
 8682TIP3    H147461   4.231   0.356  13.851 -0.2196 -1.9695 -0.8423
 8682TIP3    H247462   4.145   0.388  13.971  1.3413  0.0388 -0.1909
 8683TIP3   OH247463   1.712   4.329  14.702 -0.1748  0.7819  0.5258
 8683TIP3    H147464   1.669   4.244  14.691  1.6023 -0.0728 -0.0769
 8683TIP3    H247465   1.786   4.312  14.759  0.9883  1.6303 -0.6736
 8684TIP3   OH247466   4.182   5.283   4.775  0.4404 -0.6467 -0.0442
 8684TIP3    H147467   4.266   5.318   4.806 -0.1769  2.5364 -1.5848
 8684TIP3    H247468   4.138   5.252   4.854  1.4979  1.2376  1.3522
 8685TIP3   OH247469   0.600   0.424  16.479  0.4577  0.0775  0.6041
 8685TIP3    H147470   0.579   0.508  16.439  1.4558  1.8384  3.5243
 8685TIP3    H247471   0.526   0.367  16.457  0.3995  1.1726 -2.6172
 8686TIP3   OH247472   0.198   4.863  13.764  0.5128 -0.1467  0.6543
 8686TIP3    H147473   0.217   4.788  13.709 -1.1059  1.2132 -1.9388
 8686TIP3    H247474   0.284   4.891  13.796  1.5910 -0.8268 -1.4510
 8687TIP3   OH247475   4.426   6.108  13.847 -0.1341  0.2743 -0.0205
 8687TIP3    H147476   4.488   6.070  13.909  0.4554 -0.3789 -1.0013
 8687TIP3    H247477   4.477   6.170  13.796 -1.0127  2.2674  1.3475
 8688TIP3   OH247478   6.264   2.926  13.470  0.9142 -0.3385  0.0014
 8688TIP3    H147479   6.235   2.852  13.417  0.4608 -1.1074  1.3029
 8688TIP3    H247480   6.355   2.940  13.443  1.2589 -1.8802  0.2995
 8689TIP3   OH247481   5.408   0.747   1.392  0.4618  0.0504  0.4085
 8689TIP3    H147482   5.375   0.670   1.438 -1.3572  1.1599  1.0421
 8689TIP3    H247483   5.382   0.821   1.446 -1.4692  1.3881 -2.1245
 8690TIP3   OH247484   0.703   5.096   5.907 -0.3962 -0.3603  0.7728
 8690TIP3    H147485   0.660   5.035   5.847 -1.5486 -0.2688  1.4767
 8690TIP3    H247486   0.713   5.176   5.856 -0.5801 -0.5600  0.4194
 8691TIP3   OH247487   6.712   4.059   2.387  0.2569  0.5035  0.2368
 8691TIP3    H147488   6.687   4.146   2.356 -0.6421  0.1161 -0.1545
 8691TIP3    H247489   6.724   4.070   2.482 -1.4557  0.7070  0.4596
 8692TIP3   OH247490   1.806   6.801  16.468 -0.0147 -0.5304  0.3077
 8692TIP3    H147491   1.769   6.714  16.479  1.3703 -1.5114 -2.1544
 8692TIP3    H247492   1.749   6.844  16.404  0.1978 -0.1988  0.3351
 8693TIP3   OH247493   2.281   6.801  13.068  0.2918  0.0638  0.0165
 8693TIP3    H147494   2.295   6.717  13.112 -0.8282 -0.0002  0.2756
 8693TIP3    H247495   2.333   6.794  12.988  0.0582 -0.9645 -0.0697
 8694TIP3   OH247496   3.271   0.939  13.822 -0.2603 -0.1196 -0.2829
 8694TIP3    H147497   3.335   1.005  13.850 -0.3076 -0.3577  0.3910
 8694TIP3    H247498   3.310   0.900  13.744  0.7245 -0.6897  0.4686
 8695TIP3   OH247499   5.051   0.232  12.852  0.1554  0.5366 -0.0660
 8695TIP3    H147500   5.126   0.201  12.801  0.0168 -0.1632  0.1438
 8695TIP3    H247501   5.087   0.254  12.938  0.3507  1.5100 -0.3818
 8696TIP3   OH247502   3.852   3.268  13.720  0.0253 -0.1732 -0.5067
 8696TIP3    H147503   3.840   3.211  13.796  1.4998  1.7533  1.3201
 8696TIP3    H247504   3.926   3.230  13.673  1.4215  0.4688  1.0518
 8697TIP3   OH247505   3.853   2.884   4.382  0.0626  0.3676  0.1799
 8697TIP3    H147506   3.790   2.904   4.313  0.8362  1.7556 -0.1749
 8697TIP3    H247507   3.819   2.928   4.460  0.2602  0.5844  0.1455
 8698TIP3   OH247508   0.052   5.040  15.910 -0.0114  0.5318  0.0199
 8698TIP3    H147509   0.041   5.090  15.828 -0.7361  0.5396  0.1160
 8698TIP3    H247510  -0.020   5.070  15.966  0.6105  0.6855  0.7469
 8699TIP3   OH247511   3.559   6.494   4.242  0.4210  0.1797 -0.2476
 8699TIP3    H147512   3.501   6.552   4.193 -0.4409  0.5161  1.1227
 8699TIP3    H247513   3.576   6.422   4.182  0.5105  1.2308 -1.5329
 8700TIP3   OH247514   2.339   3.448  13.571 -0.0550  0.3943  0.1280
 8700TIP3    H147515   2.271   3.397  13.527  0.7992  1.1570 -2.2666
 8700TIP3    H247516   2.313   3.450  13.663 -2.5479 -0.4345 -0.4966
 8701TIP3   OH247517   3.666   2.698   2.849 -0.2250  0.4467  0.0650
 8701TIP3    H147518   3.603   2.632   2.878 -1.5139  1.7696  0.3953
 8701TIP3    H247519   3.730   2.703   2.920 -0.5334  0.0940  0.3711
 8702TIP3   OH247520   6.412   0.162   1.022  0.2568 -0.7642  0.0313
 8702TIP3    H147521   6.376   0.224   0.958  2.3704  0.7731  0.1997
 8702TIP3    H247522   6.347   0.092   1.028 -3.0668  2.1062  0.9515
 8703TIP3   OH247523   3.669   0.559  15.285 -0.9417 -0.0196  0.1401
 8703TIP3    H147524   3.698   0.648  15.266 -0.8103 -0.2704 -0.9087
 8703TIP3    H247525   3.661   0.556  15.380 -1.3876  1.2374  0.1595
 8704TIP3   OH247526   6.699   4.821   3.687  0.4537  0.2766 -0.8493
 8704TIP3    H147527   6.670   4.741   3.731  0.8025  0.5170 -0.1586
 8704TIP3    H247528   6.789   4.833   3.717  0.9433  0.0807 -2.1831
 8705TIP3   OH247529   6.038   5.913  15.822  0.1048  0.0995 -0.2045
 8705TIP3    H147530   5.953   5.896  15.862 -0.0505 -1.5713 -1.1749
 8705TIP3    H247531   6.044   6.008  15.819 -0.7012  0.2952  1.9909
 8706TIP3   OH247532   4.433   2.608  16.781  0.0094 -0.5033  0.4273
 8706TIP3    H147533   4.451   2.620  16.688 -0.5092  0.4207  0.4391
 8706TIP3    H247534   4.520   2.597  16.820  0.5142  1.9662  0.2106
 8707TIP3   OH247535   4.476   6.295   6.347  0.2012  0.1877 -0.1898
 8707TIP3    H147536   4.393   6.336   6.321  0.9502  2.7209  1.1395
 8707TIP3    H247537   4.543   6.356   6.318  1.4723 -0.6761  0.8374
 8708TIP3   OH247538   4.804   0.403   6.325 -0.3630  0.5653  0.1694
 8708TIP3    H147539   4.887   0.416   6.371 -1.2795  3.1609  1.3035
 8708TIP3    H247540   4.737   0.423   6.390 -2.0480 -2.9999 -0.2338
 8709TIP3   OH247541   6.793   0.883  16.296 -0.3755 -0.3143  0.2236
 8709TIP3    H147542   6.715   0.827  16.297 -0.3090 -0.4103  0.7664
 8709TIP3    H247543   6.810   0.901  16.389 -1.3522  1.9653  0.0242
 8710TIP3   OH247544   6.228   2.830   3.450  0.0802  0.3293  0.1071
 8710TIP3    H147545   6.137   2.858   3.445  0.6209  2.0462 -1.2554
 8710TIP3    H247546   6.271   2.875   3.377  1.8589 -1.0937  0.1901
 8711TIP3   OH247547   6.177   6.670   1.736 -0.0975  0.1458 -0.2278
 8711TIP3    H147548   6.107   6.605   1.744  1.2144 -1.2439  0.3746
 8711TIP3    H247549   6.257   6.619   1.734  1.1096  1.7843  1.7708
 8712TIP3   OH247550   1.395   1.722   2.382  0.2346 -0.2403 -0.6180
 8712TIP3    H147551   1.342   1.786   2.428  0.0813  0.3376 -1.5756
 8712TIP3    H247552   1.433   1.770   2.308  3.6802 -0.0816  1.0368
 8713TIP3   OH247553   2.421   6.358   3.477  0.0956 -0.0788 -0.2127
 8713TIP3    H147554   2.486   6.423   3.453  1.2587 -1.2197 -0.2805
 8713TIP3    H247555   2.338   6.395   3.447  0.7202  1.3166 -0.3121
 8714TIP3   OH247556   4.414   3.736   1.898  0.1453 -0.0072 -0.2712
 8714TIP3    H147557   4.402   3.650   1.939  0.0268 -0.3190 -0.9425
 8714TIP3    H247558   4.333   3.783   1.917  0.7581  0.4750  1.2899
 8715TIP3   OH247559   0.529   5.994  11.699  0.0371  0.3460 -0.0905
 8715TIP3    H147560   0.452   5.940  11.680 -2.0776  3.4362 -1.0989
 8715TIP3    H247561   0.531   5.999  11.795 -1.5566  0.8430 -0.0530
 8716TIP3   OH247562   5.524   6.029   3.904 -1.2661  0.2002  0.3839
 8716TIP3    H147563   5.475   6.070   3.976 -0.5095  0.5013  0.7342
 8716TIP3    H247564   5.461   6.026   3.832 -2.2859 -0.8042  1.2694
 8717TIP3   OH247565   6.039   4.466  13.260  0.3710  0.2297 -0.0968
 8717TIP3    H147566   5.951   4.466  13.221  0.1389  1.9409  0.3108
 8717TIP3    H247567   6.031   4.413  13.338 -0.2230  0.0941 -0.2442
 8718TIP3   OH247568   4.686   2.435   5.509 -0.9398  0.6851  0.3540
 8718TIP3    H147569   4.740   2.435   5.588 -0.7941 -0.1196  0.2609
 8718TIP3    H247570   4.738   2.388   5.445 -0.6411  2.1401 -0.5331
 8719TIP3   OH247571   0.701   5.820  12.856  0.1444 -1.2413  0.1204
 8719TIP3    H147572   0.700   5.905  12.900  0.3625 -1.0511 -0.2304
 8719TIP3    H247573   0.634   5.827  12.788  0.4137 -1.2167 -0.1457
 8720TIP3   OH247574   0.361   4.966  14.801  0.1659 -0.2600 -0.6106
 8720TIP3    H147575   0.278   5.014  14.804  0.0358 -0.5283  0.7370
 8720TIP3    H247576   0.428   5.034  14.792 -0.0702  0.1230  0.4071
 8721TIP3   OH247577   5.499   6.495  15.420  0.8281 -0.1557  0.5988
 8721TIP3    H147578   5.542   6.438  15.484  2.9159  0.8299  0.1640
 8721TIP3    H247579   5.420   6.448  15.395  1.7330 -2.1771  1.3253
 8722TIP3   OH247580   1.857   1.825  16.700  0.2775  0.5271 -0.5374
 8722TIP3    H147581   1.861   1.732  16.678 -1.6293 -0.0488  1.1832
 8722TIP3    H247582   1.763   1.844  16.706  0.6432  2.3899 -0.1522
 8723TIP3   OH247583   3.075   4.795  14.110  0.5318  0.2474 -0.0882
 8723TIP3    H147584   2.990   4.778  14.070 -0.0001  3.9400 -0.8757
 8723TIP3    H247585   3.138   4.777  14.041 -0.0015  1.6382 -0.9787
 8724TIP3   OH247586   1.205   4.036   0.767  0.2200 -0.4743  0.5202
 8724TIP3    H147587   1.190   3.945   0.743 -1.6389 -0.2572  0.7438
 8724TIP3    H247588   1.301   4.045   0.766  0.4051 -1.9462 -1.2399
 8725TIP3   OH247589   4.828   6.684   6.304 -0.1253 -0.6637 -0.7656
 8725TIP3    H147590   4.823   6.745   6.230 -1.6751  2.3401  1.5632
 8725TIP3    H247591   4.769   6.613   6.281 -1.4009  0.7276 -2.0134
 8726TIP3   OH247592   0.461   1.111   0.211 -0.1448 -0.6225 -0.2192
 8726TIP3    H147593   0.483   1.202   0.193  0.9957 -0.7502  0.4072
 8726TIP3    H247594   0.423   1.079   0.129  1.8122 -0.2756 -1.3267
 8727TIP3   OH247595   6.479   1.398  12.487 -0.1988 -0.2864 -0.7453
 8727TIP3    H147596   6.398   1.355  12.458 -0.8892  1.0393 -0.8282
 8727TIP3    H247597   6.549   1.343  12.450 -0.9780 -2.6515  1.0107
 8728TIP3   OH247598   5.807   1.099   2.571  0.1365  0.3296  0.2866
 8728TIP3    H147599   5.893   1.063   2.548  0.7798  0.9285  1.6265
 8728TIP3    H247600   5.801   1.087   2.666 -0.7199  1.4278  0.3906
 8729TIP3   OH247601   2.089   3.705  15.681 -0.4717  0.3287 -0.1387
 8729TIP3    H147602   2.051   3.619  15.697 -2.5916  1.3734  0.8229
 8729TIP3    H247603   2.069   3.725  15.589 -0.8590  0.2173 -0.0765
 8730TIP3   OH247604   2.428   0.310  15.815  0.1767  1.5106 -0.2155
 8730TIP3    H147605   2.444   0.318  15.721  1.8958 -0.5770 -0.1856
 8730TIP3    H247606   2.499   0.360  15.856 -0.0101  1.6325 -0.0401
 8731TIP3   OH247607   4.117   2.105   1.111  0.0851  0.1945 -0.0553
 8731TIP3    H147608   4.172   2.176   1.080 -0.3871  0.2436 -0.8189
 8731TIP3    H247609   4.092   2.129   1.200  0.9835  0.3496  0.1554
 8732TIP3   OH247610   5.595   3.113  16.220 -0.0351  0.1299  0.6741
 8732TIP3    H147611   5.621   3.052  16.151 -0.4070  0.3211  0.3545
 8732TIP3    H247612   5.643   3.194  16.201 -0.3030  0.2527  0.5048
 8733TIP3   OH247613   5.559   3.595  14.938 -0.0569  0.4457  0.3954
 8733TIP3    H147614   5.593   3.562  15.022  0.3551  0.5053  0.2540
 8733TIP3    H247615   5.622   3.564  14.873 -0.9375 -0.4941 -0.0295
 8734TIP3   OH247616   4.928   3.187   0.568 -0.3110  0.1171 -0.3268
 8734TIP3    H147617   4.902   3.250   0.500 -2.7725  1.3565  1.5953
 8734TIP3    H247618   4.958   3.242   0.641  0.0932 -1.0702  0.4169
 8735TIP3   OH247619   0.070   3.189  11.391 -0.0522 -0.3895  0.2783
 8735TIP3    H147620   0.077   3.094  11.389  1.7636 -0.3671  1.7163
 8735TIP3    H247621   0.014   3.212  11.317 -1.3497 -2.6186  0.4940
 8736TIP3   OH247622   2.741   4.871  13.644 -0.7088  0.0629 -0.1227
 8736TIP3    H147623   2.687   4.938  13.602 -0.5180  0.5413  0.3806
 8736TIP3    H247624   2.697   4.789  13.625 -1.3819  0.4096 -0.0662
 8737TIP3   OH247625   2.834   0.048   2.802 -0.2555  0.3452  0.2672
 8737TIP3    H147626   2.911  -0.001   2.830 -0.3138 -0.7005 -1.2588
 8737TIP3    H247627   2.857   0.139   2.817  0.5995 -0.0293  1.4193
 8738TIP3   OH247628   1.662   5.920  14.575 -0.0542 -0.3704  0.4124
 8738TIP3    H147629   1.604   5.849  14.604  0.0898 -1.3079 -1.3834
 8738TIP3    H247630   1.732   5.875  14.528  1.0240  0.8819  0.7716
 8739TIP3   OH247631   6.192   2.281   3.335 -0.0624 -0.2015 -0.1095
 8739TIP3    H147632   6.188   2.337   3.413 -0.0657  0.6211 -0.6889
 8739TIP3    H247633   6.280   2.244   3.337  0.5343  1.1330 -0.5985
 8740TIP3   OH247634   1.462   3.310   0.540 -0.0442 -0.1778  0.7104
 8740TIP3    H147635   1.386   3.332   0.595  0.1635  0.3698  0.7759
 8740TIP3    H247636   1.435   3.333   0.452  0.3877  0.9132  0.8523
 8741TIP3   OH247637   3.876   6.186   1.627 -0.3637 -0.2336  0.0542
 8741TIP3    H147638   3.931   6.166   1.702 -0.1496  0.1053 -0.0094
 8741TIP3    H247639   3.908   6.271   1.596 -0.4136 -0.3945 -0.4474
 8742TIP3   OH247640   3.833   4.105  13.945  0.3771 -0.5438  0.1754
 8742TIP3    H147641   3.792   4.082  14.029  2.0230  1.1210  1.5268
 8742TIP3    H247642   3.890   4.180  13.966  1.7613 -0.8326 -2.1890
 8743TIP3   OH247643   2.604   5.498   2.570 -0.3177 -0.1317 -0.1264
 8743TIP3    H147644   2.541   5.454   2.626 -0.0800  1.0454  1.0973
 8743TIP3    H247645   2.671   5.431   2.553  0.3011 -0.1571  2.1170
 8744TIP3   OH247646   0.975   6.188   1.765  0.0596  0.4987 -0.8261
 8744TIP3    H147647   0.999   6.106   1.723  0.5951  0.6491 -0.8220
 8744TIP3    H247648   0.926   6.236   1.698  1.0490  0.8042 -1.3572
 8745TIP3   OH247649   2.975   4.631   2.712  0.3015 -0.4196  0.0781
 8745TIP3    H147650   2.915   4.705   2.720  0.1773 -0.5420  0.2961
 8745TIP3    H247651   2.984   4.618   2.618 -0.3208 -0.6402  0.0459
 8746TIP3   OH247652   0.444   3.968  10.844 -0.7443 -0.0607 -0.5438
 8746TIP3    H147653   0.409   3.932  10.763 -2.6086  1.5518 -0.5246
 8746TIP3    H247654   0.503   4.037  10.816 -0.0531 -0.6269 -0.5205
 8747TIP3   OH247655   6.174   2.382   1.620  0.1579 -0.1111  0.5740
 8747TIP3    H147656   6.219   2.400   1.537 -0.8596 -0.3893 -0.0516
 8747TIP3    H247657   6.081   2.390   1.599 -0.1103 -0.2489  1.6798
 8748TIP3   OH247658   2.092   4.768   1.152 -0.5361 -0.1888  0.0450
 8748TIP3    H147659   2.168   4.788   1.098 -0.3602 -0.6058  0.1331
 8748TIP3    H247660   2.119   4.693   1.205 -0.6838  0.2388  0.7478
 8749TIP3   OH247661   2.196   4.445   4.837 -0.1888 -0.2681 -0.1981
 8749TIP3    H147662   2.110   4.427   4.800 -0.6307 -1.0120  1.1044
 8749TIP3    H247663   2.205   4.380   4.907  0.6685  0.9435  0.8512
 8750TIP3   OH247664   0.313   3.924  15.103  0.0612  0.5205 -0.6498
 8750TIP3    H147665   0.257   3.917  15.181  0.3585 -2.0794 -0.6013
 8750TIP3    H247666   0.401   3.940  15.138  0.0401  0.3143 -0.4999
 8751TIP3   OH247667   0.916   5.906   0.698  0.7778  0.3122 -0.0919
 8751TIP3    H147668   0.825   5.935   0.704  0.8265  0.8759 -1.7280
 8751TIP3    H247669   0.967   5.987   0.707  0.9699  0.5678 -2.8233
 8752TIP3   OH247670   0.356   5.418  14.341 -0.4664 -0.2296 -0.3167
 8752TIP3    H147671   0.392   5.366  14.413  2.2517  0.0373 -1.3749
 8752TIP3    H247672   0.342   5.355  14.271 -0.5165 -0.0791 -0.4425
 8753TIP3   OH247673   4.228   4.644  10.200 -0.1289 -0.0397 -0.0794
 8753TIP3    H147674   4.223   4.619  10.292 -0.1521 -0.3489 -0.1602
 8753TIP3    H247675   4.317   4.620  10.173 -0.5646 -1.2763 -0.4966
 8754TIP3   OH247676   3.036   0.994  11.405 -0.0324 -0.4734 -0.5910
 8754TIP3    H147677   2.962   0.965  11.352 -1.6104 -0.1742  1.3406
 8754TIP3    H247678   3.094   1.039  11.343 -1.7393 -0.1977 -2.0471
 8755TIP3   OH247679   5.374   0.041  14.783  0.1850 -0.0154  0.5152
 8755TIP3    H147680   5.295   0.037  14.730  0.7235  1.1417 -0.3977
 8755TIP3    H247681   5.343   0.025  14.873 -0.9280 -0.5381  0.0557
 8756TIP3   OH247682   2.636   4.957   5.414 -0.1245 -0.4751 -0.0430
 8756TIP3    H147683   2.731   4.943   5.411 -0.1200 -0.4872  0.1622
 8756TIP3    H247684   2.619   4.990   5.502 -0.3725 -0.9253  0.0813
 8757TIP3   OH247685   1.109   3.352   5.974 -0.2067  0.3508  0.2705
 8757TIP3    H147686   1.124   3.365   5.880  3.0042 -0.1730  0.5761
 8757TIP3    H247687   1.045   3.282   5.979 -0.8305  0.7448 -1.5087
 8758TIP3   OH247688   0.085   5.399  14.533  0.5064 -0.1434 -0.2998
 8758TIP3    H147689   0.110   5.420  14.623  0.4486  0.2485 -0.3762
 8758TIP3    H247690   0.167   5.404  14.484  0.3542  0.7159 -0.4702
 8759TIP3   OH247691   0.348   5.935   6.186  0.2155  0.2787 -0.1049
 8759TIP3    H147692   0.289   6.010   6.197 -0.2560 -0.0293 -0.4467
 8759TIP3    H247693   0.336   5.884   6.265  1.6971  1.3230  0.8470
 8760TIP3   OH247694   4.870   4.994  16.966 -0.0344  0.2980  0.3612
 8760TIP3    H147695   4.868   5.039  16.882  0.4082 -1.7399 -0.8140
 8760TIP3    H247696   4.940   5.038  17.015 -0.3891  1.5980 -0.2704
 8761TIP3   OH247697   1.610   3.922   3.893 -0.6062 -0.6624 -0.2487
 8761TIP3    H147698   1.669   3.865   3.843 -1.7292 -1.0368 -1.1973
 8761TIP3    H247699   1.533   3.932   3.837 -0.5459  1.6376 -0.0371
 8762TIP3   OH247700   4.302   1.102   3.600 -0.3830 -0.2462  0.2500
 8762TIP3    H147701   4.278   1.155   3.524 -0.3774  0.0293  0.4381
 8762TIP3    H247702   4.293   1.011   3.571  0.6015 -0.1445 -0.3931
 8763TIP3   OH247703   1.083   0.641   1.486 -0.1093 -0.5564  0.1534
 8763TIP3    H147704   1.022   0.654   1.413 -0.8717  1.1643  1.0388
 8763TIP3    H247705   1.028   0.647   1.565  0.9828 -0.4714  0.9303
 8764TIP3   OH247706   1.460   4.896   4.419 -0.0212  0.0269  0.4384
 8764TIP3    H147707   1.398   4.852   4.477  0.0628 -1.3823 -0.4789
 8764TIP3    H247708   1.498   4.825   4.367  2.3544  0.8313  0.9489
 8765TIP3   OH247709   1.750   6.399   2.429 -0.3226 -0.1197 -0.5815
 8765TIP3    H147710   1.789   6.486   2.438  0.9052 -0.8103  1.6383
 8765TIP3    H247711   1.683   6.395   2.498  0.2275 -1.2033 -0.0800
 8766TIP3   OH247712   2.158   0.421   0.937 -0.2027 -0.2485  0.1690
 8766TIP3    H147713   2.112   0.474   0.872  2.2469  2.1450  0.2048
 8766TIP3    H247714   2.250   0.424   0.910  0.7563 -0.1282  3.0273
 8767TIP3   OH247715   5.574   1.951   1.321  0.4943 -0.0937 -0.2590
 8767TIP3    H147716   5.657   1.990   1.295  0.1825  0.1916 -0.8492
 8767TIP3    H247717   5.508   2.009   1.283 -0.0149  1.3806  2.6176
 8768TIP3   OH247718   3.352   4.250   0.333 -0.5097 -0.1618 -0.0314
 8768TIP3    H147719   3.332   4.233   0.425  0.3060  0.2881  0.2379
 8768TIP3    H247720   3.344   4.345   0.324  0.7722 -0.0484 -0.0871
 8769TIP3   OH247721   3.023   4.481  14.672 -0.0236 -0.5255 -0.1836
 8769TIP3    H147722   2.991   4.517  14.590  0.4211  0.3147  0.0072
 8769TIP3    H247723   3.059   4.556  14.719  0.0921 -1.0673  0.6045
 8770TIP3   OH247724   6.208   4.010  11.222 -0.1711  0.3335 -0.4340
 8770TIP3    H147725   6.266   3.943  11.261 -0.8867 -0.0347  0.0203
 8770TIP3    H247726   6.267   4.064  11.169  0.7396  0.4656  0.6660
 8771TIP3   OH247727   6.398   1.949  11.983  0.4795  0.1831 -0.3972
 8771TIP3    H147728   6.386   1.939  11.889  1.2618  1.2231 -0.6217
 8771TIP3    H247729   6.467   2.015  11.992 -1.2226  1.8850  0.9113
 8772TIP3   OH247730   0.569   0.856   2.335  0.2029  0.5916 -0.5482
 8772TIP3    H147731   0.545   0.899   2.417 -0.6233 -1.2227  0.2083
 8772TIP3    H247732   0.492   0.868   2.279 -0.5180 -0.8841  0.0902
 8773TIP3   OH247733   4.647   1.534   1.577 -0.3343  0.4604 -0.2346
 8773TIP3    H147734   4.665   1.455   1.528 -4.9044 -0.4844 -0.8769
 8773TIP3    H247735   4.693   1.603   1.530 -0.3197 -1.1448 -2.7375
 8774TIP3   OH247736   0.342   6.704   5.544 -0.5102  0.1913 -0.1747
 8774TIP3    H147737   0.370   6.670   5.630 -0.6223  1.7478  0.5042
 8774TIP3    H247738   0.249   6.724   5.555  0.3888  4.9690  1.0184
 8775TIP3   OH247739   2.596   2.299  13.499  0.2708  0.4426 -0.5019
 8775TIP3    H147740   2.527   2.331  13.441 -1.4209 -0.7692  0.7535
 8775TIP3    H247741   2.595   2.358  13.574  0.4836  0.3165 -0.3950
 8776TIP3   OH247742   4.669   5.944   4.155 -0.1272 -0.1104  0.4265
 8776TIP3    H147743   4.586   5.988   4.173 -1.0823 -0.4957 -2.4517
 8776TIP3    H247744   4.653   5.852   4.175 -1.0738 -0.4822 -1.6930
 8777TIP3   OH247745   0.797   1.848   5.607 -0.5558  0.0236  0.6033
 8777TIP3    H147746   0.767   1.937   5.590  1.2007  0.5225 -0.0985
 8777TIP3    H247747   0.763   1.827   5.694 -1.4528  1.1617  0.5493
 8778TIP3   OH247748   1.257   0.827   4.624  0.9475 -0.5298  0.4777
 8778TIP3    H147749   1.197   0.760   4.592  0.4740 -0.3331  0.9368
 8778TIP3    H247750   1.204   0.880   4.683  1.8167 -0.9634  1.6871
 8779TIP3   OH247751   6.482   0.439  14.336  0.1356  0.0999 -0.8521
 8779TIP3    H147752   6.407   0.404  14.384  0.8180 -0.3303 -0.0619
 8779TIP3    H247753   6.524   0.363  14.296  1.0517  0.1102  0.0358
 8780TIP3   OH247754   4.817   2.472  13.552  0.2721 -0.3731 -0.1419
 8780TIP3    H147755   4.874   2.549  13.549  0.3317 -0.4321 -0.5937
 8780TIP3    H247756   4.729   2.508  13.540  0.3115 -0.3832 -0.4863
 8781TIP3   OH247757   4.784   3.562   3.916  0.9045 -0.3366 -0.1452
 8781TIP3    H147758   4.791   3.568   4.011  1.1652  0.7575 -0.2243
 8781TIP3    H247759   4.690   3.551   3.900  0.7213  0.5992  0.1975
 8782TIP3   OH247760   0.911   1.886   1.833  0.5898  0.3728  0.7079
 8782TIP3    H147761   0.995   1.882   1.788 -1.2818 -0.4862 -3.0761
 8782TIP3    H247762   0.870   1.966   1.801 -1.4748 -1.0888 -0.5481
 8783TIP3   OH247763   5.658   2.888  15.086 -0.2125  0.1712 -0.0520
 8783TIP3    H147764   5.572   2.865  15.120  0.2749  0.3039  1.3552
 8783TIP3    H247765   5.712   2.810  15.101  0.3190  0.6556  0.6549
 8784TIP3   OH247766   1.113   6.029   3.165  0.5555 -0.0067 -0.6242
 8784TIP3    H147767   1.018   6.040   3.169  0.4647 -0.3891 -1.6020
 8784TIP3    H247768   1.127   5.958   3.103  1.4798 -0.0578 -0.3786
 8785TIP3   OH247769   1.091   6.658  16.590 -0.4038 -0.0402 -0.4217
 8785TIP3    H147770   1.041   6.579  16.569  1.4665 -1.2285 -0.5800
 8785TIP3    H247771   1.181   6.636  16.568  0.5971  1.1865  2.0630
 8786TIP3   OH247772   2.981   3.689   3.557  0.5959  0.2786  0.3939
 8786TIP3    H147773   2.991   3.650   3.470 -1.0982  1.8991 -0.6045
 8786TIP3    H247774   3.037   3.767   3.554 -1.9060  2.1866 -0.5504
 8787TIP3   OH247775   2.183   1.769   2.713 -0.1140  0.5720  0.0046
 8787TIP3    H147776   2.108   1.762   2.654  0.3035 -0.0430 -0.4634
 8787TIP3    H247777   2.176   1.693   2.770  1.1063 -0.4813 -1.1797
 8788TIP3   OH247778   0.614   0.109   3.050  0.0959 -0.5639 -0.2450
 8788TIP3    H147779   0.654   0.194   3.067 -2.8674  0.8900  0.0695
 8788TIP3    H247780   0.546   0.100   3.116 -0.2010 -2.8516 -0.7632
 8789TIP3   OH247781   2.179   2.734  12.938  0.2003 -0.2108 -0.5874
 8789TIP3    H147782   2.179   2.683  12.857  2.2354  1.4488 -1.7535
 8789TIP3    H247783   2.111   2.801  12.924 -0.8359 -1.1231 -0.0425
 8790TIP3   OH247784   0.068   2.650  14.057 -0.3798 -0.5043  0.4605
 8790TIP3    H147785   0.049   2.559  14.081  1.4408 -0.6076  1.6709
 8790TIP3    H247786   0.147   2.672  14.106 -0.4833  1.5808 -0.2176
 8791TIP3   OH247787   5.241   6.465   1.950  0.5190  0.4074  0.0995
 8791TIP3    H147788   5.314   6.462   2.012  0.7117 -1.1376 -0.1487
 8791TIP3    H247789   5.282   6.454   1.864  0.1080  0.8320 -0.1554
 8792TIP3   OH247790   6.357   1.214  14.775 -0.0406 -1.0311 -0.0843
 8792TIP3    H147791   6.412   1.146  14.814  0.7087 -1.0808 -1.1713
 8792TIP3    H247792   6.405   1.241  14.697 -0.7005  0.2188 -0.0740
 8793TIP3   OH247793   6.021   4.053   3.460  0.0383  0.3423  0.4579
 8793TIP3    H147794   6.113   4.075   3.475 -0.1076  0.6559  0.8867
 8793TIP3    H247795   5.973   4.130   3.487 -0.2388  1.0095 -1.7364
 8794TIP3   OH247796   5.012   2.005   1.453 -0.0006  0.4781  0.6240
 8794TIP3    H147797   5.044   2.095   1.444  1.4577  0.0382  1.2269
 8794TIP3    H247798   5.084   1.957   1.493 -0.3838 -1.1980 -0.5900
 8795TIP3   OH247799   2.979   2.996   1.891  0.1096 -0.1366  0.0344
 8795TIP3    H147800   2.897   3.002   1.842  1.0575  3.4584 -1.4427
 8795TIP3    H247801   2.971   3.063   1.959  1.5874 -0.0741  0.1753
 8796TIP3   OH247802   5.646   1.832   3.345 -0.3067  0.4427  0.2735
 8796TIP3    H147803   5.730   1.839   3.391 -0.4643 -1.8830  1.0410
 8796TIP3    H247804   5.663   1.771   3.273 -0.9650  1.2370 -0.5835
 8797TIP3   OH247805   0.939   2.160   2.504 -0.0836  0.1913  0.2415
 8797TIP3    H147806   0.965   2.079   2.547  1.3800  1.0204  1.0033
 8797TIP3    H247807   0.847   2.147   2.481 -0.1868 -1.2584  1.3387
 8798TIP3   OH247808   2.883   1.499  15.435  0.0064  0.1116 -0.1676
 8798TIP3    H147809   2.956   1.452  15.395 -0.7455 -1.6252  0.3703
 8798TIP3    H247810   2.878   1.464  15.524 -0.7581  1.0505  0.1816
 8799TIP3   OH247811   1.448   0.093  15.044  0.3552 -0.1318  0.3187
 8799TIP3    H147812   1.514   0.026  15.028  0.3237 -0.0682 -0.0647
 8799TIP3    H247813   1.410   0.112  14.959 -0.5047 -0.5178  0.6011
 8800TIP3   OH247814   4.906   5.514  10.408  0.5124 -0.0975 -0.3384
 8800TIP3    H147815   4.876   5.535  10.496  1.1241  2.0034 -0.5710
 8800TIP3    H247816   4.856   5.437  10.382  0.3487 -0.7695  1.8444
 8801TIP3   OH247817   4.466   3.643  15.071  0.0890  0.3562  0.1426
 8801TIP3    H147818   4.451   3.605  14.985 -2.4595  1.2481  0.0991
 8801TIP3    H247819   4.437   3.576  15.133  0.6356  0.2402  0.2836
 8802TIP3   OH247820   2.739   2.377   5.345 -0.4519 -0.0279 -0.2867
 8802TIP3    H147821   2.765   2.401   5.256  0.9450  1.8078  0.5400
 8802TIP3    H247822   2.654   2.420   5.357 -1.2486 -1.3099 -1.1010
 8803TIP3   OH247823   5.034   0.799  14.851 -0.6960 -0.2265 -0.1633
 8803TIP3    H147824   5.093   0.765  14.784  0.1797  0.6333  0.1497
 8803TIP3    H247825   4.947   0.773  14.822 -0.1356 -2.1396 -0.2851
 8804TIP3   OH247826   2.789   3.997  16.406  0.1748 -0.0869 -0.0735
 8804TIP3    H147827   2.751   3.989  16.493  0.6451  0.5198  0.2012
 8804TIP3    H247828   2.824   3.910  16.386  0.2490 -0.1722  0.4315
 8805TIP3   OH247829   3.836   3.585  11.703  0.2152  0.7573  0.3756
 8805TIP3    H147830   3.884   3.601  11.622  0.1549 -0.3829  0.0953
 8805TIP3    H247831   3.804   3.495  11.694 -0.5259  0.9146  1.2943
 8806TIP3   OH247832   3.874   5.361   4.372  0.0541 -0.1019  0.7745
 8806TIP3    H147833   3.944   5.335   4.313  0.0148  1.1951  0.1277
 8806TIP3    H247834   3.874   5.457   4.369 -1.8550 -0.0652  0.6099
 8807TIP3   OH247835   3.925   6.163   3.408  0.0442  0.2511  0.1032
 8807TIP3    H147836   3.842   6.198   3.376 -0.3421 -1.8892 -1.5000
 8807TIP3    H247837   3.914   6.068   3.404  2.0363 -0.1068  1.3954
 8808TIP3   OH247838   4.487   0.194  15.840  0.3868  0.3361  0.2821
 8808TIP3    H147839   4.491   0.120  15.779 -0.1324  0.8469 -0.3886
 8808TIP3    H247840   4.530   0.266  15.794  0.0362  0.7145  0.5363
 8809TIP3   OH247841   2.243   5.260  10.579  0.0406  0.6384 -0.2119
 8809TIP3    H147842   2.282   5.342  10.611 -1.0669  0.6520  1.2115
 8809TIP3    H247843   2.254   5.199  10.652 -1.7717  0.4014 -0.0889
 8810TIP3   OH247844   3.355   1.570   3.481  0.0039 -0.4772  0.1739
 8810TIP3    H147845   3.272   1.614   3.498  0.2895  0.4616 -0.8007
 8810TIP3    H247846   3.422   1.636   3.497  0.4825 -0.7778 -0.5287
 8811TIP3   OH247847   4.243   4.023  13.333 -0.0209  0.4688  0.2091
 8811TIP3    H147848   4.198   3.987  13.409  0.4995  1.0666  0.8150
 8811TIP3    H247849   4.291   3.949  13.296 -1.6412 -0.2282 -0.5814
 8812TIP3   OH247850   2.333   6.224   2.812  0.2678  0.6046  0.1450
 8812TIP3    H147851   2.363   6.173   2.887  0.7153 -1.1640 -1.1938
 8812TIP3    H247852   2.238   6.232   2.826  0.3638  0.4345  0.9705
 8813TIP3   OH247853   2.109   1.594   5.374 -0.7240  0.4308  0.1729
 8813TIP3    H147854   2.137   1.537   5.301 -0.1792 -1.2278  1.6085
 8813TIP3    H247855   2.191   1.633   5.405 -0.8544  0.5452  0.3681
 8814TIP3   OH247856   2.039   0.998  11.061 -0.6424  0.4529  0.2480
 8814TIP3    H147857   2.085   1.066  11.011  1.8098 -0.9516  0.4428
 8814TIP3    H247858   2.013   0.933  10.995 -0.2771  0.1310  0.4195
 8815TIP3   OH247859   1.186   3.720  15.357  0.1126 -0.1823  0.3224
 8815TIP3    H147860   1.166   3.810  15.330 -1.0882 -0.3732  0.4865
 8815TIP3    H247861   1.182   3.723  15.453  1.5284 -0.1081  0.3887
 8816TIP3   OH247862   1.525   4.574   1.302 -0.4142 -0.5158  0.6578
 8816TIP3    H147863   1.570   4.603   1.382 -1.0415  0.4680  0.6736
 8816TIP3    H247864   1.436   4.553   1.331 -0.6477 -0.1444  0.2203
 8817TIP3   OH247865   5.870   3.630  11.420  0.2906 -0.3167 -0.0927
 8817TIP3    H147866   5.805   3.564  11.397 -0.7086  0.8114 -0.6589
 8817TIP3    H247867   5.845   3.659  11.508  1.4849 -1.5430  0.6886
 8818TIP3   OH247868   6.712   4.394  10.523  0.3915  0.2883  0.4681
 8818TIP3    H147869   6.616   4.393  10.519  0.3835 -1.0031  0.4305
 8818TIP3    H247870   6.732   4.356  10.609  0.8718  0.7858  0.5774
 8819TIP3   OH247871   4.991   3.956  11.263 -0.5210 -0.2435  0.3880
 8819TIP3    H147872   4.961   4.037  11.304 -1.1990 -0.1939 -0.1812
 8819TIP3    H247873   5.059   3.985  11.201 -0.2678 -0.1930  0.6875
 8820TIP3   OH247874   2.697   1.379  16.077  0.1263  0.1354 -0.2286
 8820TIP3    H147875   2.712   1.381  15.982 -1.3867  1.2301 -0.4802
 8820TIP3    H247876   2.627   1.315  16.088  1.8933 -1.7979  0.4667
 8821TIP3   OH247877   1.470   2.770  14.877  0.1919  0.0384  0.2096
 8821TIP3    H147878   1.443   2.845  14.823  1.8137  0.0210 -0.7061
 8821TIP3    H247879   1.498   2.704  14.813 -0.2465 -0.9712  1.0330
 8822TIP3   OH247880   6.250   1.254  14.200  0.1475 -0.1789 -0.1594
 8822TIP3    H147881   6.239   1.295  14.286 -0.8731  0.2738 -0.4916
 8822TIP3    H247882   6.329   1.294  14.164 -0.5029  1.0689 -0.2278
 8823TIP3   OH247883   0.945   3.534  12.906 -0.4412  0.1996  0.4263
 8823TIP3    H147884   1.038   3.524  12.887 -0.8095 -0.0311 -1.5154
 8823TIP3    H247885   0.931   3.628  12.910 -0.2705  0.2502 -0.1259
 8824TIP3   OH247886   0.939   0.346   1.494 -0.3928  0.3710 -0.7190
 8824TIP3    H147887   0.966   0.323   1.583 -3.0960  0.4962  0.2094
 8824TIP3    H247888   0.986   0.427   1.475  0.2809  0.3089  0.5489
 8825TIP3   OH247889   0.214   6.038   5.122  0.2378 -0.5587  0.1372
 8825TIP3    H147890   0.158   5.970   5.158 -1.1179  1.3808  1.9565
 8825TIP3    H247891   0.246   6.086   5.198 -0.5166  2.0611 -1.0437
 8826TIP3   OH247892   4.774   5.698  12.533  0.1047 -0.0281 -0.2217
 8826TIP3    H147893   4.817   5.707  12.448 -1.1383  0.8749 -0.7963
 8826TIP3    H247894   4.688   5.739  12.521 -0.4594 -0.6948  1.2118
 8827TIP3   OH247895   0.867   3.434   5.678  0.5168 -0.0905 -0.0500
 8827TIP3    H147896   0.952   3.398   5.652 -0.7080 -0.7058 -3.8258
 8827TIP3    H247897   0.808   3.358   5.679  0.0048  0.2387  3.0296
 8828TIP3   OH247898   0.859   1.387   5.380  0.3081 -0.1309  0.3284
 8828TIP3    H147899   0.930   1.329   5.409 -0.5142 -0.7466  1.1814
 8828TIP3    H247900   0.815   1.337   5.311 -0.5014 -0.6174  1.1757
 8829TIP3   OH247901   4.211   6.243  15.687  0.7094  0.3562  1.0357
 8829TIP3    H147902   4.230   6.290  15.606 -0.0766 -1.3584 -0.1967
 8829TIP3    H247903   4.144   6.296  15.730  0.0164  0.5070 -0.1925
 8830TIP3   OH247904   5.212   3.793  15.459 -0.4811  0.5917 -0.0961
 8830TIP3    H147905   5.280   3.764  15.398 -1.7748 -0.7311 -0.9553
 8830TIP3    H247906   5.210   3.725  15.526 -2.5871 -0.7073 -1.3829
 8831TIP3   OH247907   5.776   5.936   5.125 -0.0887 -0.5419 -0.5987
 8831TIP3    H147908   5.806   6.017   5.166  2.2254 -1.9861  0.7532
 8831TIP3    H247909   5.759   5.876   5.198 -3.3233 -0.8702 -1.4737
 8832TIP3   OH247910   0.341   1.150   5.094  0.2519  0.2179 -0.6500
 8832TIP3    H147911   0.411   1.087   5.113  0.1523  0.2087 -0.3061
 8832TIP3    H247912   0.373   1.198   5.018  0.7497  0.3853 -0.3466
 8833TIP3   OH247913   2.063   4.403   4.318  0.7248  0.0970  0.4551
 8833TIP3    H147914   1.971   4.409   4.344  0.6854  1.6413  0.0621
 8833TIP3    H247915   2.109   4.456   4.383  1.4149 -0.9716  0.8744
 8834TIP3   OH247916   3.011   4.912  11.426  0.0343 -0.3840  0.2876
 8834TIP3    H147917   3.045   4.836  11.474 -2.5680 -1.2029  0.9770
 8834TIP3    H247918   2.949   4.953  11.487 -0.3664  0.9173 -0.9479
 8835TIP3   OH247919   6.525   6.694   3.424  0.0136  0.1957 -0.1211
 8835TIP3    H147920   6.585   6.713   3.497  1.0837  0.5236 -1.0562
 8835TIP3    H247921   6.439   6.718   3.458  0.0363 -2.3047  2.0415
 8836TIP3   OH247922   4.587   2.286   0.586 -0.2727 -0.0422  0.4491
 8836TIP3    H147923   4.655   2.352   0.600 -0.6593  0.3980  0.2454
 8836TIP3    H247924   4.600   2.223   0.657 -1.3863  1.4647  2.0697
 8837TIP3   OH247925   0.463   5.205   0.344 -0.5497 -0.3077  0.2252
 8837TIP3    H147926   0.458   5.226   0.437  3.4022  0.7811  0.3478
 8837TIP3    H247927   0.522   5.130   0.339 -1.0459 -0.6393 -1.4254
 8838TIP3   OH247928   5.098   4.518   1.885  0.6364  0.2045 -0.1271
 8838TIP3    H147929   5.066   4.528   1.975 -0.2022 -0.1408 -0.3733
 8838TIP3    H247930   5.162   4.447   1.889  0.3488 -0.0430  0.1377
 8839TIP3   OH247931   2.494   1.146  16.989  0.0174 -0.3473  0.2321
 8839TIP3    H147932   2.562   1.201  16.950  0.1890 -0.6022  0.1701
 8839TIP3    H247933   2.525   1.056  16.976  0.4728 -0.4187  1.6641
 8840TIP3   OH247934   0.622   0.853  15.584 -0.3902  0.1220 -0.0183
 8840TIP3    H147935   0.578   0.914  15.643  0.1335 -0.1726  0.7003
 8840TIP3    H247936   0.556   0.786  15.564 -1.8229  2.1743 -2.8650
 8841TIP3   OH247937   0.854   3.303   3.831 -0.1848  0.7408  0.0531
 8841TIP3    H147938   0.856   3.330   3.739  0.0792 -0.7574 -0.4108
 8841TIP3    H247939   0.765   3.270   3.844 -0.3616  1.3598  0.4811
 8842TIP3   OH247940   0.266   5.625  14.757  0.7053  0.4728 -0.4068
 8842TIP3    H147941   0.202   5.678  14.709 -0.9330 -0.6321  0.4705
 8842TIP3    H247942   0.248   5.643  14.849  1.6307  0.0864 -0.1368
 8843TIP3   OH247943   2.244   6.162  14.464 -0.1456 -0.0676 -0.0246
 8843TIP3    H147944   2.303   6.112  14.521 -0.8520  0.1764  0.9411
 8843TIP3    H247945   2.157   6.133  14.490 -0.5361  1.1851  0.0791
 8844TIP3   OH247946   3.987   0.109   2.751  0.8884 -0.3898 -0.7464
 8844TIP3    H147947   3.994   0.123   2.845  2.1045 -2.9223 -0.3681
 8844TIP3    H247948   4.067   0.147   2.715  0.7955 -0.1079 -0.6552
 8845TIP3   OH247949   3.101   0.293  16.679 -0.2987  0.7391 -0.3980
 8845TIP3    H147950   3.171   0.227  16.683  0.5806  1.6851  2.6435
 8845TIP3    H247951   3.023   0.246  16.706 -0.3798  0.2577 -1.3915
 8846TIP3   OH247952   6.513   4.461   0.351 -0.2080  0.0151 -0.1827
 8846TIP3    H147953   6.571   4.388   0.372 -0.4403 -0.4392 -1.0594
 8846TIP3    H247954   6.425   4.428   0.369 -0.2081  0.8746  1.6454
 8847TIP3   OH247955   4.165   0.651   3.233 -0.0783  0.1253 -0.2149
 8847TIP3    H147956   4.233   0.600   3.278 -0.1562  0.3952  0.2122
 8847TIP3    H247957   4.091   0.650   3.294  0.4925  2.2194  0.6074
 8848TIP3   OH247958   2.861   6.114  13.588  0.1550  0.1255  0.1396
 8848TIP3    H147959   2.767   6.095  13.584  0.2126 -0.3447  0.7562
 8848TIP3    H247960   2.900   6.057  13.522  0.2197 -1.2835  1.3314
 8849TIP3   OH247961   4.679   2.412   4.081 -0.2480  0.2322 -0.5205
 8849TIP3    H147962   4.589   2.443   4.071 -0.4728  0.8066  2.5158
 8849TIP3    H247963   4.674   2.344   4.148  1.8505  1.9234  1.4850
 8850TIP3   OH247964   4.762   0.612  13.084  0.4762 -0.0986  0.3347
 8850TIP3    H147965   4.786   0.703  13.103 -1.2968  0.4818  0.0184
 8850TIP3    H247966   4.746   0.573  13.170  0.0940  0.2363  0.4175
 8851TIP3   OH247967   6.702   4.557   6.134 -0.2088  0.3713  0.4813
 8851TIP3    H147968   6.754   4.514   6.202 -2.4538 -0.9175  1.4909
 8851TIP3    H247969   6.690   4.489   6.067  0.6526  1.1419 -0.4884
 8852TIP3   OH247970   6.366   3.216  11.692  0.4406  0.3597 -0.0942
 8852TIP3    H147971   6.305   3.143  11.698  0.3891  0.3953 -0.1751
 8852TIP3    H247972   6.437   3.193  11.751 -0.3056  0.9520  1.0777
 8853TIP3   OH247973   5.065   4.179  14.996 -0.2002  0.2576  0.4802
 8853TIP3    H147974   5.050   4.269  15.026  0.3854  0.8058 -0.8088
 8853TIP3    H247975   5.157   4.177  14.971 -0.6259 -0.2065 -1.1362
 8854TIP3   OH247976   2.528   1.324  14.444  0.3313 -0.2293 -0.0024
 8854TIP3    H147977   2.570   1.387  14.385  0.6706 -0.3788  0.0785
 8854TIP3    H247978   2.452   1.371  14.478  0.9595  0.3878  0.5912
 8855TIP3   OH247979   5.398   1.321   2.347  0.4538  0.3745  0.2004
 8855TIP3    H147980   5.317   1.283   2.380  0.3313  0.0731 -0.4278
 8855TIP3    H247981   5.462   1.250   2.353  0.1572 -0.0440 -1.2415
 8856TIP3   OH247982   0.791   0.835   1.457 -0.6476  0.3305 -0.0240
 8856TIP3    H147983   0.788   0.930   1.459  2.7177  0.6575 -2.1769
 8856TIP3    H247984   0.807   0.813   1.365  1.8310 -2.0282  0.8002
 8857TIP3   OH247985   2.567   1.225   1.125  0.0516  0.0487 -0.1278
 8857TIP3    H147986   2.642   1.177   1.091  3.2111  4.8768 -1.0569
 8857TIP3    H247987   2.576   1.222   1.220  2.0831  1.2193 -0.2306
 8858TIP3   OH247988   0.464   6.201   3.331  0.3534  0.1329 -0.4469
 8858TIP3    H147989   0.398   6.173   3.268  0.0575  0.6942 -0.3893
 8858TIP3    H247990   0.470   6.128   3.393 -0.4793  0.2281 -0.2442
 8859TIP3   OH247991   4.985   6.156  14.530 -0.5271 -0.2632  0.1535
 8859TIP3    H147992   4.978   6.149  14.435  2.3780  2.0283 -0.3803
 8859TIP3    H247993   5.045   6.085  14.555 -0.4114 -0.1657  0.1479
 8860TIP3   OH247994   6.719   6.610   0.342  0.7948  0.5009  0.0924
 8860TIP3    H147995   6.693   6.651   0.424 -0.7290  0.0731 -0.1493
 8860TIP3    H247996   6.713   6.681   0.277  0.9396  0.5791  0.1643
 8861TIP3   OH247997   0.123   6.795  13.493  0.0019  0.7345 -0.0489
 8861TIP3    H147998   0.120   6.887  13.519 -0.3215  0.5148  0.6943
 8861TIP3    H247999   0.110   6.797  13.398  3.4529  1.7148 -0.6378
 8862TIP3   OH248000   3.176   3.497  10.961 -0.4279 -0.0311 -0.2876
 8862TIP3    H148001   3.163   3.472  10.870  1.8678 -1.1181 -0.4009
 8862TIP3    H248002   3.211   3.418  11.002 -1.3460  0.4593  1.5270
 8863TIP3   OH248003   6.674   0.443   2.729 -0.1063 -0.2772  0.3777
 8863TIP3    H148004   6.597   0.468   2.780 -0.2188  1.2537 -0.4977
 8863TIP3    H248005   6.670   0.497   2.650  1.0485 -1.2728 -0.4047
 8864TIP3   OH248006   1.626   5.869   4.532 -0.1986  0.7534  0.2142
 8864TIP3    H148007   1.590   5.873   4.444 -1.2944 -0.8920  0.5559
 8864TIP3    H248008   1.603   5.954   4.571 -2.1626  0.4428 -0.1796
 8865TIP3   OH248009   3.690   5.696  16.347  0.2156  0.6694 -0.4065
 8865TIP3    H148010   3.777   5.723  16.376  0.0065  1.5862 -0.5877
 8865TIP3    H248011   3.644   5.778  16.329  0.4794  0.2110 -3.8107
 8866TIP3   OH248012   4.793   0.718   6.734  0.7022  0.4220 -0.2005
 8866TIP3    H148013   4.888   0.729   6.741  0.6826  1.4844 -1.2692
 8866TIP3    H248014   4.757   0.804   6.756  0.0008  0.1059 -0.0772
 8867TIP3   OH248015   1.521   0.131  12.638  0.2171  0.2981 -0.1323
 8867TIP3    H148016   1.456   0.196  12.664 -0.2659  0.6831 -2.2037
 8867TIP3    H248017   1.474   0.071  12.581  1.0019 -1.1275  0.6615
 8868TIP3   OH248018   2.306   0.581   4.430  0.6304 -0.2692 -0.3444
 8868TIP3    H148019   2.213   0.601   4.428  0.8809  1.1800  1.1068
 8868TIP3    H248020   2.325   0.566   4.522  2.0735  0.6319 -0.4781
 8869TIP3   OH248021   4.786   6.757  15.872 -0.6848  0.0557 -0.1992
 8869TIP3    H148022   4.786   6.752  15.968 -2.3248  2.1677 -0.0361
 8869TIP3    H248023   4.715   6.699  15.845 -0.8570  0.2169 -0.0897
 8870TIP3   OH248024   5.862   0.790  15.108 -0.2896 -0.6694 -0.0387
 8870TIP3    H148025   5.910   0.872  15.096 -2.8518  1.3801  2.4945
 8870TIP3    H248026   5.840   0.762  15.019  1.2992  0.9250 -1.0083
 8871TIP3   OH248027   1.771   5.696   2.438 -0.1182  0.4936 -0.4505
 8871TIP3    H148028   1.800   5.606   2.448  1.5623  0.9324 -0.9446
 8871TIP3    H248029   1.686   5.700   2.481 -0.5946 -1.5004 -1.1343
 8872TIP3   OH248030   1.944   4.321   3.164  0.8635  0.3011 -0.5432
 8872TIP3    H148031   1.936   4.304   3.258 -0.9774  0.1776 -0.6797
 8872TIP3    H248032   1.892   4.400   3.149  0.1505 -0.3356 -1.6152
 8873TIP3   OH248033   4.761   0.794  13.985  0.1903 -0.3571 -0.1544
 8873TIP3    H148034   4.800   0.771  14.069  1.6771 -0.9738 -0.9702
 8873TIP3    H248035   4.829   0.772  13.920  0.2902  2.9027 -1.3329
 8874TIP3   OH248036   5.270   2.533  16.701 -0.0434  0.8364 -0.5979
 8874TIP3    H148037   5.303   2.537  16.791 -0.5447  0.1277 -0.3783
 8874TIP3    H248038   5.342   2.494  16.651 -0.9765 -2.0834  0.1305
 8875TIP3   OH248039   5.851   3.396  15.904  0.2335  0.1800  0.8026
 8875TIP3    H148040   5.881   3.305  15.901 -3.7726 -1.3048 -1.1232
 8875TIP3    H248041   5.859   3.427  15.814 -0.3654  1.0279  1.0295
 8876TIP3   OH248042   0.730   1.716  12.536 -0.0121 -0.1096  0.4032
 8876TIP3    H148043   0.794   1.676  12.595 -1.0693 -0.6351  1.2325
 8876TIP3    H248044   0.759   1.806  12.526  0.0829  0.0467  1.9207
 8877TIP3   OH248045   3.947   1.665   3.204  0.0028  0.0472 -0.4021
 8877TIP3    H148046   3.895   1.727   3.255  1.3597  1.0766 -0.2054
 8877TIP3    H248047   3.995   1.614   3.270  1.6447  1.2784 -0.5798
 8878TIP3   OH248048   4.560   3.470   1.292  0.2146 -0.3315  0.0915
 8878TIP3    H148049   4.648   3.443   1.316  1.8254  4.1730  0.1813
 8878TIP3    H248050   4.514   3.478   1.376  1.0966  1.1397  0.4716
 8879TIP3   OH248051   5.065   1.353  12.783  0.6628  0.2843 -0.1290
 8879TIP3    H148052   4.971   1.345  12.801  0.9098 -0.5772  0.8551
 8879TIP3    H248053   5.105   1.371  12.868  1.5440 -0.8882 -0.2678
 8880TIP3   OH248054   0.138   0.588  16.644  0.2630  0.1674 -0.5156
 8880TIP3    H148055   0.157   0.496  16.631  1.2410  0.3721 -0.6073
 8880TIP3    H248056   0.161   0.630  16.561  1.6178  0.7451  0.1238
 8881TIP3   OH248057   4.608   5.280  11.146 -0.2007 -0.9398 -0.4529
 8881TIP3    H148058   4.532   5.249  11.096  0.1677 -1.5980 -0.6090
 8881TIP3    H248059   4.588   5.256  11.236 -0.4214 -0.6302 -0.4183
 8882TIP3   OH248060   4.253   1.016   0.346  0.1425  0.4042 -0.3018
 8882TIP3    H148061   4.321   1.064   0.393  0.0108  1.2560 -0.9525
 8882TIP3    H248062   4.181   1.078   0.337  1.1533  1.2924 -3.9775
 8883TIP3   OH248063   4.619   2.208  16.911  0.0731 -0.4013 -0.1256
 8883TIP3    H148064   4.580   2.249  16.988  1.7148  1.2903 -0.1202
 8883TIP3    H248065   4.546   2.192  16.852 -0.7716  1.7873  0.2498
 8884TIP3   OH248066   3.075   2.394   2.142  0.2568 -0.0986 -0.3859
 8884TIP3    H148067   3.117   2.389   2.228  0.9565 -0.2111 -0.7224
 8884TIP3    H248068   3.083   2.485   2.116 -0.7696  0.1330  0.0512
 8885TIP3   OH248069   1.455   2.572  10.724  0.7466 -0.4602 -0.2597
 8885TIP3    H148070   1.361   2.572  10.706  0.4507 -0.4715  1.2263
 8885TIP3    H248071   1.496   2.579  10.637 -0.6308  0.6910 -0.8597
 8886TIP3   OH248072   6.667   3.600   1.983 -0.1894 -0.0341 -0.1322
 8886TIP3    H148073   6.578   3.593   1.950 -0.6056 -0.5032  1.0564
 8886TIP3    H248074   6.692   3.690   1.965 -1.2335  0.3576  0.3385
 8887TIP3   OH248075   2.601   6.445  10.462  0.4436 -0.5947  0.1501
 8887TIP3    H148076   2.531   6.480  10.406  3.5044  0.4486 -3.4289
 8887TIP3    H248077   2.592   6.350  10.454 -0.8019 -0.4923  0.1105
 8888TIP3   OH248078   6.124   2.657  15.234  0.1980 -0.2622 -0.1123
 8888TIP3    H148079   6.094   2.680  15.322  1.3804  0.1517  0.2077
 8888TIP3    H248080   6.209   2.700  15.226 -0.1455  0.1997 -1.6937
 8889TIP3   OH248081   5.143   5.605   4.073 -0.4195  0.0759 -0.4365
 8889TIP3    H148082   5.211   5.615   4.140 -0.5167  1.5476 -0.5365
 8889TIP3    H248083   5.062   5.631   4.117 -0.8201 -0.9056 -0.5552
 8890TIP3   OH248084   3.012   4.969   3.792  0.2220 -0.6086  0.2812
 8890TIP3    H148085   3.090   5.013   3.759  0.5380 -1.0492  0.4325
 8890TIP3    H248086   3.029   4.876   3.777 -0.9726 -0.6176 -1.1902
 8891TIP3   OH248087   0.526   4.785  12.956 -0.0080 -0.3403  0.1189
 8891TIP3    H148088   0.546   4.836  13.035 -0.7917 -0.1980  0.2284
 8891TIP3    H248089   0.438   4.750  12.971 -0.2052 -0.2370 -0.7366
 8892TIP3   OH248090   4.161   4.777  11.038 -0.1232  0.1080 -0.3608
 8892TIP3    H148091   4.225   4.770  10.967  1.3929  1.3392  0.8101
 8892TIP3    H248092   4.168   4.695  11.086  2.1519  0.9994  0.9589
 8893TIP3   OH248093   4.249   6.579  15.754 -0.4643  0.0251 -0.7727
 8893TIP3    H148094   4.300   6.510  15.712 -0.8577 -0.1463 -0.9773
 8893TIP3    H248095   4.257   6.562  15.847 -2.0395 -1.4071 -0.8425
 8894TIP3   OH248096   3.222   5.541  15.772 -0.5239  0.4639 -0.1086
 8894TIP3    H148097   3.234   5.596  15.849 -2.8470  0.7124  0.1357
 8894TIP3    H248098   3.158   5.475  15.799  2.1778 -2.4900 -0.3743
 8895TIP3   OH248099   6.146   4.497   4.433  0.1395  0.0786 -0.0228
 8895TIP3    H148100   6.128   4.467   4.522  1.4786 -2.1182 -0.3953
 8895TIP3    H248101   6.238   4.525   4.435 -0.2841  1.5666 -0.3690
 8896TIP3   OH248102   4.870   6.085   2.776 -0.1817  0.3785 -0.1534
 8896TIP3    H148103   4.964   6.099   2.779 -0.1397  0.5842 -1.6533
 8896TIP3    H248104   4.836   6.134   2.851  0.8177  1.0750 -0.1413
 8897TIP3   OH248105   1.198   1.229  15.466  0.0825  0.2239 -0.1942
 8897TIP3    H148106   1.198   1.292  15.393 -2.1064  0.9379  0.3438
 8897TIP3    H248107   1.118   1.179  15.454 -0.4108  0.4578  1.7829
 8898TIP3   OH248108   0.950   0.524  14.750  0.3429 -0.0484 -0.1945
 8898TIP3    H148109   0.925   0.431  14.755 -1.0869  0.3232  0.1220
 8898TIP3    H248110   0.869   0.569  14.726  0.9762  1.1445 -0.1639
 8899TIP3   OH248111   6.239   3.591  12.758  0.3248 -0.2564  0.3827
 8899TIP3    H148112   6.304   3.594  12.688  0.0377 -0.4414  0.1053
 8899TIP3    H248113   6.279   3.640  12.830  0.0960  1.0343 -0.3506
 8900TIP3   OH248114   4.683   5.342  12.559  0.6933 -0.4855  0.2081
 8900TIP3    H148115   4.750   5.403  12.590  1.4289 -1.0323 -0.2649
 8900TIP3    H248116   4.653   5.297  12.638  1.7426 -1.0678  0.2945
 8901TIP3   OH248117   2.803   2.614   2.702  0.0650 -0.1267 -0.3042
 8901TIP3    H148118   2.723   2.593   2.654  0.5977  0.5693 -1.5692
 8901TIP3    H248119   2.812   2.709   2.693  0.6527 -0.0981  0.4459
 8902TIP3   OH248120   3.005   6.085   3.420 -0.5618  0.2117 -0.2314
 8902TIP3    H148121   3.043   6.029   3.352  0.6956  3.0562 -2.0325
 8902TIP3    H248122   3.063   6.075   3.495  1.1866  1.0223 -1.4233
 8903TIP3   OH248123   4.752   0.196  13.762 -0.1919 -0.0492 -0.2072
 8903TIP3    H148124   4.700   0.130  13.717 -1.2597  0.6986 -0.0937
 8903TIP3    H248125   4.692   0.269  13.777  1.0752  1.1952 -0.8299
 8904TIP3   OH248126   1.899   5.024  11.708 -0.1978  0.5784  0.4236
 8904TIP3    H148127   1.904   4.985  11.621 -0.2148 -0.6679  0.9614
 8904TIP3    H248128   1.937   5.111  11.698 -1.2612  0.9075 -1.0855
 8905TIP3   OH248129   1.202   3.842  10.973  0.2824  0.0242  0.2558
 8905TIP3    H148130   1.220   3.893  11.052  0.0114  0.2845  0.1515
 8905TIP3    H248131   1.274   3.779  10.968 -0.7123 -1.3464  1.8022
 8906TIP3   OH248132   3.437   2.589  12.353 -0.0953  0.0482  0.0291
 8906TIP3    H148133   3.414   2.540  12.432  0.0985 -0.0226  0.0406
 8906TIP3    H248134   3.493   2.530  12.303  1.7107  0.9434  0.9140
 8907TIP3   OH248135   6.552   2.552   4.973 -0.4264 -0.0208 -0.2630
 8907TIP3    H148136   6.599   2.514   5.047 -0.8242  0.6234  0.3344
 8907TIP3    H248137   6.603   2.629   4.949 -0.0475 -0.4821 -0.9645
 8908TIP3   OH248138   1.023   0.700  11.682  0.3455 -0.0890 -0.1774
 8908TIP3    H148139   1.009   0.751  11.762  0.1426 -1.5507  0.7495
 8908TIP3    H248140   0.963   0.626  11.689  2.1806 -1.6785 -0.3705
 8909TIP3   OH248141   4.380   0.926   3.093 -1.0336  0.1539 -0.1419
 8909TIP3    H148142   4.392   1.016   3.063 -0.5676 -0.2928 -1.3482
 8909TIP3    H248143   4.429   0.872   3.031  1.0838 -0.7565  2.1299
 8910TIP3   OH248144   5.484   4.621   1.284 -0.4587  0.0287 -0.1590
 8910TIP3    H148145   5.437   4.580   1.211  0.7352  0.2621 -1.0843
 8910TIP3    H248146   5.416   4.638   1.349 -1.1695 -2.3949 -0.1780
 8911TIP3   OH248147   2.659   3.883  16.866  0.0920 -0.0414  0.1349
 8911TIP3    H148148   2.591   3.817  16.854 -0.0388  0.1976 -0.4433
 8911TIP3    H248149   2.623   3.962  16.826  0.1816  0.4299  0.9455
 8912TIP3   OH248150   5.237   0.061  12.735  0.9461  0.1323  0.0164
 8912TIP3    H148151   5.319   0.052  12.784  2.0721  0.1048 -1.7788
 8912TIP3    H248152   5.242  -0.008  12.668  0.5935  1.6267 -1.6264
 8913TIP3   OH248153   1.878   3.218  16.746  0.3870 -0.2271 -0.1380
 8913TIP3    H148154   1.788   3.245  16.765  0.0347 -2.0502  1.0275
 8913TIP3    H248155   1.931   3.265  16.810  0.1637  0.1230 -0.2040
 8914TIP3   OH248156   4.920   4.571  10.703 -0.2421 -0.2730 -0.3588
 8914TIP3    H148157   4.933   4.477  10.717  1.2182 -0.4147 -2.1971
 8914TIP3    H248158   4.992   4.596  10.645 -1.1706  1.7898 -0.6958
 8915TIP3   OH248159   2.365   2.974  11.628 -0.0424  0.1164  0.4425
 8915TIP3    H148160   2.284   3.024  11.616 -0.1702 -0.6087 -2.1746
 8915TIP3    H248161   2.432   3.041  11.643 -0.9706  0.7551  2.0969
 8916TIP3   OH248162   5.379   4.015   4.413 -0.0147 -0.3047 -0.0112
 8916TIP3    H148163   5.374   4.059   4.498  1.5649 -1.2717  0.6405
 8916TIP3    H248164   5.291   3.980   4.398  0.3074 -2.7554  2.7671
 8917TIP3   OH248165   6.651   1.233   0.381 -0.4259 -0.0082 -0.5547
 8917TIP3    H148166   6.670   1.254   0.290  0.7315  1.3358 -0.0267
 8917TIP3    H248167   6.555   1.240   0.388 -0.6139 -0.9990 -1.8497
 8918TIP3   OH248168   0.528   4.146  15.186 -0.0674 -0.1026  0.3424
 8918TIP3    H148169   0.457   4.203  15.159  1.4614  1.7312 -0.0317
 8918TIP3    H248170   0.596   4.159  15.120 -0.1011 -3.3852 -0.5000
 8919TIP3   OH248171   5.449   0.822  14.489  0.5488  0.3020  0.2686
 8919TIP3    H148172   5.478   0.734  14.466  1.8216  0.6572  0.4724
 8919TIP3    H248173   5.385   0.844  14.421 -0.1141 -0.9328  0.4657
 8920TIP3   OH248174   0.442   4.489   5.138 -0.6414 -0.2575  0.1424
 8920TIP3    H148175   0.461   4.416   5.197 -0.8359 -0.6956 -0.3284
 8920TIP3    H248176   0.518   4.546   5.145 -0.0306 -1.0124 -0.2516
 8921TIP3   OH248177   1.410   0.581   4.203  0.1735 -0.2248 -0.0016
 8921TIP3    H148178   1.362   0.627   4.272  0.3111 -1.2423  0.7915
 8921TIP3    H248179   1.447   0.651   4.148 -0.6126  0.5846  0.4807
 8922TIP3   OH248180   2.040   1.438   0.393 -0.3308 -0.2894 -0.1267
 8922TIP3    H148181   2.108   1.495   0.429  0.1586 -0.0963 -1.2982
 8922TIP3    H248182   2.087   1.357   0.370 -0.6704 -0.4956 -0.1009
 8923TIP3   OH248183   4.631   0.333  13.107 -0.2340 -0.2453 -0.4727
 8923TIP3    H148184   4.541   0.366  13.114 -0.5799 -1.3663  0.6760
 8923TIP3    H248185   4.683   0.411  13.091 -1.2655  0.5961  0.1094
 8924TIP3   OH248186   4.776   0.045  16.510 -0.1560 -0.0549  0.3130
 8924TIP3    H148187   4.697   0.087  16.544  0.9853  0.8314  2.0067
 8924TIP3    H248188   4.835   0.117  16.490  0.1532 -0.6905 -1.2428
 8925TIP3   OH248189   3.523   4.344  13.744  0.0299 -0.2349  0.3212
 8925TIP3    H148190   3.431   4.333  13.718  0.7257 -1.5976 -1.9198
 8925TIP3    H248191   3.527   4.314  13.834 -1.8138  0.3989  0.6507
 8926TIP3   OH248192   5.843   4.341  16.832 -0.2764 -0.4368  0.2380
 8926TIP3    H148193   5.801   4.425  16.853 -1.7789 -1.1018  0.0338
 8926TIP3    H248194   5.935   4.363  16.815 -0.6249  1.1475  0.2918
 8927TIP3   OH248195   4.691   5.019   3.866 -0.1127 -0.4907 -0.2644
 8927TIP3    H148196   4.734   4.933   3.862  0.3600 -0.2832  0.1954
 8927TIP3    H248197   4.723   5.065   3.789  0.8142 -0.1996  0.2777
 8928TIP3   OH248198   6.071   6.784   5.579  0.1338  0.6320  0.1902
 8928TIP3    H148199   6.112   6.871   5.570  0.6634  0.3612 -0.0405
 8928TIP3    H248200   6.081   6.762   5.671 -2.3115  1.9412  0.8513
 8929TIP3   OH248201   4.530   6.597   0.682 -0.2556  0.0598  0.1738
 8929TIP3    H148202   4.499   6.517   0.725  0.8467 -0.3863  0.1715
 8929TIP3    H248203   4.512   6.667   0.745 -0.7725 -0.2585  0.3839
 8930TIP3   OH248204   5.446   0.279   4.569  0.6856  0.4004 -0.0625
 8930TIP3    H148205   5.497   0.350   4.608  1.2928  0.1713 -0.4426
 8930TIP3    H248206   5.357   0.315   4.562  1.2670  1.6475 -1.5833
 8931TIP3   OH248207   4.699   2.383  14.732 -0.0935  0.3293 -0.2664
 8931TIP3    H148208   4.686   2.288  14.733  1.6757  0.0469 -1.0727
 8931TIP3    H248209   4.610   2.419  14.725 -0.8205 -1.2425  0.4118
 8932TIP3   OH248210   0.877   6.032  10.507 -0.5490  0.1880 -0.0545
 8932TIP3    H148211   0.950   6.073  10.461 -1.3047  0.8408 -0.6971
 8932TIP3    H248212   0.799   6.073  10.470 -1.3630 -1.9226 -0.7990
 8933TIP3   OH248213   5.116   1.380  10.918  0.3709 -0.1727 -0.1364
 8933TIP3    H148214   5.023   1.385  10.897  0.7593  1.7012 -1.5980
 8933TIP3    H248215   5.146   1.471  10.916  2.6217 -0.8818 -1.5899
 8934TIP3   OH248216   4.316   6.551  10.840 -0.4602 -0.1693  0.0327
 8934TIP3    H148217   4.280   6.634  10.807 -0.6551 -0.5095 -0.6324
 8934TIP3    H248218   4.325   6.496  10.762  0.5412 -0.4574  0.3322
 8935TIP3   OH248219   4.537   1.000   6.245  0.4063  0.1413  0.5940
 8935TIP3    H148220   4.593   1.078   6.245  2.4848 -1.2879  0.3767
 8935TIP3    H248221   4.483   1.010   6.167  0.2234  1.6045  0.8643
 8936TIP3   OH248222   0.022   5.119  13.069 -0.7999 -0.4683  0.2424
 8936TIP3    H148223  -0.016   5.048  13.121  1.3670 -2.0309 -0.1387
 8936TIP3    H248224   0.082   5.075  13.009  2.9767  1.7570  1.9889
 8937TIP3   OH248225   6.575   1.732  13.532  0.1236  0.2941 -0.2864
 8937TIP3    H148226   6.511   1.660  13.527 -0.0897  0.5332 -1.0527
 8937TIP3    H248227   6.632   1.719  13.457  0.4043  0.6286 -0.1335
 8938TIP3   OH248228   1.480   0.334   3.975  0.0468  0.2359  0.5174
 8938TIP3    H148229   1.404   0.277   3.983  0.4660 -0.3705  0.3287
 8938TIP3    H248230   1.455   0.398   3.909  0.1455 -0.7433 -0.5185
 8939TIP3   OH248231   5.171   1.062  15.375  0.8594  0.5571  0.3320
 8939TIP3    H148232   5.177   1.043  15.282 -3.2407 -1.8489  0.3069
 8939TIP3    H248233   5.241   1.009  15.415  0.0153 -1.8351 -1.1428
 8940TIP3   OH248234   4.983   2.428  13.060 -0.0706  0.5954  0.0808
 8940TIP3    H148235   4.937   2.392  13.136 -0.6409  0.8862 -0.1204
 8940TIP3    H248236   5.076   2.418  13.081 -0.1874  1.8319  1.4056
 8941TIP3   OH248237   4.785   2.025   2.667  0.2539  0.8378  0.0709
 8941TIP3    H148238   4.753   1.959   2.606 -0.8462  0.5100  0.9717
 8941TIP3    H248239   4.852   2.073   2.617  0.0446 -0.0072 -1.0699
 8942TIP3   OH248240   1.288   2.121  16.670 -0.6231 -0.2302  0.3038
 8942TIP3    H148241   1.276   2.058  16.600 -1.6669 -0.3497  0.5709
 8942TIP3    H248242   1.317   2.069  16.745 -1.2110 -0.3565  0.4453
 8943TIP3   OH248243   6.097   2.865   4.812  0.4582 -0.4907 -0.5226
 8943TIP3    H148244   6.010   2.906   4.816  0.8248  0.3193 -0.5849
 8943TIP3    H248245   6.133   2.877   4.900  1.3535  1.1257 -1.0794
 8944TIP3   OH248246   2.409   0.076   1.928  0.1168 -0.3099 -0.4758
 8944TIP3    H148247   2.335   0.027   1.965 -0.1880 -1.7016 -2.7410
 8944TIP3    H248248   2.377   0.109   1.844  1.9125 -0.6301 -1.3475
 8945TIP3   OH248249   0.464   5.588  15.534 -0.6665  0.3260  0.2976
 8945TIP3    H148250   0.422   5.622  15.454  0.4245  1.0975  0.0282
 8945TIP3    H248251   0.504   5.506  15.507 -0.4514  0.4978  0.0902
 8946TIP3   OH248252   1.758   2.951   0.463 -0.2600 -0.4409 -0.6150
 8946TIP3    H148253   1.663   2.965   0.466 -0.3020 -0.7889 -0.3047
 8946TIP3    H248254   1.772   2.903   0.381 -0.1518  1.0801 -1.5238
 8947TIP3   OH248255   4.706   0.845   0.197 -0.2692 -0.2855  0.1334
 8947TIP3    H148256   4.718   0.938   0.179 -3.3256  0.1859 -0.0273
 8947TIP3    H248257   4.702   0.839   0.292 -3.2939  0.4014  0.1655
 8948TIP3   OH248258   5.858   1.551  14.089  0.0051  0.1805  0.4658
 8948TIP3    H148259   5.843   1.644  14.069 -0.4006  0.4700  1.9642
 8948TIP3    H248260   5.770   1.514  14.098  0.1393 -0.6209 -1.1201
 8949TIP3   OH248261   3.503   3.453  14.661  0.2760 -0.1120  0.0684
 8949TIP3    H148262   3.507   3.548  14.652  0.7801 -0.0109  1.2472
 8949TIP3    H248263   3.553   3.434  14.740  0.6470 -1.4118 -0.4579
 8950TIP3   OH248264   6.691   1.366   3.407  0.3591  0.2425  0.0900
 8950TIP3    H148265   6.602   1.339   3.431  0.0388  0.6311 -0.6500
 8950TIP3    H248266   6.694   1.359   3.312  1.2228 -0.0586  0.1327
 8951TIP3   OH248267   3.083   6.549   1.142  0.2158 -0.1166  0.0283
 8951TIP3    H148268   3.097   6.631   1.190  0.4881 -0.7029  0.9698
 8951TIP3    H248269   3.171   6.515   1.126  0.2284  0.7924 -2.2240
 8952TIP3   OH248270   1.647   4.802  12.561 -0.1579 -0.0433 -0.6077
 8952TIP3    H148271   1.660   4.725  12.617  2.5585  0.3832 -0.5265
 8952TIP3    H248272   1.636   4.767  12.473  0.2617 -0.5556 -0.4596
 8953TIP3   OH248273   4.891   1.663  14.210 -0.0186 -0.3041  0.5660
 8953TIP3    H148274   4.875   1.657  14.116  0.5234 -1.8150  0.5540
 8953TIP3    H248275   4.804   1.659  14.249 -0.3469  1.5634  0.1061
 8954TIP3   OH248276   4.408   6.801  12.263  0.0724 -0.3218  0.4372
 8954TIP3    H148277   4.316   6.825  12.258  0.2547  0.3054 -0.0136
 8954TIP3    H248278   4.438   6.835  12.348  0.1207  0.3284  0.1662
 8955TIP3   OH248279   3.870   0.652  16.917  0.1539 -0.2817  0.3540
 8955TIP3    H148280   3.895   0.744  16.928 -1.2658  0.2491 -0.4623
 8955TIP3    H248281   3.837   0.648  16.827  1.7403 -1.9991 -0.2117
 8956TIP3   OH248282   5.959   5.160  17.062  0.3610  0.3427 -1.0674
 8956TIP3    H148283   5.996   5.246  17.040  2.7312 -0.6353 -1.1400
 8956TIP3    H248284   5.939   5.120  16.977  2.1183 -0.3212 -1.2135
 8957TIP3   OH248285   6.298   4.967  15.283 -0.2179  0.4227 -0.8465
 8957TIP3    H148286   6.272   4.885  15.325  0.4486 -0.2514 -1.7048
 8957TIP3    H248287   6.216   5.004  15.249 -0.4548 -0.1767 -0.9412
 8958TIP3   OH248288   2.330   1.907  15.785  0.2164 -0.1017 -0.3353
 8958TIP3    H148289   2.273   1.861  15.846  3.2779 -1.4165  1.7999
 8958TIP3    H248290   2.354   1.988  15.831 -1.3937  1.4797 -2.0810
 8959TIP3   OH248291   2.437   4.949  12.556  0.5034  0.0669  0.0387
 8959TIP3    H148292   2.432   5.044  12.565  0.1382 -0.0491  1.4386
 8959TIP3    H248293   2.523   4.926  12.590  1.0112 -0.0198 -1.2889
 8960TIP3   OH248294   0.569   3.898  10.454  0.5824 -0.1977  0.2082
 8960TIP3    H148295   0.532   3.956  10.388  0.5058 -1.0246 -0.4892
 8960TIP3    H248296   0.496   3.877  10.512  0.3715 -0.4027 -0.1281
 8961TIP3   OH248297   4.089   3.621   5.419 -0.1391  0.2813  0.3252
 8961TIP3    H148298   4.131   3.553   5.472  1.7142  1.4647  0.4926
 8961TIP3    H248299   4.151   3.695   5.423 -2.1591  2.0627  0.3437
 8962TIP3   OH248300   6.473   0.150  15.535 -0.9378  0.3009  0.6775
 8962TIP3    H148301   6.447   0.058  15.531 -1.4203  0.4756 -0.7598
 8962TIP3    H248302   6.418   0.193  15.470  0.1599  1.3873  0.4373
 8963TIP3   OH248303   5.742   4.895   3.427 -0.5225  0.1048  0.4421
 8963TIP3    H148304   5.826   4.860   3.458 -0.5802 -0.1052  0.3564
 8963TIP3    H248305   5.762   4.934   3.342 -0.8483 -1.4421 -0.3805
 8964TIP3   OH248306   3.232   1.073   3.236 -0.4333  0.1810  0.5372
 8964TIP3    H148307   3.157   1.129   3.253  1.1887  2.5473  0.3674
 8964TIP3    H248308   3.303   1.133   3.212  0.8872 -2.0949 -1.8248
 8965TIP3   OH248309   3.097   0.534  12.521 -0.1825 -0.0176 -0.5294
 8965TIP3    H148310   3.053   0.522  12.605 -0.7991  0.8720 -0.7179
 8965TIP3    H248311   3.039   0.490  12.458  0.4202 -0.9326 -0.4724
 8966TIP3   OH248312   3.412   1.264  14.183 -0.6401  0.2441 -0.4271
 8966TIP3    H148313   3.429   1.302  14.097 -0.3880 -1.0539 -0.9592
 8966TIP3    H248314   3.463   1.183  14.185 -2.4288 -0.9241  0.0548
 8967TIP3   OH248315   0.482   5.423   2.782  0.6201  0.5582 -0.0477
 8967TIP3    H148316   0.541   5.390   2.714  0.7304 -0.0705  0.3452
 8967TIP3    H248317   0.493   5.518   2.779  0.2778  0.5751 -1.2198
 8968TIP3   OH248318   4.997   2.335  14.788  0.5290  0.2194  0.2013
 8968TIP3    H148319   4.968   2.284  14.712 -0.0384 -1.4895  1.4899
 8968TIP3    H248320   4.927   2.322  14.852  0.7716  2.0115  0.8726
 8969TIP3   OH248321   5.227   2.585   4.578 -0.1372  0.1352 -0.4723
 8969TIP3    H148322   5.162   2.579   4.507 -0.1844 -0.0697 -0.4141
 8969TIP3    H248323   5.295   2.641   4.543  0.5750 -1.1618 -1.2731
 8970TIP3   OH248324   2.043   1.037  16.445 -0.0732 -0.1030 -0.0063
 8970TIP3    H148325   2.023   1.055  16.537 -3.0815  1.0542 -0.7867
 8970TIP3    H248326   2.018   0.945  16.433 -1.3089  0.2213 -0.0285
 8971TIP3   OH248327   1.379   4.047   3.153  0.1952 -0.2343 -0.3884
 8971TIP3    H148328   1.431   4.127   3.154  0.3802 -0.3557  0.0004
 8971TIP3    H248329   1.379   4.019   3.062  1.8805 -0.9270 -0.1987
 8972TIP3   OH248330   0.861   2.299  11.528  0.0963 -0.0174  0.5049
 8972TIP3    H148331   0.860   2.316  11.623 -1.5358 -0.1549  0.5388
 8972TIP3    H248332   0.769   2.296  11.504  0.4444  2.3656 -1.5182
 8973TIP3   OH248333   2.531   5.519  13.392  0.3032  0.0237 -0.4694
 8973TIP3    H148334   2.460   5.459  13.368  0.5735 -0.5251  0.0518
 8973TIP3    H248335   2.543   5.575  13.315 -2.5427  2.0047  0.3592
 8974TIP3   OH248336   2.719   4.020   2.963  0.4902 -0.3990 -0.0004
 8974TIP3    H148337   2.677   4.096   2.921 -0.2469 -0.0374  1.3430
 8974TIP3    H248338   2.810   4.023   2.931 -0.2768 -0.8331 -2.4693
 8975TIP3   OH248339   5.464   5.117   0.801 -0.0152  0.4020 -0.5059
 8975TIP3    H148340   5.489   5.125   0.893  1.6249  0.7365 -0.9527
 8975TIP3    H248341   5.383   5.065   0.803 -0.9011  1.7182  1.2032
 8976TIP3   OH248342   1.523   1.921   5.320 -0.5016  0.0791  0.1932
 8976TIP3    H148343   1.548   1.916   5.412  0.1679 -0.5775 -0.0138
 8976TIP3    H248344   1.564   1.845   5.280 -0.0964  0.8147 -0.8141
 8977TIP3   OH248345   2.264   3.159   0.939 -0.2087  0.2170 -0.1511
 8977TIP3    H148346   2.233   3.207   1.016  0.9495  1.7839 -0.6193
 8977TIP3    H248347   2.192   3.098   0.919 -1.2967  1.0249  1.0717
 8978TIP3   OH248348   1.894   5.387  15.944  0.0891 -0.4362 -0.0759
 8978TIP3    H148349   1.933   5.474  15.947  2.9982 -1.6220 -0.5373
 8978TIP3    H248350   1.948   5.335  16.003 -0.8431 -2.2332 -0.7424
 8979TIP3   OH248351   6.128   0.645  15.716 -0.0675 -0.5511 -0.1258
 8979TIP3    H148352   6.105   0.622  15.806 -0.8497 -0.8182 -0.3851
 8979TIP3    H248353   6.150   0.561  15.675  1.3996 -0.3052  0.1087
 8980TIP3   OH248354   4.979   4.750  12.187  0.0509  0.3027  0.4390
 8980TIP3    H148355   4.984   4.789  12.275  1.6313 -0.9228  0.9456
 8980TIP3    H248356   4.966   4.824  12.128  0.6953  1.3418  1.5652
 8981TIP3   OH248357   4.548   6.162  16.176  0.4056 -0.0916  0.4685
 8981TIP3    H148358   4.535   6.255  16.195 -1.4698  0.0239 -1.0556
 8981TIP3    H248359   4.476   6.118  16.221  0.8213 -0.7411  0.5245
 8982TIP3   OH248360   5.018   0.351   2.628  0.1908 -0.4637  0.3126
 8982TIP3    H148361   5.057   0.266   2.649  0.9394 -0.0525  0.6037
 8982TIP3    H248362   4.930   0.346   2.664  0.3267 -1.0097  0.5862
 8983TIP3   OH248363   0.718   1.884  14.870  0.2830  0.6339  0.3768
 8983TIP3    H148364   0.679   1.877  14.782  1.1647  0.1895  0.0079
 8983TIP3    H248365   0.734   1.978  14.881 -0.1008  0.7264  0.1851
 8984TIP3   OH248366   4.954   0.951   1.775  0.0384  0.2009 -1.0327
 8984TIP3    H148367   4.922   0.925   1.689 -2.3214 -1.9746  0.3245
 8984TIP3    H248368   4.876   0.983   1.820  0.9599  0.2406  0.6231
 8985TIP3   OH248369   5.290   3.658  16.585  0.3684 -0.0476  0.1337
 8985TIP3    H148370   5.291   3.608  16.503  0.9547 -0.1053  0.1707
 8985TIP3    H248371   5.214   3.717  16.577  0.6920  0.2744 -0.6523
 8986TIP3   OH248372   5.639   1.798  11.498  0.2291 -0.9841  0.2228
 8986TIP3    H148373   5.610   1.735  11.432 -0.7485  0.7050 -1.0222
 8986TIP3    H248374   5.671   1.873  11.448 -0.8402  0.4821  1.6348
 8987TIP3   OH248375   3.634   5.406   4.028  0.1859  0.5763 -0.1757
 8987TIP3    H148376   3.574   5.355   4.082 -0.2420 -0.2455 -1.3697
 8987TIP3    H248377   3.721   5.386   4.062 -0.0789  0.1693  0.2754
 8988TIP3   OH248378   1.179   3.018  15.896 -0.0442  0.1568 -0.5009
 8988TIP3    H148379   1.211   3.023  15.986 -3.0566 -0.1695  0.7324
 8988TIP3    H248380   1.224   2.943  15.858 -1.5010 -2.2392  2.1226
 8989TIP3   OH248381   5.318   1.788   1.162  0.2115  0.0504  0.3863
 8989TIP3    H148382   5.387   1.776   1.097 -0.2805 -0.9945  0.0301
 8989TIP3    H248383   5.362   1.828   1.237  0.9200  0.6743 -0.3373
 8990TIP3   OH248384   6.714   2.247   0.814  0.4623 -0.5182 -0.0202
 8990TIP3    H148385   6.740   2.339   0.826 -1.1393 -0.0001 -0.2128
 8990TIP3    H248386   6.657   2.229   0.888 -0.7311 -0.7441 -0.9598
 8991TIP3   OH248387   4.989   3.529  13.342 -0.7515  0.7382 -0.4909
 8991TIP3    H148388   5.046   3.601  13.313  0.9342 -0.6774 -0.8618
 8991TIP3    H248389   4.960   3.488  13.261 -0.1678 -0.1348 -0.2629
 8992TIP3   OH248390   2.592   0.809   3.823  0.2174 -0.1940 -0.4661
 8992TIP3    H148391   2.597   0.732   3.881  1.1441  0.3258  0.1680
 8992TIP3    H248392   2.651   0.787   3.750  0.1668 -0.2513 -0.4903
 8993TIP3   OH248393   2.607   3.697   4.588  0.4827  0.2084 -0.6796
 8993TIP3    H148394   2.605   3.777   4.640  0.8947  0.0742 -0.4556
 8993TIP3    H248395   2.612   3.626   4.653  0.8655  0.0342 -0.8959
 8994TIP3   OH248396   4.616   4.340   2.897 -0.2137  0.3907 -0.0439
 8994TIP3    H148397   4.569   4.322   2.815 -0.5413  1.7628 -0.1901
 8994TIP3    H248398   4.579   4.279   2.960 -0.2626 -0.3984 -0.8101
 8995TIP3   OH248399   3.697   0.133   3.770 -0.8582 -0.0780  0.9687
 8995TIP3    H148400   3.785   0.097   3.783 -0.6698 -0.3067 -0.7239
 8995TIP3    H248401   3.638   0.060   3.790 -0.5084 -1.1617 -1.5478
 8996TIP3   OH248402   5.922   0.920   3.588  0.2639  1.0372 -0.3511
 8996TIP3    H148403   5.900   0.995   3.533 -0.0757  0.8093 -0.5308
 8996TIP3    H248404   5.856   0.855   3.566  0.7297  0.5811 -0.4047
 8997TIP3   OH248405   1.138   2.255   1.685 -0.2320  0.0362 -0.0303
 8997TIP3    H148406   1.095   2.332   1.723  0.3766  0.9615 -1.1084
 8997TIP3    H248407   1.223   2.251   1.729 -0.6103 -0.5669  0.6575
 8998TIP3   OH248408   4.918   3.270   5.511 -0.1230 -0.7649  0.4581
 8998TIP3    H148409   4.956   3.358   5.501  2.1824 -1.6799  0.6534
 8998TIP3    H248410   4.850   3.281   5.577 -0.2074  0.9572  0.1449
 8999TIP3   OH248411   3.057   0.635  13.961  0.4638  0.0816  0.1084
 8999TIP3    H148412   2.970   0.598  13.971  0.8136 -0.7495  0.1899
 8999TIP3    H248413   3.077   0.625  13.868  0.1141  1.1258 -0.0950
 9000TIP3   OH248414   0.328   3.015   4.276 -0.0190 -0.3238  0.5390
 9000TIP3    H148415   0.295   2.987   4.190  2.2679  1.3561 -1.0057
 9000TIP3    H248416   0.369   2.936   4.312  0.4424 -0.6956 -0.7091
 9001TIP3   OH248417   4.948   1.245   5.745  0.1470  0.3236  0.2369
 9001TIP3    H148418   4.883   1.174   5.751  1.0614 -0.5863 -0.2061
 9001TIP3    H248419   4.911   1.316   5.795 -1.2827 -0.1132 -0.1580
 9002TIP3   OH248420   6.117   0.793  10.877 -0.1038 -0.0184 -0.0237
 9002TIP3    H148421   6.067   0.828  10.803 -0.4923 -0.6806 -0.0777
 9002TIP3    H248422   6.206   0.783  10.844 -0.1225  0.3333 -0.1883
 9003TIP3   OH248423   3.311   1.911  17.061  0.0088 -0.3456 -0.2202
 9003TIP3    H148424   3.295   1.821  17.030 -0.8356 -0.3831  0.2756
 9003TIP3    H248425   3.405   1.915  17.077 -0.0562 -1.4209  0.5492
 9004TIP3   OH248426   4.407   4.337   5.084 -0.1380 -0.0933 -0.3205
 9004TIP3    H148427   4.389   4.244   5.067  4.5027 -1.1660 -0.6676
 9004TIP3    H248428   4.385   4.381   5.002  0.1024 -1.3771 -1.1046
 9005TIP3   OH248429   0.705   2.063   4.585 -0.3723  0.4345 -0.3267
 9005TIP3    H148430   0.729   2.151   4.613 -1.6310  1.1949 -1.5460
 9005TIP3    H248431   0.782   2.010   4.607  1.3279  2.2180 -1.5632
 9006TIP3   OH248432   0.202   3.513  14.641 -0.0224  0.4957  0.5489
 9006TIP3    H148433   0.222   3.524  14.734  0.1008  2.4529  0.3411
 9006TIP3    H248434   0.157   3.430  14.635  0.0455  0.3034  2.3530
 9007TIP3   OH248435   4.012   1.749   1.897 -0.2450 -0.2301 -0.0799
 9007TIP3    H148436   4.088   1.806   1.898 -0.7844  0.4993  0.9940
 9007TIP3    H248437   3.995   1.733   1.804  1.4153 -0.7165 -0.3312
 9008TIP3   OH248438   1.684   1.715  12.425 -0.0532  0.0097 -0.0786
 9008TIP3    H148439   1.697   1.621  12.413 -0.1974 -0.1083  0.6058
 9008TIP3    H248440   1.750   1.756  12.370  2.4769 -0.5330  2.3091
 9009TIP3   OH248441   2.703   5.898   1.789 -0.0731 -0.1143 -0.2954
 9009TIP3    H148442   2.724   5.963   1.857  0.2170  0.4148 -0.8863
 9009TIP3    H248443   2.720   5.943   1.707  0.2645 -0.9911 -0.7131
 9010TIP3   OH248444   2.124   1.917  14.642 -0.0766  0.0104  0.3868
 9010TIP3    H148445   2.054   1.964  14.596  0.7608  0.1392 -0.8048
 9010TIP3    H248446   2.138   1.968  14.722 -0.4390  0.7481 -0.0059
 9011TIP3   OH248447   2.334   0.226   5.987 -0.1017 -0.4307 -0.1459
 9011TIP3    H148448   2.417   0.189   5.959  0.2627  0.4750 -0.3171
 9011TIP3    H248449   2.279   0.224   5.909 -0.2059 -0.9182 -0.0634
 9012TIP3   OH248450   6.736   4.874   0.257  0.4849 -0.5496  0.0840
 9012TIP3    H148451   6.746   4.828   0.341  0.3764  1.2559  1.1570
 9012TIP3    H248452   6.789   4.953   0.267 -1.6472  1.0297 -0.4884
 9013TIP3   OH248453   1.950   4.871  12.111  0.7772  0.3197  0.2518
 9013TIP3    H148454   2.002   4.803  12.154 -0.4647 -0.0809  1.1870
 9013TIP3    H248455   1.929   4.932  12.181 -1.5327 -0.4896  0.3336
 9014TIP3   OH248456   5.106   2.208   5.385  0.6665 -0.0692 -0.0075
 9014TIP3    H148457   5.145   2.121   5.396  2.2661  0.5634 -0.3610
 9014TIP3    H248458   5.180   2.268   5.393  0.1676  1.0770 -2.8489
 9015TIP3   OH248459   3.662   4.970   4.487 -0.1652 -0.3365  0.0012
 9015TIP3    H148460   3.647   5.023   4.566 -1.1880 -1.8473  0.8744
 9015TIP3    H248461   3.680   4.882   4.521  1.2012 -0.6394 -1.4135
 9016TIP3   OH248462   2.881   4.538  15.271  0.8595 -0.2536  0.0796
 9016TIP3    H148463   2.808   4.532  15.332  1.3947  0.6570  0.8394
 9016TIP3    H248464   2.843   4.515  15.186 -0.4521  0.7708  0.3455
 9017TIP3   OH248465   3.249   1.822  14.857  0.4386 -0.7657  0.6034
 9017TIP3    H148466   3.154   1.826  14.865  0.4590  0.1749  0.5305
 9017TIP3    H248467   3.266   1.860  14.770  0.9064 -0.4402  0.8363
 9018TIP3   OH248468   6.174   4.120   0.299 -0.4003 -0.1364 -0.0443
 9018TIP3    H148469   6.261   4.103   0.265  0.1783 -2.6494  2.2902
 9018TIP3    H248470   6.124   4.152   0.224  2.4190  1.1976 -1.4865
 9019TIP3   OH248471   5.385   3.667   2.860 -0.0282 -0.4010 -0.5292
 9019TIP3    H148472   5.378   3.580   2.821 -0.9248  0.0918 -1.5096
 9019TIP3    H248473   5.423   3.722   2.791  0.2047  0.0669 -0.0392
 9020TIP3   OH248474   2.300   0.687   0.730  0.5539  0.0551  0.2978
 9020TIP3    H148475   2.210   0.653   0.735  0.1243  0.7703 -1.4733
 9020TIP3    H248476   2.301   0.759   0.793 -0.3744  0.5177 -0.1868
 9021TIP3   OH248477   3.245   1.492  12.940 -0.1020  0.5256 -0.2602
 9021TIP3    H148478   3.253   1.584  12.917  2.5559  1.5859  3.8268
 9021TIP3    H248479   3.164   1.486  12.990  0.5707  1.1127  0.9408
 9022TIP3   OH248480   4.021   6.199   4.213  0.4109  0.3740  0.1905
 9022TIP3    H148481   4.040   6.241   4.297  1.8433  0.0212  0.0626
 9022TIP3    H248482   4.104   6.202   4.165  0.0995 -1.0548 -0.4988
 9023TIP3   OH248483   4.466   4.943   5.386  0.4596 -0.1354  0.0025
 9023TIP3    H148484   4.441   4.852   5.402 -0.1303 -0.5617 -2.8118
 9023TIP3    H248485   4.414   4.994   5.450 -0.7166 -1.6346  0.2981
 9024TIP3   OH248486   0.437   1.604  16.844 -0.4897 -0.0850  0.0126
 9024TIP3    H148487   0.448   1.636  16.754  0.0039 -0.1286  0.0552
 9024TIP3    H248488   0.358   1.648  16.876 -1.7710 -1.4853 -1.0724
 9025TIP3   OH248489   3.616   4.862  11.918 -0.0802  0.0066 -0.1718
 9025TIP3    H148490   3.711   4.858  11.911  0.1944  1.6991  1.7305
 9025TIP3    H248491   3.593   4.948  11.882 -0.7611  0.0718  0.4032
 9026TIP3   OH248492   0.224   5.561  13.828  0.3302  0.3886 -0.0164
 9026TIP3    H148493   0.241   5.633  13.767  1.6463  0.3478  0.2724
 9026TIP3    H248494   0.257   5.592  13.912 -1.4866  0.4489  0.7169
 9027TIP3   OH248495   2.811   5.508  11.327 -0.4453  0.3393 -0.0438
 9027TIP3    H148496   2.824   5.428  11.276  1.0560  0.4039  0.1988
 9027TIP3    H248497   2.805   5.578  11.261 -0.8330  0.1422 -0.2179
 9028TIP3   OH248498   1.743   4.975   2.956  0.5185  0.2790  0.2961
 9028TIP3    H148499   1.833   4.986   2.989  0.1960  0.0132  1.3131
 9028TIP3    H248500   1.727   4.881   2.961  0.1973  0.3202  0.0783
 9029TIP3   OH248501   4.392   3.494  14.822  0.3321  0.0686 -0.7407
 9029TIP3    H148502   4.305   3.516  14.855  0.5806  1.0174 -0.6940
 9029TIP3    H248503   4.423   3.574  14.780  1.1777 -0.2658 -0.7765
 9030TIP3   OH248504   4.350   3.551   2.644  0.4939  0.7729  0.3769
 9030TIP3    H148505   4.412   3.492   2.601 -0.2867 -0.5713  1.0228
 9030TIP3    H248506   4.303   3.495   2.706 -2.1871  1.4382 -0.8784
 9031TIP3   OH248507   0.202   2.454   1.074  0.3523 -0.2958 -0.7043
 9031TIP3    H148508   0.164   2.367   1.063 -1.2724  0.3230 -0.3365
 9031TIP3    H248509   0.132   2.514   1.045  1.3699  0.8910 -0.7898
 9032TIP3   OH248510   3.308   3.009  13.349 -0.0494 -0.1766  0.4028
 9032TIP3    H148511   3.293   3.088  13.401  0.6861 -0.2824  0.7977
 9032TIP3    H248512   3.327   3.040  13.261 -1.3073  0.0078  0.1871
 9033TIP3   OH248513   0.762   0.603   4.843 -0.1775  0.2105  0.3146
 9033TIP3    H148514   0.694   0.537   4.826 -2.3266  2.3838 -0.1257
 9033TIP3    H248515   0.815   0.604   4.763  0.8448 -1.9301  0.8906
 9034TIP3   OH248516   6.085   6.594   5.053  0.1172 -0.2986 -0.1754
 9034TIP3    H148517   5.997   6.616   5.021  0.5206 -0.5255 -1.4613
 9034TIP3    H248518   6.070   6.523   5.116 -0.6243 -0.2312 -0.2609
 9035TIP3   OH248519   3.584   2.454   6.075  0.1996  0.0874 -0.1997
 9035TIP3    H148520   3.672   2.419   6.060  0.3611 -0.4518  1.6663
 9035TIP3    H248521   3.592   2.548   6.059  0.9311 -0.0606 -0.7492
 9036TIP3   OH248522   0.387   4.134   4.387  0.6645 -0.1856 -0.2585
 9036TIP3    H148523   0.373   4.223   4.419  3.1491  0.1272  0.1043
 9036TIP3    H248524   0.344   4.079   4.453 -0.2687  0.6785 -0.1055
 9037TIP3   OH248525   0.365   3.371   0.522  0.1578 -0.0831  0.5380
 9037TIP3    H148526   0.460   3.377   0.529  0.1096 -0.3823  1.6300
 9037TIP3    H248527   0.342   3.292   0.571 -0.6826  0.1662  0.5661
 9038TIP3   OH248528   0.068   2.940  13.186  0.2110  0.7175 -0.3562
 9038TIP3    H148529   0.117   2.871  13.142 -0.0326  1.1571 -1.3632
 9038TIP3    H248530   0.010   2.894  13.246 -0.2665 -0.0002 -1.3334
 9039TIP3   OH248531   3.974   4.918  14.686 -0.0065 -0.1770  0.7512
 9039TIP3    H148532   4.040   4.848  14.680 -1.2260 -1.2871 -0.8047
 9039TIP3    H248533   3.968   4.953  14.597 -1.3713 -0.0021  0.8823
 9040TIP3   OH248534   2.097   2.653   5.382 -0.2664  0.0754 -0.0463
 9040TIP3    H148535   2.172   2.683   5.434 -0.5879 -1.6053  1.4564
 9040TIP3    H248536   2.136   2.618   5.302  0.5808 -0.8269  0.7386
 9041TIP3   OH248537   0.739   3.479  14.577  0.3566 -0.1920 -0.5001
 9041TIP3    H148538   0.654   3.465  14.619  0.0563 -1.2573 -1.4225
 9041TIP3    H248539   0.802   3.443  14.640 -0.1567 -2.6190 -1.2700
 9042TIP3   OH248540   5.015   0.776  13.357 -0.3316  0.6434  0.0067
 9042TIP3    H148541   5.069   0.850  13.384  0.2656  0.3904 -0.4508
 9042TIP3    H248542   4.955   0.812  13.292  0.2889  0.6406 -0.5815
 9043TIP3   OH248543   0.842   4.507  13.278 -0.1794  0.1124 -0.2581
 9043TIP3    H148544   0.843   4.440  13.346  0.4391 -0.8077 -1.1398
 9043TIP3    H248545   0.930   4.544  13.279 -0.7530  1.5438  0.7943
 9044TIP3   OH248546   4.195   2.247   6.136 -0.4580  0.1067 -0.4712
 9044TIP3    H148547   4.137   2.272   6.064 -0.1585  0.4473 -0.6035
 9044TIP3    H248548   4.183   2.316   6.202 -1.1210 -0.4872  0.0347
 9045TIP3   OH248549   3.852   5.819  12.238  0.5213 -0.4355 -0.6743
 9045TIP3    H148550   3.894   5.777  12.314  0.9696 -2.6964 -2.0650
 9045TIP3    H248551   3.924   5.837  12.178 -0.0851 -1.3609 -1.7347
 9046TIP3   OH248552   3.231   2.667   3.332  0.2160  0.1817 -0.1647
 9046TIP3    H148553   3.246   2.594   3.273  0.3469  0.3211 -0.3027
 9046TIP3    H248554   3.153   2.643   3.382 -2.4722  1.8408 -3.2115
 9047TIP3   OH248555   4.832   3.029  11.310  0.1647 -0.2245  0.1891
 9047TIP3    H148556   4.922   3.024  11.277  0.3526 -1.6589  0.8662
 9047TIP3    H248557   4.831   3.109  11.363  0.6665  0.5111 -0.8732
 9048TIP3   OH248558   0.566   2.765  11.685  0.0860 -0.4779  0.0434
 9048TIP3    H148559   0.494   2.771  11.622  0.4803  1.0909 -0.2949
 9048TIP3    H248560   0.631   2.827  11.654  0.3426  0.2696  1.9205
 9049TIP3   OH248561   4.879   0.185   3.360  0.9380  0.4850 -0.8536
 9049TIP3    H148562   4.927   0.126   3.419 -0.1369  1.3270  0.9628
 9049TIP3    H248563   4.936   0.195   3.284  2.0958 -1.1835 -0.2739
 9050TIP3   OH248564   5.227   4.322  15.821 -0.1212  0.8605  0.3598
 9050TIP3    H148565   5.235   4.317  15.725 -3.4770  0.7203 -0.0334
 9050TIP3    H248566   5.236   4.416  15.840 -1.7131  1.2193 -0.4430
 9051TIP3   OH248567   3.424   2.980  11.597 -0.1924  0.3163 -0.5330
 9051TIP3    H148568   3.464   2.947  11.516 -0.2319 -0.4566 -0.2521
 9051TIP3    H248569   3.497   3.018  11.646  0.3224 -1.3841  0.1249
 9052TIP3   OH248570   4.314   3.840   5.062 -0.1450 -0.0129 -0.3177
 9052TIP3    H148571   4.294   3.752   5.028 -0.0611 -0.0299 -0.3217
 9052TIP3    H248572   4.349   3.824   5.150  1.3701 -0.0829 -0.9180
 9053TIP3   OH248573   3.916   2.380   4.632 -0.0955 -0.2048  0.2176
 9053TIP3    H148574   4.003   2.355   4.662 -0.5329 -1.7058  0.3274
 9053TIP3    H248575   3.925   2.470   4.602  1.4323 -0.2639  0.4522
 9054TIP3   OH248576   0.284   4.644  12.925 -0.2473 -0.6087 -0.5000
 9054TIP3    H148577   0.241   4.655  13.010  1.3450 -0.7716  0.3825
 9054TIP3    H248578   0.222   4.678  12.862 -0.4913  1.8774  0.9597
 9055TIP3   OH248579   1.027   0.392   2.200  0.6102  0.7029  0.4708
 9055TIP3    H148580   0.963   0.459   2.221  1.6467  1.2353  2.1045
 9055TIP3    H248581   0.987   0.310   2.228 -0.0897  0.7992 -0.2294
 9056TIP3   OH248582   1.935   4.664  16.871 -0.1529  0.4684 -0.5427
 9056TIP3    H148583   1.934   4.758  16.891 -0.6070  0.8685 -2.2836
 9056TIP3    H248584   1.845   4.636  16.887  0.2000  0.0715  0.9334
 9057TIP3   OH248585   5.550   3.670   0.991 -0.0875  0.4564  0.1889
 9057TIP3    H148586   5.615   3.684   1.060 -1.5590 -1.2774  2.0433
 9057TIP3    H248587   5.596   3.616   0.926  0.7610  0.5022  0.7302
 9058TIP3   OH248588   0.207   1.510   5.931  0.0907  0.3035  0.1611
 9058TIP3    H148589   0.278   1.517   5.995  0.0284 -1.1657  0.4239
 9058TIP3    H248590   0.197   1.599   5.896  2.2536  0.5027 -0.0927
 9059TIP3   OH248591   5.094   2.567   5.346  0.5293  0.5994 -0.0668
 9059TIP3    H148592   5.175   2.579   5.394  0.6304  0.4219 -0.1925
 9059TIP3    H248593   5.120   2.525   5.264  0.1878 -0.4433  0.3501
 9060TIP3   OH248594   5.236   1.997   4.369  0.4583 -0.1088 -0.3057
 9060TIP3    H148595   5.185   1.945   4.432  2.0929 -1.8561 -0.3643
 9060TIP3    H248596   5.266   2.073   4.420  0.3062 -0.6030  0.5414
 9061TIP3   OH248597   2.215   4.716   5.673 -0.0340 -0.2683  0.6177
 9061TIP3    H148598   2.309   4.702   5.659 -0.1004 -0.3536  0.2560
 9061TIP3    H248599   2.196   4.797   5.626  0.4400  1.3696  3.0335
 9062TIP3   OH248600   5.714   0.651  12.293 -0.2582  0.0513 -0.0048
 9062TIP3    H148601   5.724   0.675  12.201 -1.6594  0.8019  0.0245
 9062TIP3    H248602   5.622   0.626  12.302 -0.1691  0.1031  1.2257
 9063TIP3   OH248603   1.075   3.318   5.106 -0.5187  0.0591 -0.4271
 9063TIP3    H148604   1.064   3.225   5.087  1.2787 -0.4423  0.7706
 9063TIP3    H248605   1.154   3.344   5.059 -0.1609  0.5973  0.4370
 9064TIP3   OH248606   4.526   6.322  13.348  0.1335  0.0070  0.2554
 9064TIP3    H148607   4.504   6.397  13.292 -0.9609 -0.1107  0.5238
 9064TIP3    H248608   4.602   6.283  13.305 -1.0284 -0.4423 -1.4989
 9065TIP3   OH248609   6.513   4.447  10.273 -0.3196  0.7668 -0.0548
 9065TIP3    H148610   6.459   4.502  10.218 -0.4639 -0.4070 -1.1377
 9065TIP3    H248611   6.470   4.361  10.271  0.4014  0.3642  0.8111
 9066TIP3   OH248612   1.142   4.711  15.450 -0.1518 -0.0842 -0.1717
 9066TIP3    H148613   1.108   4.733  15.537 -1.4619  2.6655 -1.2490
 9066TIP3    H248614   1.080   4.649  15.413 -3.0391  3.1102 -1.2177
 9067TIP3   OH248615   3.984   4.363  11.940  0.1699 -0.3156  0.0201
 9067TIP3    H148616   4.060   4.406  11.978 -0.4496 -0.2754  1.2591
 9067TIP3    H248617   4.004   4.357  11.846  0.9267  1.2609  0.0562
 9068TIP3   OH248618   1.313   3.743   2.175  0.3735  0.1315 -0.5777
 9068TIP3    H148619   1.377   3.803   2.213  0.8056  0.3077 -1.5299
 9068TIP3    H248620   1.230   3.791   2.178  0.1431 -0.3288  1.2109
 9069TIP3   OH248621   6.797   2.283  15.617 -0.6407 -0.3191 -0.2658
 9069TIP3    H148622   6.858   2.299  15.689 -0.0133  0.4799 -0.9523
 9069TIP3    H248623   6.848   2.233  15.553 -1.0317 -0.5544 -0.3972
 9070TIP3   OH248624   1.853   0.250  11.966  0.2025  0.1202 -0.1220
 9070TIP3    H148625   1.873   0.340  11.941 -1.2529  0.5218  0.0559
 9070TIP3    H248626   1.905   0.196  11.907 -0.8244  1.0585 -1.9759
 9071TIP3   OH248627   2.394   5.679   3.122 -0.1152 -0.2853 -0.4117
 9071TIP3    H148628   2.444   5.616   3.071  0.9273  0.6305 -0.5523
 9071TIP3    H248629   2.401   5.647   3.212  1.0869  0.0384 -0.3705
 9072TIP3   OH248630   3.617   4.908  15.977  0.4899  0.3318 -0.0028
 9072TIP3    H148631   3.584   4.877  15.893  1.0531  0.6983 -0.3682
 9072TIP3    H248632   3.559   4.869  16.042  0.3816 -0.3998 -0.5299
 9073TIP3   OH248633   5.310   3.147   1.250 -0.4525  0.5166  0.4347
 9073TIP3    H148634   5.328   3.206   1.323 -0.8914  0.2339  0.7757
 9073TIP3    H248635   5.248   3.083   1.285  1.8333 -1.6593  0.8466
 9074TIP3   OH248636   2.849   1.796   3.783 -0.8043  0.5057  0.0894
 9074TIP3    H148637   2.800   1.794   3.701  0.3621  1.7679 -0.6797
 9074TIP3    H248638   2.881   1.707   3.794 -1.4228  0.1986 -0.5447
 9075TIP3   OH248639   1.559   0.376  12.933  0.9138 -0.0275 -0.3074
 9075TIP3    H148640   1.549   0.468  12.913  1.7664  0.7877  2.4783
 9075TIP3    H248641   1.472   0.346  12.957  0.8187  0.3744 -0.1450
 9076TIP3   OH248642   0.690   3.592  16.047  0.0695 -0.1827  0.1719
 9076TIP3    H148643   0.608   3.554  16.080  0.2925 -1.2712 -0.4640
 9076TIP3    H248644   0.757   3.558  16.106  0.2392 -0.5958 -0.2479
 9077TIP3   OH248645   1.320   3.570   0.921  0.3229  0.6417  0.2426
 9077TIP3    H148646   1.319   3.633   0.993 -1.7140  0.8474  0.0769
 9077TIP3    H248647   1.290   3.488   0.961 -2.6380  1.1836 -0.6597
 9078TIP3   OH248648   6.324   4.656  15.876 -0.1144  1.0102  0.4587
 9078TIP3    H148649   6.256   4.627  15.816 -0.1836  0.7950  0.6411
 9078TIP3    H248650   6.292   4.739  15.912 -2.0559 -0.8191  3.3825
 9079TIP3   OH248651   2.983   2.848   0.536  0.0787 -0.5182  0.1013
 9079TIP3    H148652   2.957   2.836   0.627 -0.7404  0.1075 -0.0403
 9079TIP3    H248653   3.020   2.936   0.532  0.1839 -0.5725 -0.1536
 9080TIP3   OH248654   5.428   3.041  12.932  0.0892 -0.7487  0.9616
 9080TIP3    H148655   5.371   3.108  12.894  1.8608  0.4975  0.3425
 9080TIP3    H248656   5.456   3.078  13.016  2.5301  0.2506 -0.1733
 9081TIP3   OH248657   1.008   0.626   0.107  0.5189  0.2525 -0.0522
 9081TIP3    H148658   0.928   0.654   0.062  0.8418 -0.2615 -0.9731
 9081TIP3    H248659   1.060   0.707   0.116  0.3222  0.4118 -0.3414
 9082TIP3   OH248660   0.237   4.057  13.193  0.1295 -0.6771  0.0986
 9082TIP3    H148661   0.214   4.016  13.277  0.2474 -1.2282 -0.1333
 9082TIP3    H248662   0.167   4.030  13.134 -0.8868  1.1076  0.4204
 9083TIP3   OH248663   5.198   1.105   2.147 -0.4423  0.0337  0.1595
 9083TIP3    H148664   5.182   1.153   2.228  0.2368 -0.9159  0.8862
 9083TIP3    H248665   5.293   1.110   2.136 -0.3261 -1.3234  0.3898
 9084TIP3   OH248666   3.387   5.176  15.338 -0.4890 -0.3708 -0.1346
 9084TIP3    H148667   3.320   5.178  15.269 -2.0346  2.1497  1.2631
 9084TIP3    H248668   3.461   5.225  15.301 -0.5110 -0.7421 -0.6820
 9085TIP3   OH248669   1.052   5.036  13.140 -0.1132 -0.0754  0.4176
 9085TIP3    H148670   1.080   5.127  13.143  0.0997 -0.1451  0.5901
 9085TIP3    H248671   0.960   5.040  13.115 -0.5245  0.2780  1.9090
 9086TIP3   OH248672   2.740   2.442  13.235 -0.5249 -0.1725 -0.8411
 9086TIP3    H148673   2.831   2.469  13.228 -0.5976 -0.1757 -1.9133
 9086TIP3    H248674   2.706   2.492  13.310  0.3025 -0.0474 -0.5391
 9087TIP3   OH248675   0.131   1.444  16.653 -0.2426  0.3879 -0.2076
 9087TIP3    H148676   0.082   1.526  16.647 -2.5005 -0.9534 -1.3161
 9087TIP3    H248677   0.183   1.442  16.573  0.9047  1.3435  0.4857
 9088TIP3   OH248678   0.982   1.936   3.934 -0.0392 -0.2614 -1.0255
 9088TIP3    H148679   1.048   1.964   3.870 -0.8554  3.8901 -0.3130
 9088TIP3    H248680   0.899   1.941   3.887 -0.2394 -2.3072 -0.9929
 9089TIP3   OH248681   3.780   0.865  13.820  0.4779  0.4117  0.2114
 9089TIP3    H148682   3.696   0.825  13.799  0.5119  0.2663  0.3553
 9089TIP3    H248683   3.767   0.959  13.804  0.6815  0.2378 -1.0551
 9090TIP3   OH248684   4.300   3.631  13.077  0.4513  0.1035 -0.3829
 9090TIP3    H148685   4.316   3.555  13.020  1.0129  0.7260 -1.0691
 9090TIP3    H248686   4.209   3.622  13.103  0.1832 -0.1943 -1.3804
 9091TIP3   OH248687   4.176   5.834  11.310  0.0039  0.0366  0.4442
 9091TIP3    H148688   4.196   5.871  11.224  0.2182 -1.2300 -0.0821
 9091TIP3    H248689   4.151   5.909  11.364  2.1322  1.1768 -0.0482
 9092TIP3   OH248690   3.395   6.519   3.760 -0.0289 -0.3892 -0.2196
 9092TIP3    H148691   3.338   6.514   3.837  0.8127  1.5356  0.5823
 9092TIP3    H248692   3.458   6.448   3.773 -0.4780 -0.6930  0.3712
 9093TIP3   OH248693   5.197   2.256  12.858 -0.3328 -0.4656  0.0567
 9093TIP3    H148694   5.160   2.312  12.789 -0.7277 -0.0974  0.5637
 9093TIP3    H248695   5.233   2.317  12.922 -1.0198 -0.7843  0.7562
 9094TIP3   OH248696   3.966   1.531   0.225 -0.5369 -0.0964  0.1943
 9094TIP3    H148697   3.934   1.558   0.139 -1.8273 -2.1715 -0.0560
 9094TIP3    H248698   3.917   1.451   0.245 -0.8117  0.6837  3.1913
 9095TIP3   OH248699   4.437   1.604   4.254 -0.3348  0.1774  0.0173
 9095TIP3    H148700   4.365   1.642   4.305 -0.1799  1.8236 -0.9188
 9095TIP3    H248701   4.394   1.552   4.186 -0.6825  1.3766 -0.7072
 9096TIP3   OH248702   4.921   3.917  16.639  0.3644 -0.1202  0.3223
 9096TIP3    H148703   4.964   3.868  16.569  1.0397 -1.2464  1.4827
 9096TIP3    H248704   4.982   3.988  16.660  0.0877  0.3199 -0.3070
 9097TIP3   OH248705   4.026   0.392  15.814 -0.4920  0.1289  0.0076
 9097TIP3    H148706   4.012   0.336  15.737  3.5677 -0.6036 -0.4316
 9097TIP3    H248707   4.080   0.339  15.872 -0.6669  1.9126  1.8841
 9098TIP3   OH248708   0.772   5.762  11.761 -0.2542  0.2741  0.2454
 9098TIP3    H148709   0.713   5.702  11.806 -1.5376 -0.0083 -1.7231
 9098TIP3    H248710   0.859   5.728  11.780 -0.8127 -0.6115  1.3573
 9099TIP3   OH248711   0.691   4.671  17.016  0.4637 -1.0513  0.1530
 9099TIP3    H148712   0.714   4.597  17.073 -0.1190 -1.1721  0.2360
 9099TIP3    H248713   0.726   4.647  16.931 -3.0321 -3.2889 -0.8400
 9100TIP3   OH248714   6.206   3.632  10.897 -0.5088 -0.1798  0.4433
 9100TIP3    H148715   6.265   3.637  10.972 -1.7213 -1.0105  1.4861
 9100TIP3    H248716   6.130   3.584  10.929 -0.2650 -2.2960 -1.8351
 9101TIP3   OH248717   3.767   2.926   0.382  0.5280  0.5693 -0.1956
 9101TIP3    H148718   3.758   2.983   0.458  2.6191  0.3501  0.2835
 9101TIP3    H248719   3.781   2.839   0.419  0.3275  0.2467 -0.8625
 9102TIP3   OH248720   2.290   2.184  15.023 -0.4075 -0.1826  0.1239
 9102TIP3    H148721   2.382   2.164  15.043 -0.1984  0.5803 -0.0426
 9102TIP3    H248722   2.241   2.111  15.062  0.4604 -2.4336 -2.6271
 9103TIP3   OH248723   2.264   0.523   2.498  0.0868 -0.4398 -0.7342
 9103TIP3    H148724   2.331   0.462   2.528 -0.4026 -1.9213 -2.4946
 9103TIP3    H248725   2.225   0.557   2.579  1.4294 -1.2581  0.3016
 9104TIP3   OH248726   3.279   6.231  16.099 -0.4672  0.0920  0.4907
 9104TIP3    H148727   3.241   6.289  16.033 -2.8865 -0.6668  1.1132
 9104TIP3    H248728   3.207   6.212  16.159  1.4075  0.0449  2.8965
 9105TIP3   OH248729   6.664   6.153  16.221  0.6645  0.8194  0.3909
 9105TIP3    H148730   6.644   6.082  16.159  1.5584  2.6456 -2.1898
 9105TIP3    H248731   6.588   6.158  16.278  1.0721 -2.9821  1.5829
 9106TIP3   OH248732   4.855   6.070   1.960  0.2699  0.1867 -0.2402
 9106TIP3    H148733   4.924   6.113   2.011  0.9894 -0.9985 -0.1708
 9106TIP3    H248734   4.870   5.977   1.974  0.5862 -0.2010 -2.7607
 9107TIP3   OH248735   1.723   4.626   1.089  0.1444 -0.1632 -0.2522
 9107TIP3    H148736   1.673   4.576   1.153  2.2031 -0.6312  1.0837
 9107TIP3    H248737   1.779   4.561   1.046  0.0228  0.4141 -1.3316
 9108TIP3   OH248738   2.165   1.172   0.356 -0.3531 -0.0083 -0.2464
 9108TIP3    H148739   2.215   1.161   0.276 -0.8656  0.6291 -0.6645
 9108TIP3    H248740   2.168   1.086   0.399  1.7272  0.2092  0.1290
 9109TIP3   OH248741   0.815   6.024   3.047  0.2701  0.0773 -0.3446
 9109TIP3    H148742   0.725   6.046   3.024  0.1471  0.2359  0.2807
 9109TIP3    H248743   0.850   5.984   2.968 -0.5252 -0.5059 -0.4187
 9110TIP3   OH248744   0.510   3.794  17.041 -0.8338  0.0867 -0.3301
 9110TIP3    H148745   0.560   3.874  17.052 -2.8240  1.6258 -1.8093
 9110TIP3    H248746   0.486   3.792  16.948 -1.3774 -1.8862 -0.1975
 9111TIP3   OH248747   1.322   2.420  12.538 -0.0635  0.0732  0.0446
 9111TIP3    H148748   1.364   2.337  12.560 -1.8242 -1.5638 -2.2258
 9111TIP3    H248749   1.240   2.394  12.496 -1.1614  3.0231  0.1854
 9112TIP3   OH248750   0.662   3.471   4.510  0.3917  0.0303 -0.1165
 9112TIP3    H148751   0.648   3.544   4.450  1.1203  0.4026  0.1537
 9112TIP3    H248752   0.654   3.393   4.455 -3.1006  0.0967  0.0447
 9113TIP3   OH248753   6.048   5.415  14.695  0.1958  0.0625  0.2029
 9113TIP3    H148754   5.955   5.428  14.713 -0.2249  0.7031 -2.0837
 9113TIP3    H248755   6.051   5.392  14.602  2.1434 -2.3485  0.7576
 9114TIP3   OH248756   4.900   6.641   0.340  0.1466 -0.8654 -0.1326
 9114TIP3    H148757   4.986   6.625   0.377  1.5518 -1.3844 -3.3192
 9114TIP3    H248758   4.909   6.722   0.290 -1.2977 -0.7851 -0.3220
 9115TIP3   OH248759   5.787   2.004   5.318 -0.0371  0.4636  0.2446
 9115TIP3    H148760   5.730   2.074   5.350  0.9277  0.0403  3.1539
 9115TIP3    H248761   5.814   1.957   5.397  0.7870 -2.1121 -1.4499
 9116TIP3   OH248762   1.349   4.474  14.038 -0.4412  1.0601 -0.3289
 9116TIP3    H148763   1.392   4.390  14.057  0.3050  1.3739 -0.6197
 9116TIP3    H248764   1.299   4.457  13.958  0.9746  1.3069 -1.3053
 9117TIP3   OH248765   4.424   4.907  17.049  0.0393  0.0080  0.3516
 9117TIP3    H148766   4.415   4.980  16.987 -0.4154 -0.1493  0.2260
 9117TIP3    H248767   4.493   4.935  17.109  0.9274 -0.1041 -0.5943
 9118TIP3   OH248768   2.346   2.930   5.637  0.3217  0.0101 -0.2249
 9118TIP3    H148769   2.405   2.941   5.563  0.2651  1.5559 -0.0622
 9118TIP3    H248770   2.295   3.010   5.639 -1.8076 -1.2635 -0.3576
 9119TIP3   OH248771   0.005   4.961   3.948 -0.3984  0.0032 -0.2640
 9119TIP3    H148772   0.028   5.007   3.868 -0.6983  1.3437  0.3901
 9119TIP3    H248773  -0.059   5.018   3.991 -0.7291 -0.9950  0.6247
 9120TIP3   OH248774   2.550   0.016   1.208  0.2298  0.3444  0.0270
 9120TIP3    H148775   2.519   0.092   1.159  0.0845 -0.3096 -0.9135
 9120TIP3    H248776   2.637   0.041   1.239  0.3128  0.7791 -0.5327
 9121TIP3   OH248777   3.297   4.533   3.003  0.2820  0.2212  0.2268
 9121TIP3    H148778   3.211   4.530   2.960  0.8560 -2.8289 -0.8840
 9121TIP3    H248779   3.322   4.626   2.999 -0.8848  0.5342 -3.6704
 9122TIP3   OH248780   0.795   0.202  12.589 -0.2014 -0.0211  0.0359
 9122TIP3    H148781   0.884   0.200  12.554  0.1116 -1.2135  0.8286
 9122TIP3    H248782   0.794   0.278  12.647  0.5365 -0.3956  0.5679
 9123TIP3   OH248783   5.323   3.154  11.550 -0.1174  0.1568  0.2762
 9123TIP3    H148784   5.352   3.065  11.532 -2.6850 -0.8389  0.6695
 9123TIP3    H248785   5.349   3.204  11.472  0.6494 -1.0885 -0.3033
 9124TIP3   OH248786   0.184   4.833   4.375  0.1653  0.3069  0.1386
 9124TIP3    H148787   0.150   4.802   4.291  1.0349 -1.0633  0.2690
 9124TIP3    H248788   0.195   4.928   4.363 -2.6281  0.6701 -0.2557
 9125TIP3   OH248789   0.288   6.414  16.582 -0.4420 -0.0891 -0.0643
 9125TIP3    H148790   0.308   6.483  16.646  0.9234 -0.0861 -0.4535
 9125TIP3    H248791   0.364   6.356  16.587 -2.3686 -2.6484  1.6118
 9126TIP3   OH248792   3.986   0.069   2.463 -0.2741 -0.3595  0.1000
 9126TIP3    H148793   4.037   0.149   2.477  0.3737 -0.7800  0.2212
 9126TIP3    H248794   3.946   0.052   2.548  0.1884 -0.5666  0.2793
 9127TIP3   OH248795   4.893   5.719  12.274  0.0021  0.5083  0.0334
 9127TIP3    H148796   4.828   5.703  12.205  0.7718  0.0850 -0.6026
 9127TIP3    H248797   4.950   5.786  12.238  0.9557 -0.3652 -0.1306
 9128TIP3   OH248798   1.353   6.542  13.374 -0.1952 -0.6189  1.0358
 9128TIP3    H148799   1.410   6.581  13.308  0.2673 -3.2154 -0.2244
 9128TIP3    H248800   1.275   6.514  13.325 -1.3551  0.3559  2.2392
 9129TIP3   OH248801   5.593   1.237   3.316  0.0203 -0.4576 -0.9966
 9129TIP3    H148802   5.628   1.313   3.270  0.7599  0.0528  0.3336
 9129TIP3    H248803   5.526   1.273   3.374  1.5537 -0.5010  0.9059
 9130TIP3   OH248804   6.131   1.487   1.458 -0.1380  0.4381 -0.3455
 9130TIP3    H148805   6.098   1.416   1.513  0.5291 -0.4794 -1.0808
 9130TIP3    H248806   6.109   1.567   1.505  1.8255 -0.3399  2.0769
 9131TIP3   OH248807   5.899   0.783   4.612 -0.0381  0.3766 -0.1518
 9131TIP3    H148808   5.921   0.727   4.686  0.9821 -0.0254 -0.7296
 9131TIP3    H248809   5.979   0.834   4.597  0.2839 -0.5457 -1.8287
 9132TIP3   OH248810   3.537   5.510   4.939 -0.0976  0.2601  0.0927
 9132TIP3    H148811   3.533   5.430   4.886  0.6902  0.3334 -0.1025
 9132TIP3    H248812   3.497   5.486   5.022  0.2352 -0.3855  0.0782
 9133TIP3   OH248813   0.768   0.041   0.652  0.4191  0.4061  0.4533
 9133TIP3    H148814   0.847   0.072   0.607 -0.3731  0.4224 -0.9907
 9133TIP3    H248815   0.765   0.092   0.733  1.1663  1.3833 -0.1052
 9134TIP3   OH248816   1.076   0.143   2.369  0.0520  0.0727  0.4743
 9134TIP3    H148817   1.157   0.180   2.404 -0.1928 -0.7274  2.0122
 9134TIP3    H248818   1.092   0.048   2.366  0.5668  0.1426 -3.1152
 9135TIP3   OH248819   1.511   3.783  15.515 -0.4233  0.3602  0.3359
 9135TIP3    H148820   1.449   3.710  15.510  0.1861 -0.1081 -0.7397
 9135TIP3    H248821   1.458   3.858  15.542 -1.0611 -0.4680  1.5076
 9136TIP3   OH248822   0.846   1.311  16.648 -0.3952 -0.1816 -0.5819
 9136TIP3    H148823   0.807   1.398  16.656  0.0459  0.0922 -1.3314
 9136TIP3    H248824   0.809   1.275  16.567 -0.1381 -0.4636 -0.5759
 9137TIP3   OH248825   3.722   2.196  16.100  0.6575  0.3915 -0.0090
 9137TIP3    H148826   3.751   2.135  16.167  0.5988  1.6444  1.2036
 9137TIP3    H248827   3.659   2.253  16.145 -0.2346  0.5789 -1.4150
 9138TIP3   OH248828   6.657   1.506  13.842  0.0713  0.1166  0.2779
 9138TIP3    H148829   6.638   1.457  13.923 -0.5239 -0.9104 -0.4602
 9138TIP3    H248830   6.571   1.523  13.804  0.2934  1.4929  0.3517
 9139TIP3   OH248831   4.559   0.445   2.285  0.6648  0.2606 -0.7613
 9139TIP3    H148832   4.488   0.380   2.287 -0.5377  1.5413  0.5733
 9139TIP3    H248833   4.613   0.419   2.210 -0.2954 -1.7038 -0.8465
 9140TIP3   OH248834   2.200   6.075   4.222 -0.1052 -0.4386 -0.6371
 9140TIP3    H148835   2.275   6.101   4.275 -0.6223  0.7904 -0.4708
 9140TIP3    H248836   2.131   6.057   4.286  0.2669 -2.4344 -0.7407
 9141TIP3   OH248837   1.340   0.623  13.049 -0.0393 -0.2993  0.2404
 9141TIP3    H148838   1.394   0.673  12.988  0.0102  0.3716  0.8246
 9141TIP3    H248839   1.260   0.675  13.060 -0.0319 -0.3919  0.7750
 9142TIP3   OH248840   3.829   3.310  12.513 -0.0479 -0.1818  0.1339
 9142TIP3    H148841   3.889   3.332  12.584 -1.7323  0.4104  1.4535
 9142TIP3    H248842   3.874   3.243  12.462  1.3879 -0.3053  1.5211
 9143TIP3   OH248843   4.546   5.345  11.667 -0.1267  0.4236 -0.4743
 9143TIP3    H148844   4.593   5.270  11.705  1.0519  0.6774 -1.3608
 9143TIP3    H248845   4.501   5.385  11.741  1.4443  0.4376  0.5175
 9144TIP3   OH248846   0.999   1.396  11.710  0.0965  0.0227 -0.6336
 9144TIP3    H148847   1.035   1.435  11.630  0.4850  1.3683  0.1578
 9144TIP3    H248848   0.906   1.417  11.707  0.0723 -0.1197 -0.8481
 9145TIP3   OH248849   3.196   4.874   1.437 -0.3655 -0.6332  0.1716
 9145TIP3    H148850   3.290   4.888   1.447  0.1992 -2.5958 -1.6967
 9145TIP3    H248851   3.162   4.959   1.408  0.6775  0.2825  1.5301
 9146TIP3   OH248852   1.913   1.705   2.562 -0.1536 -0.0597  0.8069
 9146TIP3    H148853   1.957   1.669   2.485 -0.7358  0.1593  0.3617
 9146TIP3    H248854   1.833   1.744   2.527 -1.5375 -1.8739  1.7822
 9147TIP3   OH248855   1.339   3.036  11.820 -0.2763 -0.1771 -0.7760
 9147TIP3    H148856   1.317   3.109  11.762 -0.8482 -0.4055 -0.8574
 9147TIP3    H248857   1.308   3.064  11.906  1.6503  0.6725 -0.3030
 9148TIP3   OH248858   3.052   5.020  14.310 -0.2972  0.5312  0.2301
 9148TIP3    H148859   3.075   4.937  14.267 -0.9477  0.7452 -0.5652
 9148TIP3    H248860   2.957   5.016  14.322 -0.3892  1.3027 -0.1521
 9149TIP3   OH248861   5.294   0.681  13.865 -0.3995 -0.2089  0.9383
 9149TIP3    H148862   5.229   0.744  13.834 -1.2673 -1.1748  0.7477
 9149TIP3    H248863   5.288   0.686  13.961  0.6150  1.0729  0.9575
 9150TIP3   OH248864   4.035   5.304   2.528 -0.5991 -0.2427 -0.1051
 9150TIP3    H148865   4.080   5.220   2.539  0.5074  0.4110  0.4655
 9150TIP3    H248866   4.028   5.314   2.433  0.3927 -0.3991 -0.2046
 9151TIP3   OH248867   5.687   1.792  14.797  0.3298  0.4752  0.0606
 9151TIP3    H148868   5.771   1.835  14.815  0.3213  0.5473 -0.0713
 9151TIP3    H248869   5.712   1.709  14.757  0.4042 -0.3533  1.7241
 9152TIP3   OH248870   2.269   4.886  14.654 -0.3364 -0.3534 -0.3750
 9152TIP3    H148871   2.258   4.961  14.712  0.7545 -0.9479  0.6567
 9152TIP3    H248872   2.184   4.874  14.612 -1.0540  0.2905  0.8701
 9153TIP3   OH248873   1.395   0.206   0.917 -0.2396 -0.2750 -0.8728
 9153TIP3    H148874   1.341   0.197   0.995 -0.0418 -1.3955 -0.8494
 9153TIP3    H248875   1.414   0.300   0.911 -0.2819 -0.1735  0.4070
 9154TIP3   OH248876   1.711   3.115   4.231 -0.2077 -0.0034 -0.5134
 9154TIP3    H148877   1.697   3.023   4.253 -0.1995  0.1070 -0.0370
 9154TIP3    H248878   1.801   3.118   4.200  0.6028  0.2243  1.6826
 9155TIP3   OH248879   5.910   3.671  13.087  0.2272 -0.2109  0.3893
 9155TIP3    H148880   5.980   3.626  13.040 -0.3089  0.6968 -1.3502
 9155TIP3    H248881   5.947   3.756  13.109  0.3110 -0.4521  1.2032
 9156TIP3   OH248882   3.660   2.406  16.940 -0.0858 -0.1827 -0.2178
 9156TIP3    H148883   3.689   2.416  17.030  1.4040  0.9947 -0.7865
 9156TIP3    H248884   3.632   2.494  16.914  1.9753  0.1122 -1.6693
 9157TIP3   OH248885   0.620   5.503  14.350 -0.1499  0.0590  0.0121
 9157TIP3    H148886   0.528   5.486  14.327 -0.3414 -0.8676  1.3764
 9157TIP3    H248887   0.670   5.449  14.289 -0.4912  0.5262 -0.7049
 9158TIP3   OH248888   3.282   5.176  13.363  0.3504 -0.0560  0.0295
 9158TIP3    H148889   3.249   5.177  13.453 -0.5920 -0.9409 -0.2892
 9158TIP3    H248890   3.369   5.216  13.369 -0.1840  1.0196  1.1332
 9159TIP3   OH248891   1.181   3.577   1.705 -0.1773  0.5272 -0.0120
 9159TIP3    H148892   1.185   3.566   1.800 -1.0833  3.9999  0.5684
 9159TIP3    H248893   1.216   3.495   1.670 -0.0631 -0.9970  3.2727
 9160TIP3   OH248894   5.126   6.042   0.300  0.2709 -0.1719  0.4493
 9160TIP3    H148895   5.214   6.014   0.277  0.7157  0.7196  0.9867
 9160TIP3    H248896   5.118   6.022   0.393 -0.5882 -1.4449  0.1250
 9161TIP3   OH248897   2.041   2.948   2.612  0.0645  0.3780  0.8485
 9161TIP3    H148898   1.969   2.988   2.662 -1.0525 -1.1218  0.5042
 9161TIP3    H248899   2.010   2.948   2.522  0.9201  0.5780  0.5505
 9162TIP3   OH248900   2.567   0.603  11.338  0.4280 -0.1826  0.1572
 9162TIP3    H148901   2.552   0.513  11.308 -0.7305  0.0448  0.0428
 9162TIP3    H248902   2.656   0.623  11.307  0.4126 -1.0272 -0.4659
 9163TIP3   OH248903   2.568   2.326  12.594  0.5474  0.3901 -0.3077
 9163TIP3    H148904   2.607   2.300  12.677  0.0557  1.6907  0.3655
 9163TIP3    H248905   2.631   2.298  12.527  1.9305  1.1459  0.6443
 9164TIP3   OH248906   1.855   1.798   4.733  0.6240  0.0296  0.0945
 9164TIP3    H148907   1.805   1.813   4.813 -0.8523 -2.3521 -0.2977
 9164TIP3    H248908   1.808   1.846   4.665 -0.0151 -0.6053  0.0829
 9165TIP3   OH248909   0.219   4.237  12.811 -0.7077  0.0983  0.0530
 9165TIP3    H148910   0.152   4.260  12.875 -0.9751  0.2312 -0.2724
 9165TIP3    H248911   0.210   4.302  12.742  0.4231  0.7234  0.4683
 9166TIP3   OH248912   5.020   0.420  16.180  0.4378 -0.0762  0.0633
 9166TIP3    H148913   4.971   0.406  16.099 -0.9163 -2.7052  1.1920
 9166TIP3    H248914   5.099   0.368  16.170  0.0674 -0.7596  0.5294
 9167TIP3   OH248915   4.299   5.351  16.234  0.0872 -0.2196 -0.4400
 9167TIP3    H148916   4.381   5.380  16.274 -0.3672 -0.3011  0.5627
 9167TIP3    H248917   4.232   5.369  16.300 -0.4797 -1.7425 -0.5603
 9168TIP3   OH248918   3.486   3.063  13.647 -0.2470 -0.6889 -0.0372
 9168TIP3    H148919   3.402   3.025  13.623 -0.0700 -2.6621  2.1564
 9168TIP3    H248920   3.465   3.131  13.711 -0.1616 -3.2334  2.9239
 9169TIP3   OH248921   4.089   0.889   5.246 -0.2327 -0.8095 -0.2677
 9169TIP3    H148922   4.134   0.936   5.316  0.0382 -0.0025 -0.9674
 9169TIP3    H248923   4.156   0.833   5.207  0.1821  0.3455 -1.2691
 9170TIP3   OH248924   4.530   3.082  11.258 -0.3602 -0.0667  0.0359
 9170TIP3    H148925   4.445   3.106  11.293 -0.1004  3.0419 -1.1316
 9170TIP3    H248926   4.519   3.086  11.163  0.5186 -2.1138 -0.2106
 9171TIP3   OH248927   6.679   3.999  12.453  0.8518  0.4637  0.4716
 9171TIP3    H148928   6.655   3.911  12.483 -0.1898  0.5996  0.0678
 9171TIP3    H248929   6.770   3.991  12.426  0.8628 -0.4161  0.7354
 9172TIP3   OH248930   2.070   5.563  11.695  0.0812 -0.1585  0.3681
 9172TIP3    H148931   1.988   5.610  11.707  0.6122  0.7223  0.5824
 9172TIP3    H248932   2.138   5.631  11.695  0.9486 -0.9702  1.5614
 9173TIP3   OH248933   4.054   5.151   2.916 -0.3479 -0.5299  0.1683
 9173TIP3    H148934   4.011   5.197   2.844  2.5915  0.2279 -1.2640
 9173TIP3    H248935   4.073   5.064   2.881  0.4421 -0.4009  0.2449
 9174TIP3   OH248936   0.847   2.670  16.396 -0.1287 -0.3818  0.1187
 9174TIP3    H148937   0.920   2.711  16.350 -0.0417 -0.6909 -0.0250
 9174TIP3    H248938   0.770   2.694  16.344 -0.1508  0.0748  0.3608
 9175TIP3   OH248939   1.747   0.766  13.135 -0.0493  0.5353  0.1017
 9175TIP3    H148940   1.704   0.702  13.192 -0.0690  1.3335  1.0160
 9175TIP3    H248941   1.793   0.713  13.070 -0.1497 -0.4116  0.7748
 9176TIP3   OH248942   0.883   6.221  10.292  0.5941  0.3702 -0.3701
 9176TIP3    H148943   0.795   6.245  10.321  0.6227  0.1170 -0.0697
 9176TIP3    H248944   0.940   6.289  10.329  0.6536 -0.0547  0.3334
 9177TIP3   OH248945   0.212   2.316  14.464 -0.1850 -0.6309  0.3479
 9177TIP3    H148946   0.198   2.223  14.446  0.4943 -1.0381  1.7966
 9177TIP3    H248947   0.267   2.347  14.392  2.0980 -2.0877  1.3533
 9178TIP3   OH248948   0.117   3.680  14.851 -0.3750  0.7094  0.7268
 9178TIP3    H148949   0.151   3.735  14.779  0.0830 -1.3756 -0.7418
 9178TIP3    H248950   0.034   3.721  14.875 -0.0369  2.0747 -0.2644
 9179TIP3   OH248951   0.614   5.667   2.133 -0.1819  0.6503  0.7953
 9179TIP3    H148952   0.604   5.735   2.200 -0.1201  0.3488  1.1129
 9179TIP3    H248953   0.586   5.586   2.176 -2.0412  0.7532 -0.1321
 9180TIP3   OH248954   1.382   2.446   0.249 -0.4250  0.1514 -0.1455
 9180TIP3    H148955   1.455   2.397   0.285 -1.0282 -0.1746  0.6513
 9180TIP3    H248956   1.314   2.381   0.234 -0.8763  0.5927 -0.0271
 9181TIP3   OH248957   4.370   3.807   0.493  0.2353 -0.3230 -0.1610
 9181TIP3    H148958   4.437   3.756   0.449  0.2688  0.1641 -0.6852
 9181TIP3    H248959   4.410   3.893   0.509  0.6168 -0.8170  1.8334
 9182TIP3   OH248960   4.316   6.314   5.482 -0.0610  0.4922  0.4113
 9182TIP3    H148961   4.273   6.289   5.564  0.0669  0.1925  0.3851
 9182TIP3    H248962   4.296   6.408   5.473 -0.4809  0.4199  0.5397
 9183TIP3   OH248963   5.434   4.405   0.695 -0.6729 -0.0863 -0.2510
 9183TIP3    H148964   5.452   4.482   0.641 -1.6286  0.5167  0.2490
 9183TIP3    H248965   5.340   4.411   0.714 -0.4280 -0.4408  1.2129
 9184TIP3   OH248966   6.649   2.615   1.103 -0.1625  0.1618  0.1784
 9184TIP3    H148967   6.638   2.654   1.190  0.9622 -0.4202  0.6064
 9184TIP3    H248968   6.675   2.689   1.048 -0.2527  0.4221  0.4753
 9185TIP3   OH248969   2.766   4.049  13.584 -0.2154  0.2045 -0.2653
 9185TIP3    H148970   2.723   4.090  13.659  0.2619 -0.6296  0.4822
 9185TIP3    H248971   2.805   3.969  13.619  1.3458  0.5691 -1.0593
 9186TIP3   OH248972   5.337   5.054  16.870  0.9538  0.2066  0.2850
 9186TIP3    H148973   5.399   5.127  16.874  0.7119  0.5801 -1.6097
 9186TIP3    H248974   5.268   5.077  16.931  0.7600  1.7220 -0.4614
 9187TIP3   OH248975   0.644   2.763   0.471 -0.1575  0.0229 -0.3481
 9187TIP3    H148976   0.557   2.781   0.436 -0.6983 -0.4481  0.7171
 9187TIP3    H248977   0.703   2.778   0.397 -0.9559  1.9654 -0.6566
 9188TIP3   OH248978   4.776   2.409   3.490 -0.3469  0.0472  0.1568
 9188TIP3    H148979   4.862   2.380   3.459 -0.3090 -1.9380  1.8229
 9188TIP3    H248980   4.789   2.424   3.584 -2.0865 -1.8685  0.8035
 9189TIP3   OH248981   0.531   4.238   6.325 -0.3641 -0.1880 -0.1237
 9189TIP3    H148982   0.498   4.150   6.342 -0.8259  0.2809  1.5384
 9189TIP3    H248983   0.536   4.280   6.411  1.9887  0.6791 -0.5808
 9190TIP3   OH248984   5.626   3.699  13.580 -0.0862 -0.1116 -0.0576
 9190TIP3    H148985   5.533   3.702  13.559  0.2134 -0.7069 -1.6517
 9190TIP3    H248986   5.649   3.607  13.575  0.1585 -0.2600  2.6210
 9191TIP3   OH248987   6.026   4.180  10.552  0.6026 -0.6555 -0.2868
 9191TIP3    H148988   6.046   4.186  10.645  0.1718  0.4974 -0.2531
 9191TIP3    H248989   6.028   4.086  10.533 -2.8239 -1.2535  1.6723
 9192TIP3   OH248990   2.271   1.966   3.653  0.4141  0.3787  0.1950
 9192TIP3    H148991   2.268   1.871   3.659 -0.0578  0.4095  0.4949
 9192TIP3    H248992   2.236   1.986   3.566  2.3192  0.1977 -0.6818
 9193TIP3   OH248993   6.236   4.431  10.980  0.8761  0.2127  0.3352
 9193TIP3    H148994   6.318   4.476  11.001  1.1689 -1.0997  2.2437
 9193TIP3    H248995   6.251   4.341  11.007 -1.0455 -0.1605  0.2657
 9194TIP3   OH248996   1.497   2.777   2.343  0.2227 -0.1785  0.2026
 9194TIP3    H148997   1.567   2.842   2.338 -0.5535  0.6791  0.0681
 9194TIP3    H248998   1.539   2.694   2.321  1.0286  0.4361 -0.6842
 9195TIP3   OH248999   0.578   6.148   5.229 -0.0820 -0.0619 -0.3285
 9195TIP3    H149000   0.617   6.167   5.315  0.4108  1.0809 -0.7896
 9195TIP3    H249001   0.485   6.171   5.240  0.0583  0.4640 -0.2148
 9196TIP3   OH249002   5.319   2.836  14.356 -0.1365 -0.0498 -0.8027
 9196TIP3    H149003   5.310   2.861  14.448  2.0941 -1.8782  0.0187
 9196TIP3    H249004   5.229   2.822  14.326 -0.9254  0.7087  1.0541
 9197TIP3   OH249005   1.980   4.773   0.719 -0.4764 -0.1951  0.6103
 9197TIP3    H149006   1.952   4.742   0.805  0.1965  0.3094  1.0176
 9197TIP3    H249007   1.906   4.752   0.661  0.2059 -3.2791  0.6626
 9198TIP3   OH249008   4.819   1.095  11.107 -0.4438 -0.1182 -0.2946
 9198TIP3    H149009   4.786   1.006  11.119 -0.8617  0.0348 -0.2817
 9198TIP3    H249010   4.763   1.149  11.163 -0.1753  0.1481 -0.2809
 9199TIP3   OH249011   5.120   2.953   0.644  0.0178 -0.6434 -0.8242
 9199TIP3    H149012   5.057   3.010   0.688 -0.1454 -1.3979 -0.0630
 9199TIP3    H249013   5.153   2.896   0.713  3.5066  1.4007 -0.5911
 9200TIP3   OH249014   2.510   3.765  14.940  0.0751  0.9005 -0.1596
 9200TIP3    H149015   2.463   3.794  14.862  0.9301  0.9635 -0.6628
 9200TIP3    H249016   2.445   3.713  14.989 -1.1246  2.6387  0.1840
 9201TIP3   OH249017   1.336   1.048  10.278 -0.3016  0.1816 -0.2478
 9201TIP3    H149018   1.317   1.135  10.314  0.8452  0.4096 -0.1506
 9201TIP3    H249019   1.360   1.066  10.187 -0.3316 -0.0614 -0.3022
 9202TIP3   OH249020   1.417   4.315  14.826 -0.1197 -0.4789 -0.2599
 9202TIP3    H149021   1.488   4.345  14.884  0.2881 -0.4736 -0.7524
 9202TIP3    H249022   1.337   4.348  14.867  0.2238  0.1728 -0.1021
 9203TIP3   OH249023   3.466   2.120  12.348 -0.5358  0.2671  0.1115
 9203TIP3    H149024   3.557   2.121  12.378 -0.9495  0.8600  1.4109
 9203TIP3    H249025   3.423   2.190  12.397 -1.0363  2.1578 -2.7615
 9204TIP3   OH249026   0.378   6.440   0.333 -0.7154 -0.1210 -1.5848
 9204TIP3    H149027   0.300   6.464   0.283 -1.7085 -1.0584 -0.5378
 9204TIP3    H249028   0.372   6.345   0.342  0.1505 -0.1125 -0.8186
 9205TIP3   OH249029   4.814   4.406  12.711  0.6969 -0.1954  0.3870
 9205TIP3    H149030   4.755   4.408  12.636 -0.7535  0.3172  1.4886
 9205TIP3    H249031   4.766   4.356  12.777  0.3616  2.3110  2.1791
 9206TIP3   OH249032   0.163   4.992  16.308 -0.3788 -0.5120 -0.3594
 9206TIP3    H149033   0.163   4.940  16.228  0.2113 -0.6646 -0.2667
 9206TIP3    H249034   0.207   5.074  16.285 -1.6957  0.1432 -0.6216
 9207TIP3   OH249035   5.073   1.597  11.738  0.4320 -0.2560  0.0159
 9207TIP3    H149036   5.056   1.618  11.830  0.1155 -0.1693 -0.0610
 9207TIP3    H249037   5.167   1.582  11.734  0.3687 -0.7949  0.4629
 9208TIP3   OH249038   2.830   5.135  12.130  0.3698 -0.1241 -0.4234
 9208TIP3    H149039   2.828   5.147  12.225 -1.6111 -0.0108 -0.4539
 9208TIP3    H249040   2.816   5.042  12.117 -2.0819  0.2244 -0.6370
 9209TIP3   OH249041   6.409   1.009  16.455 -0.3246 -0.4134 -0.6416
 9209TIP3    H149042   6.433   1.003  16.363 -2.4754  0.6778 -1.3090
 9209TIP3    H249043   6.338   0.945  16.466 -0.8540  0.2692 -0.0180
 9210TIP3   OH249044   6.372   5.249  10.887  0.8420 -0.4140 -0.1339
 9210TIP3    H149045   6.332   5.192  10.822 -2.0770  1.0648  0.2347
 9210TIP3    H249046   6.354   5.338  10.856  0.6240  0.3128  1.9501
 9211TIP3   OH249047   4.193   0.020  12.071 -0.1847  0.2024 -0.5852
 9211TIP3    H149048   4.143  -0.013  11.996 -1.1171 -2.2830  0.9776
 9211TIP3    H249049   4.273  -0.032  12.071 -0.4404 -0.2277  0.4046
 9212TIP3   OH249050   6.651   4.111   4.719 -0.1117  0.5330 -0.2314
 9212TIP3    H149051   6.653   4.057   4.639  0.1262 -0.5076  0.4566
 9212TIP3    H249052   6.609   4.192   4.691 -0.9312 -0.1834 -1.1984
 9213TIP3   OH249053   6.633   3.123  16.945 -0.2091  0.4872  0.1279
 9213TIP3    H149054   6.640   3.195  16.882 -0.0761  1.5494  1.3209
 9213TIP3    H249055   6.720   3.083  16.945 -0.4285 -0.0284 -0.9192
 9214TIP3   OH249056   6.511   5.027  11.210  0.1956 -0.2034  0.4595
 9214TIP3    H149057   6.476   5.014  11.122 -0.9923 -0.5680  0.9602
 9214TIP3    H249058   6.514   4.939  11.248  1.0920 -0.1013  0.6571
 9215TIP3   OH249059   0.550   6.616  14.464  0.3566  0.6592 -0.0434
 9215TIP3    H149060   0.520   6.610  14.554  0.3045 -1.8538 -0.1454
 9215TIP3    H249061   0.627   6.559  14.460  0.3436  0.6941 -1.5644
 9216TIP3   OH249062   1.816   3.727  14.247 -0.0810 -0.3092 -0.1631
 9216TIP3    H149063   1.867   3.746  14.326 -1.8337 -0.1769  0.9707
 9216TIP3    H249064   1.749   3.665  14.276 -0.1275 -1.0851 -1.7993
 9217TIP3   OH249065   2.199   0.033   2.193 -0.6823  0.0955 -0.3245
 9217TIP3    H149066   2.186   0.125   2.170 -0.5394  0.3443  0.5719
 9217TIP3    H249067   2.277   0.033   2.248  0.0162 -0.7229 -1.2732
 9218TIP3   OH249068   6.701   1.799  11.216 -0.8666 -0.0685 -0.2868
 9218TIP3    H149069   6.621   1.760  11.251  0.1478 -1.5347  0.4762
 9218TIP3    H249070   6.738   1.848  11.289 -0.3478 -0.5620 -0.2136
 9219TIP3   OH249071   1.587   1.440   4.959 -0.9537  0.5415  0.0450
 9219TIP3    H149072   1.666   1.421   5.011 -0.7004  0.8662 -0.2166
 9219TIP3    H249073   1.600   1.392   4.878 -0.7075  1.1331 -0.2727
 9220TIP3   OH249074   6.132   3.705  11.361  0.0539  0.0477 -0.2023
 9220TIP3    H149075   6.170   3.675  11.278 -0.1138  1.1542 -0.6973
 9220TIP3    H249076   6.043   3.670  11.360 -0.0388  0.2815 -0.6290
 9221TIP3   OH249077   3.384   6.110  14.285  0.5226 -0.3538  0.5320
 9221TIP3    H149078   3.381   6.139  14.194 -1.7082 -0.4036  0.5264
 9221TIP3    H249079   3.363   6.017  14.282 -1.1804 -0.0373  1.1499
 9222TIP3   OH249080   6.174   4.521  14.140  0.3764 -0.3406 -0.0655
 9222TIP3    H149081   6.227   4.598  14.124  0.4456  0.5396  3.4799
 9222TIP3    H249082   6.091   4.555  14.174  0.1251 -1.7451  0.8679
 9223TIP3   OH249083   5.967   0.146  13.719 -0.3329 -0.2740 -0.4236
 9223TIP3    H149084   5.957   0.241  13.728  0.2497 -0.2868  0.5365
 9223TIP3    H249085   6.054   0.128  13.755 -1.5605 -1.5157  2.2326
 9224TIP3   OH249086   5.890   4.672   5.593  0.3193  0.2513 -0.2981
 9224TIP3    H149087   5.912   4.640   5.505 -1.2714 -2.6527  0.2431
 9224TIP3    H249088   5.824   4.740   5.577 -1.2916 -1.4675 -1.3694
 9225TIP3   OH249089   2.743   5.822  11.715  0.5267  0.0990  0.2128
 9225TIP3    H149090   2.823   5.821  11.663 -0.5752  2.1593 -1.6692
 9225TIP3    H249091   2.681   5.874  11.664 -1.7487 -0.6556  2.0201
 9226TIP3   OH249092   5.287   2.084   2.628 -0.1154  0.1017  0.4568
 9226TIP3    H149093   5.329   2.030   2.696  0.4819  0.8026  0.6518
 9226TIP3    H249094   5.268   2.167   2.671  1.6920  1.1472 -0.6121
 9227TIP3   OH249095   4.791   3.823   2.737 -0.0284 -0.6319  0.2637
 9227TIP3    H149096   4.803   3.915   2.714  0.6267 -1.0428 -1.1506
 9227TIP3    H249097   4.880   3.788   2.742 -0.2763 -1.2102  0.7249
 9228TIP3   OH249098   4.980   1.510   2.344 -0.3933 -0.1901  0.1533
 9228TIP3    H149099   4.983   1.458   2.263 -2.8459  1.7548 -1.3499
 9228TIP3    H249100   5.043   1.580   2.331 -0.1558 -0.3772  0.3037
 9229TIP3   OH249101   1.806   2.606  16.354 -0.7854 -0.1919 -0.3625
 9229TIP3    H149102   1.900   2.602  16.374 -0.6043 -0.1080 -1.1485
 9229TIP3    H249103   1.794   2.693  16.315 -1.3702  0.1657  0.5913
 9230TIP3   OH249104   0.485   4.778   4.130 -0.5192  0.0968  0.0279
 9230TIP3    H149105   0.476   4.850   4.192  0.7712 -0.1774  0.5656
 9230TIP3    H249106   0.517   4.705   4.183  1.2517  0.0393 -1.0480
 9231TIP3   OH249107   2.098   4.126   4.282  0.0326  0.6214 -0.0934
 9231TIP3    H149108   2.188   4.098   4.293 -0.3964  0.1351  2.7770
 9231TIP3    H249109   2.096   4.216   4.315 -0.8253  0.0535  1.4935
 9232TIP3   OH249110   3.658   3.355   4.385 -0.9511 -0.1527  0.4451
 9232TIP3    H149111   3.710   3.429   4.418  0.5539  0.2554 -2.4929
 9232TIP3    H249112   3.587   3.396   4.336 -1.8448 -0.7314  1.2055
 9233TIP3   OH249113   0.702   2.936  14.089  0.2127 -0.2732  0.2817
 9233TIP3    H149114   0.734   3.002  14.151  1.9440 -0.9150  0.1356
 9233TIP3    H249115   0.607   2.944  14.093  0.3591  1.9629  0.5293
 9234TIP3   OH249116   0.994   5.049   0.204 -0.0079 -0.1232  0.1303
 9234TIP3    H149117   1.068   5.066   0.262 -0.2561 -1.0289  0.7503
 9234TIP3    H249118   0.917   5.064   0.260 -0.2933  0.6275 -0.4507
 9235TIP3   OH249119   1.849   1.273   1.227 -0.0004 -0.3193 -0.0370
 9235TIP3    H149120   1.776   1.336   1.225 -0.2647 -0.5893  0.8812
 9235TIP3    H249121   1.829   1.215   1.300 -0.1443 -1.9443 -1.2933
 9236TIP3   OH249122   1.604   4.622   5.208 -0.0050 -0.0244  0.3586
 9236TIP3    H149123   1.621   4.531   5.185  0.8814  0.2013  0.1036
 9236TIP3    H249124   1.579   4.619   5.301 -1.5118 -0.6908 -0.0342
 9237TIP3   OH249125   0.648   4.096  14.683 -0.1469 -0.1247 -0.3492
 9237TIP3    H149126   0.585   4.065  14.747 -1.9047  2.1351 -0.8662
 9237TIP3    H249127   0.595   4.136  14.614  1.8063  0.7091 -1.4561
 9238TIP3   OH249128   2.898   6.511  12.335  0.5708 -0.2965 -0.1029
 9238TIP3    H149129   2.862   6.582  12.387  0.1333  0.2210 -1.0788
 9238TIP3    H249130   2.992   6.529  12.330  0.6393 -0.4317  0.6103
 9239TIP3   OH249131   6.636   5.385   1.818 -0.0109  0.1565 -0.6065
 9239TIP3    H149132   6.620   5.380   1.724 -1.1577  0.2828 -0.4214
 9239TIP3    H249133   6.550   5.395   1.857  0.4293 -0.1897  0.4860
 9240TIP3   OH249134   0.032   4.562  15.260  0.0483  0.0928  0.0549
 9240TIP3    H149135  -0.024   4.602  15.192  0.0961  1.3275  0.7098
 9240TIP3    H249136   0.022   4.468  15.247 -1.8410  0.2812 -0.1461
 9241TIP3   OH249137   1.399   5.095  15.053 -0.1645  0.0973 -0.2080
 9241TIP3    H149138   1.343   5.172  15.045 -1.5321 -1.0154 -2.1692
 9241TIP3    H249139   1.339   5.021  15.044  1.3995 -1.1671 -0.6213
 9242TIP3   OH249140   4.507   2.991   0.194 -0.3431 -0.2455  0.3256
 9242TIP3    H149141   4.426   2.943   0.212 -0.6921  0.2602  0.1258
 9242TIP3    H249142   4.482   3.056   0.129  0.2118 -0.0446  0.3119
 9243TIP3   OH249143   6.369   3.140   0.754 -0.2579  0.3540 -0.3630
 9243TIP3    H149144   6.286   3.179   0.781 -0.4084 -0.2452  0.0847
 9243TIP3    H249145   6.381   3.168   0.663  0.0552  2.1023  0.1769
 9244TIP3   OH249146   1.989   5.777   3.089  0.0361  0.0872  0.0720
 9244TIP3    H149147   2.047   5.723   3.034  0.2744 -0.3534  0.7412
 9244TIP3    H249148   1.902   5.739   3.076  0.1853 -0.3952  0.4519
 9245TIP3   OH249149   3.188   4.577   6.341 -0.3686  0.3302 -0.0639
 9245TIP3    H149150   3.268   4.525   6.333 -0.4064  0.1362  0.7404
 9245TIP3    H249151   3.212   4.650   6.398 -0.7681  0.2656  0.1910
 9246TIP3   OH249152   0.306   2.187  12.850 -0.1306 -0.0360  0.6366
 9246TIP3    H149153   0.266   2.100  12.849  0.4624 -0.3141  0.3417
 9246TIP3    H249154   0.357   2.189  12.931  0.1418 -0.1006  0.4685
 9247TIP3   OH249155   6.223   2.983   5.546 -0.2040  0.0638 -0.4770
 9247TIP3    H149156   6.160   3.015   5.482  0.9879 -0.1771 -1.8302
 9247TIP3    H249157   6.308   3.009   5.511  0.4969  0.0083  1.0756
 9248TIP3   OH249158   2.621   1.039   2.589  0.7279  0.2316 -0.6986
 9248TIP3    H149159   2.658   1.035   2.501  1.3160 -0.3287 -0.4303
 9248TIP3    H249160   2.697   1.043   2.647  0.3838  2.9785 -0.2794
 9249TIP3   OH249161   2.069   5.250  13.744 -0.2665  0.2238 -0.0993
 9249TIP3    H149162   2.040   5.188  13.811 -0.0816 -0.6156 -0.7880
 9249TIP3    H249163   2.108   5.322  13.794  1.0910 -0.9985  0.6769
 9250TIP3   OH249164   1.708   2.338   2.475 -0.3691  0.1145  0.2365
 9250TIP3    H149165   1.721   2.385   2.392 -1.1424 -1.0619 -0.5800
 9250TIP3    H249166   1.763   2.260   2.466 -0.1471  0.1808  1.0100
 9251TIP3   OH249167   4.937   0.916   0.572  0.0069 -0.5142 -0.0533
 9251TIP3    H149168   5.016   0.924   0.625 -1.0060  0.2418  1.4055
 9251TIP3    H249169   4.914   1.006   0.550 -0.2428 -0.7521 -0.7854
 9252TIP3   OH249170   3.362   2.584   1.721 -0.0751 -0.1221 -0.1919
 9252TIP3    H149171   3.274   2.549   1.734 -0.1127  0.3279  0.8970
 9252TIP3    H249172   3.382   2.630   1.803  0.9867  0.1844 -0.6016
 9253TIP3   OH249173   4.805   1.047  14.269  0.1773 -0.0812 -0.3926
 9253TIP3    H149174   4.749   1.029  14.194  0.1797 -0.0970 -0.3908
 9253TIP3    H249175   4.836   1.136  14.255 -1.0842  0.5009  0.3955
 9254TIP3   OH249176   6.628   6.672   0.599 -0.0561  0.4272  0.1286
 9254TIP3    H149177   6.580   6.710   0.672  1.2420  0.5564  0.9545
 9254TIP3    H249178   6.579   6.594   0.576 -0.8652  0.7572  0.6881
 9255TIP3   OH249179   2.490   4.614  12.534  0.2441  0.0372 -0.5163
 9255TIP3    H149180   2.481   4.589  12.626 -0.1761  3.7190  0.5903
 9255TIP3    H249181   2.405   4.651  12.510  1.3761  2.4367 -1.1638
 9256TIP3   OH249182   3.239   0.512   0.700  0.3565  0.0315 -0.5582
 9256TIP3    H149183   3.206   0.547   0.782 -0.3141 -0.6105 -0.5391
 9256TIP3    H249184   3.325   0.475   0.722 -0.4342 -1.4531  0.2114
 9257TIP3   OH249185   1.332   4.611   4.173  0.2576  0.1409  0.0688
 9257TIP3    H149186   1.401   4.546   4.185  0.3159  0.1255 -0.3677
 9257TIP3    H249187   1.259   4.578   4.227 -0.2477 -1.0667 -1.2862
 9258TIP3   OH249188   0.679   5.394  15.431 -0.5903 -0.0890  0.0079
 9258TIP3    H149189   0.643   5.338  15.363 -1.6767 -0.8754  1.1776
 9258TIP3    H249190   0.757   5.432  15.392  0.7326 -3.1102 -0.6002
 9259TIP3   OH249191   2.913   4.127  15.617  0.1346 -0.0946  0.0189
 9259TIP3    H149192   2.901   4.032  15.611 -1.0734 -0.0619  1.3799
 9259TIP3    H249193   2.990   4.145  15.562  0.4561 -1.8620 -0.1749
 9260TIP3   OH249194   4.077   3.958  11.700 -0.2852  0.0187 -0.3111
 9260TIP3    H149195   4.090   3.869  11.734 -0.8201  0.3156  0.7269
 9260TIP3    H249196   4.045   3.945  11.611  1.1100 -0.7924 -0.7236
 9261TIP3   OH249197   3.071   3.228   6.337  0.4826  0.0103 -0.1300
 9261TIP3    H149198   3.028   3.257   6.418 -0.0639 -0.4107 -0.2599
 9261TIP3    H249199   3.143   3.173   6.366  0.8839  0.6413  0.0911
 9262TIP3   OH249200   2.700   2.097   4.722 -0.3422 -0.3051  0.4066
 9262TIP3    H149201   2.632   2.039   4.687 -0.1876 -0.9568  1.1690
 9262TIP3    H249202   2.652   2.177   4.747 -1.0443 -1.1687  1.9695
 9263TIP3   OH249203   3.296   4.417   4.402  0.5484  0.0687  0.3483
 9263TIP3    H149204   3.314   4.395   4.494  0.5122 -1.2037  0.0743
 9263TIP3    H249205   3.224   4.359   4.378 -0.6969  1.7010  0.0379
 9264TIP3   OH249206   5.266   6.785   2.892 -0.1844  0.4661  0.6543
 9264TIP3    H149207   5.320   6.797   2.971 -1.1803 -0.0305  1.4320
 9264TIP3    H249208   5.267   6.691   2.876  1.8234  0.7436 -1.2717
 9265TIP3   OH249209   1.096   2.327   0.314  0.1935  0.4859  0.0967
 9265TIP3    H149210   1.084   2.319   0.219  0.5258 -1.5777  0.1752
 9265TIP3    H249211   1.032   2.266   0.351  0.6182  0.6715  1.1726
 9266TIP3   OH249212   6.012   3.734  12.783  0.2370 -0.3034  0.0383
 9266TIP3    H149213   6.037   3.799  12.849  1.6240  1.0559 -1.7259
 9266TIP3    H249214   6.092   3.684  12.766 -0.5836 -1.9066  0.7033
 9267TIP3   OH249215   1.910   5.083   0.832 -0.1533  0.2553 -0.1873
 9267TIP3    H149216   1.826   5.078   0.787  0.7953 -0.2291 -1.9818
 9267TIP3    H249217   1.926   4.993   0.862  0.2109  0.1226 -0.7762
 9268TIP3   OH249218   6.417   0.729   4.589  0.4458 -0.0975  0.1606
 9268TIP3    H149219   6.498   0.778   4.578  0.5175 -0.6889 -2.4423
 9268TIP3    H249220   6.445   0.644   4.624  0.5178  0.8419  2.6284
 9269TIP3   OH249221   6.394   3.059   2.775  0.2802  0.0803 -0.1312
 9269TIP3    H149222   6.375   3.120   2.704  0.4129  1.5931  1.1008
 9269TIP3    H249223   6.489   3.049   2.775  0.9608  4.0373  2.8349
 9270TIP3   OH249224   3.028   6.416   4.086 -0.3892  0.0823 -0.2167
 9270TIP3    H149225   3.014   6.498   4.135 -0.3511 -0.6353  1.0441
 9270TIP3    H249226   3.010   6.347   4.150 -1.3745 -0.9223 -1.5172
 9271TIP3   OH249227   1.170   0.041   2.825  0.0844 -0.0699  0.7514
 9271TIP3    H149228   1.162   0.136   2.829 -0.4484 -0.1427  1.8918
 9271TIP3    H249229   1.243   0.020   2.882 -0.1603 -0.3841  0.9545
 9272TIP3   OH249230   4.375   2.125  12.432  0.2632  0.3485 -0.0809
 9272TIP3    H149231   4.361   2.038  12.394 -0.2414  0.6155 -0.5186
 9272TIP3    H249232   4.294   2.143  12.479 -0.4553  1.4162 -1.6557
 9273TIP3   OH249233   2.418   0.976  14.208 -0.2261 -0.4972 -0.1474
 9273TIP3    H149234   2.387   0.926  14.284 -1.6544 -2.0981 -1.6885
 9273TIP3    H249235   2.512   0.959  14.205 -0.3857 -1.5544  0.4668
 9274TIP3   OH249236   2.240   1.940  16.942  0.2324 -0.0758 -0.0230
 9274TIP3    H149237   2.291   1.916  17.019 -0.6874  0.4734  0.7734
 9274TIP3    H249238   2.160   1.888  16.948 -0.6918  1.3577  0.4312
 9275TIP3   OH249239   6.283   4.357  10.550  0.5099 -0.0219 -0.4646
 9275TIP3    H149240   6.189   4.354  10.564  0.4545 -1.2169 -0.9835
 9275TIP3    H249241   6.295   4.324  10.461  1.4428 -0.1283 -0.3098
 9276TIP3   OH249242   0.997   6.133  16.804 -0.0456  0.1092  0.3155
 9276TIP3    H149243   0.979   6.206  16.744  0.0992  1.0162  1.3483
 9276TIP3    H249244   0.918   6.126  16.857 -0.0806 -0.5373  0.1914
 9277TIP3   OH249245   2.512   1.370   3.720 -0.6169 -0.9699  0.4592
 9277TIP3    H149246   2.467   1.291   3.690 -0.7342 -0.4941 -0.6900
 9277TIP3    H249247   2.589   1.338   3.767 -0.2167 -1.7700 -0.7042
 9278TIP3   OH249248   6.534   6.106   2.249 -0.5625  0.5349 -0.2466
 9278TIP3    H149249   6.621   6.069   2.267 -0.7174  0.0465 -0.5008
 9278TIP3    H249250   6.475   6.057   2.306 -0.7527  0.4588 -0.5086
 9279TIP3   OH249251   1.875   1.684  12.604 -0.7211  0.0529  0.2181
 9279TIP3    H149252   1.884   1.772  12.641 -0.9446  0.9967 -1.8721
 9279TIP3    H249253   1.796   1.688  12.551 -1.0504 -1.6005  0.5286
 9280TIP3   OH249254   4.222   3.852   5.403 -0.2463  0.4680  0.2400
 9280TIP3    H149255   4.168   3.872   5.326  1.1928  0.4637 -0.8139
 9280TIP3    H249256   4.233   3.936   5.447  0.3834  0.8251 -0.5673
 9281TIP3   OH249257   6.264   4.624   3.427 -0.2999 -0.4219  0.6040
 9281TIP3    H149258   6.332   4.581   3.376  2.0329  1.1898  2.1414
 9281TIP3    H249259   6.289   4.717   3.425 -3.0738  0.4036  0.3983
 9282TIP3   OH249260   1.525   3.993  12.729 -0.0797 -0.0084  0.2312
 9282TIP3    H149261   1.435   4.004  12.761 -0.2804  1.3458 -0.6902
 9282TIP3    H249262   1.515   3.949  12.645  0.0390  0.8198 -0.2296
 9283TIP3   OH249263   2.213   2.614  14.825  0.3027  0.1608  0.4812
 9283TIP3    H149264   2.302   2.583  14.806  0.8836  1.8467  0.2888
 9283TIP3    H249265   2.225   2.702  14.859 -1.2609  0.0800  1.3095
 9284TIP3   OH249266   1.426   6.758   4.063  0.2727 -0.6310  0.2046
 9284TIP3    H149267   1.345   6.709   4.048 -1.1036  1.5257  0.2301
 9284TIP3    H249268   1.448   6.796   3.978  0.4466 -0.0281  0.5098
 9285TIP3   OH249269   1.202   5.238   3.299 -0.1701 -0.2389 -0.4066
 9285TIP3    H149270   1.139   5.191   3.354  0.8233 -0.1568  0.8350
 9285TIP3    H249271   1.217   5.179   3.225 -1.5367 -0.3423 -0.6389
 9286TIP3   OH249272   2.061   0.131   3.814  0.4818 -0.4476 -0.2923
 9286TIP3    H149273   2.103   0.085   3.887  0.5386 -0.3054 -0.2351
 9286TIP3    H249274   1.979   0.083   3.799  0.8295 -0.9432 -0.6382
 9287TIP3   OH249275   0.303   3.793   2.587 -0.0312 -0.6760 -0.1143
 9287TIP3    H149276   0.330   3.718   2.641 -0.9442 -1.3942 -0.6383
 9287TIP3    H249277   0.296   3.758   2.499 -1.0343 -0.1081 -0.2698
 9288TIP3   OH249278   3.121   4.211   5.333  0.3559 -0.1707  0.0730
 9288TIP3    H149279   3.108   4.150   5.260  0.3194 -1.8958  1.4484
 9288TIP3    H249280   3.214   4.230   5.333  0.0798  1.5818 -1.6715
 9289TIP3   OH249281   3.044   6.646  16.696 -0.1953  0.1699  0.1434
 9289TIP3    H149282   3.110   6.616  16.759  0.4366 -1.4994 -1.2537
 9289TIP3    H249283   3.055   6.589  16.620 -0.9875  2.0743 -1.4797
 9290TIP3   OH249284   2.741   6.363  15.742  0.0377  0.2955  0.4668
 9290TIP3    H149285   2.784   6.441  15.708 -1.7892  0.7106 -1.0482
 9290TIP3    H249286   2.653   6.365  15.704 -0.5491 -1.7439  1.5444
 9291TIP3   OH249287   4.721   0.535   5.085  0.3079 -0.0561  0.0704
 9291TIP3    H149288   4.662   0.460   5.096  0.7435 -0.8070 -2.2166
 9291TIP3    H249289   4.665   0.611   5.101 -0.4106 -0.8005  1.3433
 9292TIP3   OH249290   2.425   2.322  11.391  0.2454 -0.5423  0.1239
 9292TIP3    H149291   2.369   2.256  11.431  0.7503 -1.4949 -0.7091
 9292TIP3    H249292   2.401   2.322  11.298  1.8946 -1.2946 -0.3490
 9293TIP3   OH249293   2.267   3.189   1.396  0.1344  0.1160 -0.0815
 9293TIP3    H149294   2.323   3.113   1.385  0.8651  0.3373  1.7656
 9293TIP3    H249295   2.260   3.228   1.308  0.1452 -1.7609 -0.9551
 9294TIP3   OH249296   0.520   1.450  14.229  0.1876  0.0092 -0.1200
 9294TIP3    H149297   0.609   1.478  14.208  0.0144  0.6924  0.0289
 9294TIP3    H249298   0.524   1.426  14.322  0.9144 -2.8566 -0.7776
 9295TIP3   OH249299   4.000   3.998   2.576  0.3198 -0.1634 -0.1473
 9295TIP3    H149300   4.081   3.999   2.626 -0.8214 -0.9752  1.8233
 9295TIP3    H249301   3.988   3.907   2.549 -0.2440 -0.1722  0.1155
 9296TIP3   OH249302   3.848   4.492   2.785  0.0554  0.1717 -0.5456
 9296TIP3    H149303   3.800   4.560   2.833 -2.5875 -0.5184 -2.0154
 9296TIP3    H249304   3.887   4.438   2.854  1.5227  2.5769  0.6810
 9297TIP3   OH249305   5.779   1.446  12.240 -0.2760 -0.1837  0.2045
 9297TIP3    H149306   5.834   1.377  12.278  0.7102  0.7022  0.4190
 9297TIP3    H249307   5.779   1.516  12.305 -1.3707 -0.0064  0.0380
 9298TIP3   OH249308   2.103   3.023   1.778 -0.2284 -0.5939  0.2947
 9298TIP3    H149309   2.009   3.038   1.768  0.0816  0.7602 -1.0791
 9298TIP3    H249310   2.134   3.099   1.828  0.5264  0.5670 -1.8066
 9299TIP3   OH249311   3.061   0.988  14.515  0.0338  0.0102 -0.0385
 9299TIP3    H149312   3.043   0.896  14.534 -0.7598  0.1414 -0.0905
 9299TIP3    H249313   3.148   0.988  14.476  0.0925 -0.7052  0.0694
 9300TIP3   OH249314   6.401   2.720   5.931  0.2701  0.5026 -0.0289
 9300TIP3    H149315   6.376   2.718   5.839  0.0960  0.8416  0.0103
 9300TIP3    H249316   6.319   2.703   5.979  0.1167  1.4923  0.0949
 9301TIP3   OH249317   0.862   2.776  14.825 -0.3198  0.8263 -0.3680
 9301TIP3    H149318   0.803   2.832  14.775 -1.8657 -0.8926 -0.5822
 9301TIP3    H249319   0.809   2.741  14.896  0.9037  0.4966  0.4296
 9302TIP3   OH249320   3.081   3.892  16.181  0.6264 -0.5449  0.0697
 9302TIP3    H149321   3.048   3.920  16.095  1.3028  0.7737  0.2196
 9302TIP3    H249322   3.155   3.950  16.199  0.3735 -0.6633  1.6408
 9303TIP3   OH249323   5.897   5.510   3.282 -0.1398  0.0576 -0.6736
 9303TIP3    H149324   5.827   5.477   3.226  0.1293  0.0617 -1.0161
 9303TIP3    H249325   5.879   5.471   3.368 -0.3969 -0.1741 -0.8297
 9304TIP3   OH249326   4.171   0.916   5.973 -0.0112  0.6832  0.3090
 9304TIP3    H149327   4.209   0.834   6.006  1.1580  0.9719 -0.2630
 9304TIP3    H249328   4.147   0.964   6.053 -0.7452 -0.2068  0.6505
 9305TIP3   OH249329   2.281   6.264  15.696  0.5705  0.1760  0.6440
 9305TIP3    H149330   2.336   6.338  15.672 -0.8737  1.4987  1.2300
 9305TIP3    H249331   2.320   6.230  15.777  1.9221 -0.4953 -0.2428
 9306TIP3   OH249332   0.496   6.663  10.864 -0.6293 -0.2736 -0.2975
 9306TIP3    H149333   0.559   6.733  10.877 -1.2692  0.2458  0.0809
 9306TIP3    H249334   0.411   6.707  10.854 -1.2456 -1.0131  1.2459
 9307TIP3   OH249335   2.868   3.228   0.360 -0.2287 -0.1424 -0.3030
 9307TIP3    H149336   2.780   3.219   0.398 -0.5259 -0.7404 -1.0926
 9307TIP3    H249337   2.917   3.279   0.424 -0.4796 -1.7482  1.2448
 9308TIP3   OH249338   2.717   4.584  13.207  0.3790  0.0261 -0.9099
 9308TIP3    H149339   2.769   4.504  13.196 -1.0698 -0.9398 -1.0947
 9308TIP3    H249340   2.707   4.619  13.119 -1.1945 -1.1043 -1.2398
 9309TIP3   OH249341   6.326   5.088  16.592  0.0177  0.2900  0.4240
 9309TIP3    H149342   6.410   5.065  16.632  0.2230  1.9915  1.0830
 9309TIP3    H249343   6.270   5.110  16.667 -0.5419  0.6303 -0.0862
 9310TIP3   OH249344   2.988   5.490  14.168 -0.0018 -0.3134 -0.0815
 9310TIP3    H149345   2.963   5.461  14.080  0.4491 -1.4335  0.1411
 9310TIP3    H249346   3.076   5.527  14.156 -0.4837  0.7797 -0.3261
 9311TIP3   OH249347   4.731   4.327   4.391  0.0539  0.2060 -0.3516
 9311TIP3    H149348   4.673   4.314   4.465  0.9207 -1.4648  0.0884
 9311TIP3    H249349   4.685   4.389   4.335 -1.9058 -0.6308  0.2338
 9312TIP3   OH249350   4.706   2.714  14.000 -0.6387  0.5056 -0.0625
 9312TIP3    H149351   4.754   2.631  14.004 -2.4575 -0.5666  2.6494
 9312TIP3    H249352   4.765   2.779  14.038 -0.3893 -0.2764  0.9255
 9313TIP3   OH249353   3.267   4.950  12.150  0.0875 -0.0676 -0.1892
 9313TIP3    H149354   3.285   5.009  12.076 -0.1610 -0.3093 -0.4426
 9313TIP3    H249355   3.287   4.863  12.116  2.6625  0.0332  0.8604
 9314TIP3   OH249356   4.561   0.757  16.042  0.1923 -0.9351  0.3866
 9314TIP3    H149357   4.648   0.778  16.076  0.9168  0.1739 -1.9195
 9314TIP3    H249358   4.571   0.673  15.998 -0.3663 -1.6340  1.5393
 9315TIP3   OH249359   2.136   5.037   4.991  0.9904 -0.2230 -0.9707
 9315TIP3    H149360   2.164   5.052   4.900 -1.8618  2.2898 -1.5772
 9315TIP3    H249361   2.206   5.076   5.043  0.7825  2.0707 -2.2686
 9316TIP3   OH249362   0.746   6.611  14.832 -0.5599  0.3565  0.2003
 9316TIP3    H149363   0.657   6.614  14.798  0.2166 -0.8504 -2.1767
 9316TIP3    H249364   0.768   6.518  14.833 -0.4324  0.2494  4.1674
 9317TIP3   OH249365   3.348   1.625  15.929 -0.0949 -0.2936  0.0890
 9317TIP3    H149366   3.309   1.713  15.924 -0.6443 -0.5462 -0.1448
 9317TIP3    H249367   3.307   1.586  16.007 -0.6184 -0.7024 -0.3816
 9318TIP3   OH249368   2.582   1.759  11.624  0.0791 -0.0148 -0.4533
 9318TIP3    H149369   2.659   1.814  11.638 -0.3756  0.3628  0.6183
 9318TIP3    H249370   2.549   1.786  11.538  0.1516  1.0436 -0.1613
 9319TIP3   OH249371   3.710   3.562   5.306 -0.1810 -0.3961  0.0226
 9319TIP3    H149372   3.623   3.564   5.266 -0.2953  1.0326  0.2818
 9319TIP3    H249373   3.695   3.584   5.398  0.6113  2.1934 -0.3629
 9320TIP3   OH249374   2.854   6.672  15.121 -0.0208 -0.5320  0.4807
 9320TIP3    H149375   2.872   6.665  15.027  0.9724 -1.2906  0.7122
 9320TIP3    H249376   2.937   6.702  15.158 -0.2658 -0.7010  1.1758
 9321TIP3   OH249377   0.759   5.090  11.272  0.2072  0.4505  0.0965
 9321TIP3    H149378   0.820   5.031  11.228 -1.4786 -2.6356  1.5004
 9321TIP3    H249379   0.807   5.121  11.349  1.3648  1.5867 -1.0401
 9322TIP3   OH249380   2.460   5.142   3.967 -0.8298  0.1562  0.4927
 9322TIP3    H149381   2.446   5.201   4.040 -1.1597  1.6238 -0.7177
 9322TIP3    H249382   2.394   5.166   3.903 -0.6381 -1.1844 -0.2552
 9323TIP3   OH249383   2.221   6.718   5.951  0.6144  0.6981 -0.4966
 9323TIP3    H149384   2.128   6.730   5.971  0.4753  1.1556 -1.3906
 9323TIP3    H249385   2.266   6.757   6.026  0.1415 -2.4702  1.6664
 9324TIP3   OH249386   4.136   2.716  16.557 -0.1044  0.9828 -0.1547
 9324TIP3    H149387   4.213   2.772  16.558  1.8989 -1.5651 -0.6004
 9324TIP3    H249388   4.120   2.695  16.649 -0.0678  1.2734 -0.0814
 9325TIP3   OH249389   2.164   5.668   3.362 -0.2510 -0.1479 -0.2281
 9325TIP3    H149390   2.190   5.760   3.363  0.1552 -0.2336  1.7954
 9325TIP3    H249391   2.150   5.646   3.454  0.5912 -2.3576 -0.5599
 9326TIP3   OH249392   1.793   2.182   2.975 -0.4279  0.0692  0.0004
 9326TIP3    H149393   1.771   2.162   3.066  0.9680  0.8848  0.5474
 9326TIP3    H249394   1.759   2.107   2.925 -0.8461 -0.5900  1.2299
 9327TIP3   OH249395   4.965   0.444   4.451 -0.0096 -0.1466  0.7082
 9327TIP3    H149396   4.931   0.530   4.426 -1.8074 -0.5772  1.5349
 9327TIP3    H249397   5.059   0.458   4.459 -0.0095  1.2907 -0.9421
 9328TIP3   OH249398   0.836   2.674   3.665  0.2628 -0.8109  0.6723
 9328TIP3    H149399   0.854   2.762   3.631  0.4299 -0.9669  0.3585
 9328TIP3    H249400   0.741   2.669   3.671  0.2253 -0.8564  0.0409
 9329TIP3   OH249401   3.971   5.845  15.834  0.2700 -0.1153 -0.5842
 9329TIP3    H149402   4.039   5.903  15.801  0.0569  0.0977 -0.6565
 9329TIP3    H249403   3.910   5.835  15.760 -0.2865  0.4832 -0.2244
 9330TIP3   OH249404   2.323   6.086  15.923  0.0702 -0.2077  0.1698
 9330TIP3    H149405   2.335   6.032  15.845 -1.3245  0.0730 -0.2750
 9330TIP3    H249406   2.340   6.027  15.997 -0.6769 -1.0649 -0.3200
 9331TIP3   OH249407   2.959   0.397   1.462 -0.3752  0.3701  0.4224
 9331TIP3    H149408   2.984   0.489   1.451  1.7197 -0.2336 -0.4220
 9331TIP3    H249409   3.010   0.366   1.537  0.0055 -0.4191 -0.1386
 9332TIP3   OH249410   1.168   3.107   1.694 -0.6755 -0.0168  0.1142
 9332TIP3    H149411   1.162   3.195   1.656 -2.5549  1.0465  2.6231
 9332TIP3    H249412   1.143   3.119   1.785 -2.1065 -3.3333  0.2868
 9333TIP3   OH249413   4.354   4.594  11.305 -0.4237 -0.4534  0.2973
 9333TIP3    H149414   4.298   4.554  11.239  0.3249 -1.0563  0.0183
 9333TIP3    H249415   4.307   4.582  11.388 -0.0966 -2.1374  0.2594
 9334TIP3   OH249416   6.532   1.602   3.816  0.1985  0.5733 -0.0702
 9334TIP3    H149417   6.599   1.567   3.757 -0.4043  0.9975 -1.0369
 9334TIP3    H249418   6.572   1.600   3.903  1.2514  0.2933 -0.5541
 9335TIP3   OH249419   3.697   6.067  14.743  0.5293  0.3946  1.2018
 9335TIP3    H149420   3.789   6.092  14.751  1.2623 -1.7698  0.2482
 9335TIP3    H249421   3.682   6.059  14.649 -0.5553  0.4049  1.3613
 9336TIP3   OH249422   4.469   1.210  16.848 -0.0879 -0.1635 -0.3616
 9336TIP3    H149423   4.476   1.173  16.936 -0.8443 -1.8198 -0.9577
 9336TIP3    H249424   4.518   1.293  16.853  0.5081 -0.5714  1.3999
 9337TIP3   OH249425   5.857   2.286  11.734 -0.2552  0.2165  0.0570
 9337TIP3    H149426   5.832   2.216  11.673  2.9263 -1.5381  0.5983
 9337TIP3    H249427   5.894   2.354  11.678  1.6706 -0.9411 -0.1683
 9338TIP3   OH249428   4.864   3.735  15.408 -0.1102 -0.0907 -0.3648
 9338TIP3    H149429   4.876   3.798  15.479 -4.5717  0.4350  0.1998
 9338TIP3    H249430   4.901   3.779  15.331 -0.0669  1.7231  0.6250
 9339TIP3   OH249431   4.998   3.313   3.226 -0.2219  0.1641  0.5103
 9339TIP3    H149432   5.083   3.275   3.206 -0.6571  0.1440 -1.5064
 9339TIP3    H249433   5.016   3.406   3.240  0.3992 -0.1876  2.2973
 9340TIP3   OH249434   1.085   4.839   5.749 -0.5983 -0.2970  0.8168
 9340TIP3    H149435   1.091   4.767   5.812 -0.5421 -0.0062  1.1477
 9340TIP3    H249436   1.082   4.918   5.803 -2.0879 -0.1128  0.5062
 9341TIP3   OH249437   2.965   0.264   0.377 -0.6224  0.1891  0.0416
 9341TIP3    H149438   2.990   0.213   0.299 -0.8707  0.0285  0.0664
 9341TIP3    H249439   2.870   0.258   0.379 -0.7898  1.9181 -0.8247
 9342TIP3   OH249440   4.797   1.401  11.910 -0.6874  0.4615 -0.6270
 9342TIP3    H149441   4.823   1.425  11.821 -0.7127  0.8644 -0.5281
 9342TIP3    H249442   4.840   1.317  11.926  0.0065  0.7947 -0.7113
 9343TIP3   OH249443   2.001   0.489  12.033 -0.8175 -0.9646  0.5724
 9343TIP3    H149444   1.939   0.562  12.035 -1.0710 -1.1576 -0.1263
 9343TIP3    H249445   2.087   0.531  12.027 -0.9338 -0.7148  0.6177
 9344TIP3   OH249446   3.721   1.666   3.934  0.4702 -0.1540 -0.1091
 9344TIP3    H149447   3.630   1.637   3.934  0.1189  0.4648  3.4653
 9344TIP3    H249448   3.715   1.762   3.930  0.8637 -0.0675  0.9966
 9345TIP3   OH249449   5.159   3.253  15.435 -0.0111  0.0532  0.1829
 9345TIP3    H149450   5.068   3.276  15.416  0.2548  0.8216 -0.2325
 9345TIP3    H249451   5.154   3.202  15.516 -0.8862 -0.6918 -0.3175
 9346TIP3   OH249452   3.190   3.130   4.107 -0.7007 -0.0394  0.1118
 9346TIP3    H149453   3.214   3.221   4.123  2.5052 -0.8364  0.5704
 9346TIP3    H249454   3.198   3.088   4.192  0.4014 -1.1970 -0.5210
 9347TIP3   OH249455   3.825   2.671   0.467 -0.0714  0.3223 -0.1557
 9347TIP3    H149456   3.736   2.639   0.481 -0.2177  0.6763 -0.2541
 9347TIP3    H249457   3.864   2.672   0.554  0.0565 -0.4594 -0.1991
 9348TIP3   OH249458   0.747   3.197   2.631  0.8782  0.2400 -0.8050
 9348TIP3    H149459   0.800   3.214   2.553  1.8305  0.0301 -0.2226
 9348TIP3    H249460   0.772   3.109   2.658  2.1735  1.0905  0.9578
 9349TIP3   OH249461   0.757   1.999  12.040 -0.0898 -0.3344 -0.1544
 9349TIP3    H149462   0.842   1.970  12.008 -0.1446  0.4696 -1.0655
 9349TIP3    H249463   0.725   2.060  11.973 -0.7907  0.3904  0.8021
 9350TIP3   OH249464   6.434   1.354  16.159  0.1237 -0.7068  0.0071
 9350TIP3    H149465   6.348   1.389  16.182  0.3381 -0.4211  0.3880
 9350TIP3    H249466   6.495   1.427  16.175  0.3367 -0.6280 -1.0644
 9351TIP3   OH249467   6.235   2.230   5.617 -0.0004  0.0559 -0.7576
 9351TIP3    H149468   6.265   2.225   5.708  2.0823  1.5903 -1.3003
 9351TIP3    H249469   6.269   2.151   5.576 -1.6106 -1.0416 -0.0791
 9352TIP3   OH249470   5.870   0.562  15.306 -0.5053 -0.3500 -0.7144
 9352TIP3    H149471   5.920   0.616  15.245  1.1383  0.2047  1.0361
 9352TIP3    H249472   5.886   0.472  15.277 -0.0750 -0.0794 -1.3274
 9353TIP3   OH249473   5.011   6.118  11.432  0.0017 -0.7018 -0.3142
 9353TIP3    H149474   4.974   6.181  11.494  2.1292  0.6103 -0.2891
 9353TIP3    H249475   4.965   6.136  11.350 -0.8228 -0.5066  0.1737
 9354TIP3   OH249476   4.593   5.314  13.900 -0.3102 -0.2854  0.1633
 9354TIP3    H149477   4.622   5.362  13.823 -0.6852 -1.1252 -0.5110
 9354TIP3    H249478   4.579   5.225  13.869 -2.1140 -0.2582  0.8105
 9355TIP3   OH249479   4.910   4.653   4.622 -0.1547 -0.6688 -0.1005
 9355TIP3    H149480   4.815   4.653   4.612 -0.0914  0.8015 -0.9352
 9355TIP3    H249481   4.939   4.575   4.574 -0.9656 -1.5771  0.8225
 9356TIP3   OH249482   6.293   0.826  13.035 -0.0885  0.2186 -0.0993
 9356TIP3    H149483   6.204   0.792  13.039  1.1327 -3.4617 -0.2285
 9356TIP3    H249484   6.324   0.799  12.948  1.1554  1.4627 -0.0703
 9357TIP3   OH249485   2.697   2.984  16.022 -0.1442 -0.5401  0.3929
 9357TIP3    H149486   2.766   2.922  16.047  0.4799  0.1414  0.4013
 9357TIP3    H249487   2.730   3.025  15.942 -1.3181 -1.4148 -0.5774
 9358TIP3   OH249488   3.046   3.818  12.378  0.5764  0.1803 -0.0198
 9358TIP3    H149489   3.026   3.725  12.362  1.6524 -0.0119 -0.3977
 9358TIP3    H249490   3.064   3.853  12.291 -2.0875  1.3503 -0.1686
 9359TIP3   OH249491   6.420   5.760  14.466  0.2314 -0.1272  0.1330
 9359TIP3    H149492   6.463   5.703  14.529 -1.2708 -0.0662  1.2666
 9359TIP3    H249493   6.334   5.779  14.505 -0.3432  0.7410 -1.4538
 9360TIP3   OH249494   4.100   6.326   1.358 -0.0666 -0.2694 -0.4843
 9360TIP3    H149495   4.034   6.362   1.417  0.6417 -0.7299  0.6230
 9360TIP3    H249496   4.182   6.330   1.408  0.0616 -3.4394 -0.2512
 9361TIP3   OH249497   6.594   5.380  12.573 -0.2049  0.1806 -0.1742
 9361TIP3    H149498   6.604   5.350  12.482 -1.0856  0.9230 -0.5341
 9361TIP3    H249499   6.650   5.322  12.624 -0.1033 -0.5873 -1.1337
 9362TIP3   OH249500   0.486   1.433  14.979 -0.0821 -0.2876  0.1513
 9362TIP3    H149501   0.463   1.467  15.066 -0.8321 -1.3247  0.3723
 9362TIP3    H249502   0.429   1.480  14.919  0.6714  0.6784  0.1682
 9363TIP3   OH249503   3.571   6.527   2.323 -0.1708  0.1397 -0.2982
 9363TIP3    H149504   3.495   6.473   2.346 -0.6714  1.2578  0.7809
 9363TIP3    H249505   3.643   6.490   2.374 -0.7820  1.2049  1.4044
 9364TIP3   OH249506   2.736   6.604  13.774  0.3676  0.4711 -0.0957
 9364TIP3    H149507   2.727   6.691  13.814  0.3748  0.7038 -0.5944
 9364TIP3    H249508   2.742   6.544  13.849  2.8134  1.1403  0.3281
 9365TIP3   OH249509   5.114   6.414  15.339  0.7316 -0.6593 -0.4541
 9365TIP3    H149510   5.072   6.467  15.407  2.5369 -0.2195  0.3562
 9365TIP3    H249511   5.137   6.332  15.383  4.7757  0.7785  0.5205
 9366TIP3   OH249512   0.342   6.047   0.185 -0.2906 -0.3544 -0.3599
 9366TIP3    H149513   0.324   6.072   0.276  1.1131 -1.4969  0.2752
 9366TIP3    H249514   0.311   6.121   0.133 -1.6199  0.0948  0.9982
 9367TIP3   OH249515   0.999   1.018   2.367  0.8087  0.4149 -0.4565
 9367TIP3    H149516   0.927   1.010   2.304  1.1471 -1.5142 -0.6787
 9367TIP3    H249517   1.078   1.003   2.314  1.3022  1.3521 -0.0067
 9368TIP3   OH249518   2.458   2.002   1.078  0.1880  0.3601 -0.6917
 9368TIP3    H149519   2.370   1.998   1.040 -0.9569  1.7857  1.6117
 9368TIP3    H249520   2.459   1.932   1.142  1.2221 -0.4529 -1.5700
 9369TIP3   OH249521   1.923   3.495  10.526 -0.1275 -0.1149 -0.1950
 9369TIP3    H149522   2.006   3.521  10.567  0.9105  0.2763 -2.3996
 9369TIP3    H249523   1.949   3.429  10.462 -1.4198  0.5652 -1.4454
 9370TIP3   OH249524   3.347   1.637   4.339  0.5025  0.7208 -0.2836
 9370TIP3    H149525   3.313   1.569   4.282 -1.4822  1.7725 -0.4445
 9370TIP3    H249526   3.376   1.591   4.418  1.5544 -0.5343 -1.3430
 9371TIP3   OH249527   3.613   6.519  11.692  0.0303  0.1257 -0.6776
 9371TIP3    H149528   3.661   6.474  11.762 -1.0551  0.8981  0.6164
 9371TIP3    H249529   3.665   6.597  11.673  0.3159 -0.0720 -0.6979
 9372TIP3   OH249530   3.201   4.395   4.005  0.5078 -0.1560  0.0370
 9372TIP3    H149531   3.276   4.454   4.013  0.2863  0.3221 -1.2370
 9372TIP3    H249532   3.126   4.448   4.033 -0.2688  1.5196 -4.4387
 9373TIP3   OH249533   1.210   6.345   3.378  0.1548  1.1107 -0.4317
 9373TIP3    H149534   1.292   6.389   3.356 -0.6148  2.2795 -1.0314
 9373TIP3    H249535   1.149   6.372   3.310 -0.9904  0.9864  0.5148
 9374TIP3   OH249536   2.606   1.565   1.577 -0.5685 -0.4401 -0.2537
 9374TIP3    H149537   2.700   1.552   1.583 -0.4774  0.2080 -0.2681
 9374TIP3    H249538   2.590   1.650   1.618 -1.3300 -1.2327  1.1852
 9375TIP3   OH249539   2.500   6.353  11.250  0.2852 -0.2259  0.5611
 9375TIP3    H149540   2.418   6.351  11.200 -0.4643  1.5083  1.6134
 9375TIP3    H249541   2.566   6.321  11.189 -0.9231 -0.1377 -0.8585
 9376TIP3   OH249542   3.985   0.083  13.369 -0.2061 -0.5496 -0.2246
 9376TIP3    H149543   3.978   0.082  13.465 -0.2407  1.1858 -0.1699
 9376TIP3    H249544   3.983  -0.009  13.343  1.7884 -1.1746  1.5686
 9377TIP3   OH249545   1.734   3.050   3.002  0.3887 -0.0173  0.4290
 9377TIP3    H149546   1.639   3.045   3.010  0.1089 -0.2902 -2.1393
 9377TIP3    H249547   1.767   2.989   3.067 -1.0634  1.4545  2.6949
 9378TIP3   OH249548   3.540   5.351  11.934  0.2436  0.1551  0.3559
 9378TIP3    H149549   3.491   5.419  11.888 -1.4099 -0.6080  0.8844
 9378TIP3    H249550   3.628   5.388  11.945  0.3719  0.8399 -2.2710
 9379TIP3   OH249551   4.894   6.536   5.384  0.0489  0.3488 -0.3032
 9379TIP3    H149552   4.879   6.452   5.341 -0.0263  0.5467 -0.6689
 9379TIP3    H249553   4.806   6.567   5.408  0.1061  0.1533  0.1540
 9380TIP3   OH249554   3.548   0.027   5.533  0.1196 -0.0520  0.3783
 9380TIP3    H149555   3.519  -0.016   5.613  1.4161 -0.0755  0.8615
 9380TIP3    H249556   3.493   0.105   5.526 -0.2328 -0.2314  1.0949
 9381TIP3   OH249557   6.613   2.329   4.532  0.0526  0.2171 -0.4313
 9381TIP3    H149558   6.574   2.243   4.520 -0.1867  0.3728 -0.8140
 9381TIP3    H249559   6.687   2.331   4.471 -1.0516  0.9418 -1.8408
 9382TIP3   OH249560   4.570   4.868  10.737  0.4214  0.1776 -0.6879
 9382TIP3    H149561   4.522   4.949  10.754  0.8589  0.3354 -0.1523
 9382TIP3    H249562   4.659   4.897  10.719  0.2909 -0.1056 -1.8145
 9383TIP3   OH249563   0.675   0.421  12.753  0.3160 -0.1919  0.9032
 9383TIP3    H149564   0.613   0.480  12.710  0.9248 -0.1557  0.0431
 9383TIP3    H249565   0.622   0.374  12.818 -0.4004  0.5277  0.8618
 9384TIP3   OH249566   3.808   3.445   6.125 -0.6801 -0.3323  0.5197
 9384TIP3    H149567   3.846   3.411   6.044 -1.3620 -0.4995  0.2588
 9384TIP3    H249568   3.722   3.479   6.099 -0.2036  1.2023  0.8625
 9385TIP3   OH249569   0.108   4.790   4.654  0.7719  0.7792 -0.2434
 9385TIP3    H149570   0.129   4.758   4.566  0.3976  0.5953 -0.2710
 9385TIP3    H249571   0.043   4.859   4.639 -1.4813 -1.1507  0.0110
 9386TIP3   OH249572   0.344   6.363  14.093 -0.5904  0.3794 -0.2124
 9386TIP3    H149573   0.266   6.308  14.104 -0.6591  0.6795  0.9626
 9386TIP3    H249574   0.385   6.364  14.180  0.0852  1.1776 -0.5274
 9387TIP3   OH249575   4.601   1.751   5.094  0.0387  0.5431  0.4510
 9387TIP3    H149576   4.660   1.745   5.170 -2.4672 -0.1113  2.4944
 9387TIP3    H249577   4.577   1.660   5.076 -3.4438  0.8974  2.4238
 9388TIP3   OH249578   0.242   0.392  16.310 -0.1016 -0.0916 -0.5970
 9388TIP3    H149579   0.198   0.476  16.324 -0.5900 -0.5190  0.5276
 9388TIP3    H249580   0.172   0.334  16.279  0.2901 -0.0385 -1.6422
 9389TIP3   OH249581   6.520   5.898   0.761  0.1998  0.1370  0.5719
 9389TIP3    H149582   6.538   5.990   0.742  1.0892 -0.3027 -0.8797
 9389TIP3    H249583   6.552   5.886   0.851  0.3692  1.1605  0.6603
 9390TIP3   OH249584   4.881   5.524  11.478 -0.2109  0.6975 -0.0666
 9390TIP3    H149585   4.824   5.510  11.403  0.1922  1.0857 -0.4565
 9390TIP3    H249586   4.970   5.525  11.441 -0.0929  2.2789  0.1871
 9391TIP3   OH249587   2.684   1.260   0.303  0.1544  0.1373 -0.4231
 9391TIP3    H149588   2.610   1.311   0.272 -0.5155 -0.1128  0.7289
 9391TIP3    H249589   2.727   1.229   0.223 -0.5821  0.8442 -1.1036
 9392TIP3   OH249590   5.401   6.255   1.138 -0.3669  0.4637  0.4692
 9392TIP3    H149591   5.320   6.270   1.187  0.2082 -0.7493  1.8852
 9392TIP3    H249592   5.440   6.178   1.180  1.6473  1.1581  0.0007
 9393TIP3   OH249593   5.150   0.636   3.099  0.1097  0.3572 -0.0169
 9393TIP3    H149594   5.199   0.702   3.149 -1.1563  1.5345 -0.2667
 9393TIP3    H249595   5.058   0.660   3.112 -0.2998 -0.0310 -1.9370
 9394TIP3   OH249596   5.292   1.882  12.623 -0.4249  0.6052 -0.0632
 9394TIP3    H149597   5.308   1.910  12.713  0.4245  0.2714 -0.1027
 9394TIP3    H249598   5.352   1.808  12.610  2.4010  3.0412 -2.1698
 9395TIP3   OH249599   1.026   5.224  11.782 -0.0774  0.1126  0.3950
 9395TIP3    H149600   1.097   5.276  11.746  0.2292  0.2207  1.1360
 9395TIP3    H249601   0.957   5.288  11.801 -0.6067 -0.0559 -0.8194
 9396TIP3   OH249602   3.721   1.460  15.446 -0.5398  0.2256  0.4580
 9396TIP3    H149603   3.747   1.437  15.357  0.8609 -0.8360  1.1035
 9396TIP3    H249604   3.692   1.378  15.486  2.5326 -0.2183  2.1300
 9397TIP3   OH249605   1.423   5.795   4.762  0.1166 -0.2756  0.0006
 9397TIP3    H149606   1.455   5.807   4.673 -1.6376 -1.0021 -0.7888
 9397TIP3    H249607   1.500   5.807   4.818  1.4684 -0.8374 -1.6680
 9398TIP3   OH249608   3.655   0.274  16.596  0.4321 -0.1329  0.2294
 9398TIP3    H149609   3.682   0.183  16.596 -1.2249 -0.6922 -1.5231
 9398TIP3    H249610   3.631   0.293  16.686  0.1192 -1.6485  0.4790
 9399TIP3   OH249611   6.390   0.739   2.521 -0.8568 -0.3330 -0.3464
 9399TIP3    H149612   6.478   0.704   2.511  0.1853  1.9221  0.1883
 9399TIP3    H249613   6.374   0.738   2.615 -0.9677  0.1944 -0.3547
 9400TIP3   OH249614   0.846   2.298   4.527 -0.2004  0.0560 -0.4800
 9400TIP3    H149615   0.936   2.314   4.498  0.3341 -1.7471  0.1074
 9400TIP3    H249616   0.846   2.322   4.619 -0.2421 -0.2704 -0.3969
 9401TIP3   OH249617   2.381   6.779  13.751  0.4272 -0.2473  0.3448
 9401TIP3    H149618   2.436   6.742  13.682 -0.1791  0.5600 -0.6069
 9401TIP3    H249619   2.407   6.872  13.755 -0.2678 -0.0525  0.4810
 9402TIP3   OH249620   2.410   1.480   2.457  0.5388  1.0885  0.3325
 9402TIP3    H149621   2.374   1.436   2.380  2.2582  1.7639 -0.9146
 9402TIP3    H249622   2.463   1.412   2.500  2.3739  1.5828 -1.0370
 9403TIP3   OH249623   5.566   4.356  16.340  0.1766 -0.4702 -0.2217
 9403TIP3    H149624   5.552   4.376  16.432  2.7982  0.8915 -0.0258
 9403TIP3    H249625   5.496   4.296  16.318 -0.6576 -0.6792  2.5945
 9404TIP3   OH249626   2.993   5.351  13.570  0.3026 -0.1864  0.1284
 9404TIP3    H149627   2.898   5.352  13.555  0.3550 -2.6175 -0.8359
 9404TIP3    H249628   3.030   5.384  13.488  0.3327  2.3213  1.0713
 9405TIP3   OH249629   1.766   0.399   3.583 -0.0972 -0.0563 -0.1220
 9405TIP3    H149630   1.768   0.475   3.640 -0.1995 -0.8161  0.9297
 9405TIP3    H249631   1.788   0.433   3.496 -0.4645  1.2060  0.2613
 9406TIP3   OH249632   2.258   4.692   3.830 -0.8626 -0.6898 -0.2964
 9406TIP3    H149633   2.212   4.741   3.761  0.7930 -0.2134 -1.1117
 9406TIP3    H249634   2.294   4.759   3.887 -0.3328 -1.0132 -0.2445
 9407TIP3   OH249635   1.403   2.893   6.025 -0.2950  0.0186  0.0001
 9407TIP3    H149636   1.332   2.873   6.086  0.2197 -0.2350  0.5322
 9407TIP3    H249637   1.383   2.980   5.993  0.0645  0.6838  1.4839
 9408TIP3   OH249638   0.016   2.769  11.113  0.2439  0.9001  0.3526
 9408TIP3    H149639   0.102   2.787  11.151  0.6130 -1.2115  0.6423
 9408TIP3    H249640   0.036   2.730  11.028 -0.4814  1.3258 -0.0216
 9409TIP3   OH249641   5.427   5.850  12.868 -0.1418 -0.0217  0.1123
 9409TIP3    H149642   5.382   5.922  12.912  1.3675  0.2805  1.2395
 9409TIP3    H249643   5.424   5.777  12.930 -0.3157 -0.4521 -0.3885
 9410TIP3   OH249644   5.789   5.367  11.518 -0.3205  0.3957 -0.1535
 9410TIP3    H149645   5.810   5.459  11.533  2.6330 -0.1020 -0.6911
 9410TIP3    H249646   5.716   5.349  11.578  0.7052  2.4368  1.8577
 9411TIP3   OH249647   4.850   3.013  13.152  0.0311  0.0434 -0.1834
 9411TIP3    H149648   4.870   2.930  13.195 -0.8002 -0.2210 -0.2915
 9411TIP3    H249649   4.768   3.042  13.191  0.4022  0.9116 -0.0171
 9412TIP3   OH249650   1.055   2.577  15.840 -0.2499  0.0467 -0.0879
 9412TIP3    H149651   1.077   2.492  15.878 -3.6524  0.0168  2.3120
 9412TIP3    H249652   1.042   2.635  15.916 -2.7313  1.3290 -1.3595
 9413TIP3   OH249653   2.636   4.497   1.730  0.1784  0.0728 -0.4169
 9413TIP3    H149654   2.611   4.526   1.642  2.4681  0.3186 -1.0588
 9413TIP3    H249655   2.662   4.406   1.718 -1.0059 -0.3852  0.3535
 9414TIP3   OH249656   6.060   0.637  12.368  0.6125 -0.1575 -0.8781
 9414TIP3    H149657   6.086   0.715  12.318  1.1247  0.4473  0.2906
 9414TIP3    H249658   5.993   0.670  12.428 -1.2084 -1.2034 -2.2079
 9415TIP3   OH249659   5.403   6.141  11.513 -0.0912 -0.3553 -0.5363
 9415TIP3    H149660   5.394   6.227  11.472  0.8230  0.1846  0.3494
 9415TIP3    H249661   5.474   6.099  11.465  1.7701  0.7274  1.1702
 9416TIP3   OH249662   1.503   6.265  14.242 -0.2246 -0.0121 -0.6303
 9416TIP3    H149663   1.508   6.211  14.321 -0.7508 -1.1037 -1.3135
 9416TIP3    H249664   1.501   6.355  14.275  0.1151 -0.4176  0.5688
 9417TIP3   OH249665   0.821   2.485  12.923 -0.1145 -0.5114  0.0219
 9417TIP3    H149666   0.836   2.578  12.903  0.1928 -0.9722 -2.2276
 9417TIP3    H249667   0.895   2.440  12.884 -0.2592 -1.7301  1.0931
 9418TIP3   OH249668   4.263   2.561  13.179 -0.4015 -0.5254  0.2521
 9418TIP3    H149669   4.207   2.589  13.107  0.2705 -2.8019 -1.2874
 9418TIP3    H249670   4.352   2.578  13.149 -0.0768 -2.2458  0.1160
 9419TIP3   OH249671   6.442   3.799  15.126 -0.7872 -0.2136  0.4189
 9419TIP3    H149672   6.369   3.794  15.064  0.8117 -2.1093 -1.4749
 9419TIP3    H249673   6.420   3.733  15.193 -1.9921  1.0708  1.3538
 9420TIP3   OH249674   0.773   1.182  12.759 -0.0746  0.1561  0.2623
 9420TIP3    H149675   0.751   1.208  12.669  0.2736  0.3196  0.2235
 9420TIP3    H249676   0.832   1.250  12.790  0.0160 -0.0393  0.5244
 9421TIP3   OH249677   1.800   0.433   1.191 -0.4461 -0.6100 -0.2679
 9421TIP3    H149678   1.730   0.463   1.249  0.6201  0.0458  0.7100
 9421TIP3    H249679   1.844   0.512   1.162  0.3689 -1.0445 -0.2593
 9422TIP3   OH249680   1.500   2.457  13.065  0.2028  0.4866  0.9308
 9422TIP3    H149681   1.565   2.497  13.123 -0.6590  1.6311  1.1298
 9422TIP3    H249682   1.467   2.530  13.012 -0.4380 -0.2032  0.3643
 9423TIP3   OH249683   2.242   4.205   4.933 -0.2843 -0.0720 -0.0257
 9423TIP3    H149684   2.249   4.109   4.938  0.2620 -0.0099  0.6261
 9423TIP3    H249685   2.197   4.229   5.014  0.4277  0.2833  0.2780
 9424TIP3   OH249686   4.933   1.908  11.061  0.7249  0.2536  0.5551
 9424TIP3    H149687   4.962   1.970  11.128  1.0276  0.8896 -0.1465
 9424TIP3    H249688   4.988   1.927  10.985 -0.6273  0.5872 -0.3830
 9425TIP3   OH249689   1.693   1.690  11.778  0.1648  0.0873  0.4327
 9425TIP3    H149690   1.676   1.670  11.686  2.3358  0.0954 -0.0088
 9425TIP3    H249691   1.606   1.705  11.815 -0.7540  0.1999 -1.6249
 9426TIP3   OH249692   1.830   0.226   4.109  0.4047 -0.0217 -0.0002
 9426TIP3    H149693   1.819   0.148   4.162  0.6227 -0.4024 -0.5069
 9426TIP3    H249694   1.774   0.292   4.150 -0.3174 -0.6442  0.0208
 9427TIP3   OH249695   1.564   6.224  13.696 -0.3866 -0.3135  0.5213
 9427TIP3    H149696   1.641   6.199  13.645  0.4754  1.8174  0.6717
 9427TIP3    H249697   1.541   6.312  13.665 -1.3858  0.0190  2.0429
 9428TIP3   OH249698   0.800   2.240   0.324  0.3557 -0.2282 -0.5331
 9428TIP3    H149699   0.718   2.192   0.316  1.2129 -1.6851 -1.0042
 9428TIP3    H249700   0.799   2.302   0.251 -0.7717  0.5122  0.0858
 9429TIP3   OH249701   4.291   2.588  10.791 -0.5217  0.2641  0.1773
 9429TIP3    H149702   4.334   2.649  10.732  0.1733  0.7768  1.1854
 9429TIP3    H249703   4.215   2.556  10.742 -0.9497  1.9963 -0.3511
 9430TIP3   OH249704   5.352   1.318   3.412  0.2253  0.3812 -0.0970
 9430TIP3    H149705   5.324   1.362   3.492 -0.6816 -0.0710 -0.1486
 9430TIP3    H249706   5.350   1.387   3.345  1.0201  0.7669  0.2668
 9431TIP3   OH249707   2.451   2.936  13.170 -0.2429  0.4815  0.2670
 9431TIP3    H149708   2.412   2.875  13.234  2.3103  0.6121  2.1231
 9431TIP3    H249709   2.481   2.879  13.099 -3.1993  0.3378 -1.0133
 9432TIP3   OH249710   0.468   4.260  14.574  0.1679  1.1267 -0.0914
 9432TIP3    H149711   0.383   4.232  14.539 -0.0105 -0.4487  1.4441
 9432TIP3    H249712   0.505   4.316  14.505 -1.6077  0.9402 -1.2767
 9433TIP3   OH249713   3.173   1.034   1.582  0.0330  0.1865 -0.1421
 9433TIP3    H149714   3.097   0.984   1.552  0.1089  1.1746 -2.0987
 9433TIP3    H249715   3.138   1.093   1.648 -0.8963  0.5761 -0.9624
 9434TIP3   OH249716   3.903   5.643  14.605 -0.2912  0.3190 -0.5907
 9434TIP3    H149717   3.926   5.643  14.698 -0.8221 -0.5267 -0.4529
 9434TIP3    H249718   3.823   5.696  14.600 -0.2361  0.4046 -0.5792
 9435TIP3   OH249719   5.467   1.127   2.119 -0.6174 -0.5175  0.5966
 9435TIP3    H149720   5.530   1.196   2.140  0.8577 -0.0613 -4.0761
 9435TIP3    H249721   5.520   1.048   2.113 -1.2219 -0.9145  0.3990
 9436TIP3   OH249722   1.283   5.939   0.987 -0.0354  0.2141  0.5462
 9436TIP3    H149723   1.337   5.916   0.912 -2.2196 -2.0126 -0.4987
 9436TIP3    H249724   1.211   5.990   0.951 -0.2226  0.5715  1.4016
 9437TIP3   OH249725   5.314   3.964  11.921 -0.6229  0.4750  0.0469
 9437TIP3    H149726   5.366   3.913  11.860  0.2917  1.3710  0.0542
 9437TIP3    H249727   5.223   3.939  11.902 -0.2116 -1.1786  0.1067
 9438TIP3   OH249728   6.721   4.459  12.142 -0.1682 -0.0670  0.2143
 9438TIP3    H149729   6.814   4.476  12.133  0.0894 -1.9016 -1.4301
 9438TIP3    H249730   6.686   4.536  12.187  2.3491 -0.0421  2.3199
 9439TIP3   OH249731   5.273   2.960  14.608 -0.9080  0.3456 -0.2298
 9439TIP3    H149732   5.189   3.006  14.610 -0.6369  0.8406 -0.0740
 9439TIP3    H249733   5.274   2.908  14.688 -1.4210 -0.3033 -0.6399
 9440TIP3   OH249734   5.093   5.796   1.668 -0.5440 -0.1028  0.0801
 9440TIP3    H149735   5.021   5.797   1.605 -1.0863  2.0305  0.6747
 9440TIP3    H249736   5.054   5.823   1.751  0.7376  0.1110  0.6440
 9441TIP3   OH249737   1.572   0.343  13.453  0.2275 -0.1933  0.3326
 9441TIP3    H149738   1.614   0.343  13.539  0.2773  0.3712  0.3122
 9441TIP3    H249739   1.523   0.261  13.450  0.8781 -0.5974  0.5813
 9442TIP3   OH249740   1.097   3.389  15.151 -0.0278 -0.1137 -0.2322
 9442TIP3    H149741   1.087   3.417  15.060 -0.1070  0.0624 -0.1696
 9442TIP3    H249742   1.034   3.318  15.161  0.3883 -0.5224 -0.4781
 9443TIP3   OH249743   2.279   1.282   2.350  0.7825  0.1736 -0.2369
 9443TIP3    H149744   2.325   1.249   2.428  0.6461 -0.8477 -0.5789
 9443TIP3    H249745   2.228   1.207   2.318  4.2780 -0.9993 -3.9375
 9444TIP3   OH249746   2.346   6.289   5.667 -0.1191  0.5138  0.3546
 9444TIP3    H149747   2.255   6.262   5.664 -0.6582  2.3066 -1.7446
 9444TIP3    H249748   2.368   6.289   5.760 -1.5915 -1.9163  0.7811
 9445TIP3   OH249749   2.242   4.744   1.444  0.2258  0.3173 -0.0368
 9445TIP3    H149750   2.215   4.705   1.527 -1.5354 -0.7549 -1.0497
 9445TIP3    H249751   2.192   4.826   1.440  1.6897  1.2987  0.7364
 9446TIP3   OH249752   6.492   0.104  14.759  0.2283 -0.3401  0.2690
 9446TIP3    H149753   6.444   0.118  14.676 -0.0221  0.7838  0.5905
 9446TIP3    H249754   6.488   0.010  14.772 -2.0213 -0.3034  0.3208
 9447TIP3   OH249755   0.368   5.253   1.268  0.1107  0.1177 -0.2906
 9447TIP3    H149756   0.461   5.255   1.290 -0.0436 -1.4738  0.7088
 9447TIP3    H249757   0.362   5.193   1.194 -0.1833 -0.2806  0.0540
 9448TIP3   OH249758   4.661   1.279  13.188  0.2893 -0.1248 -0.3166
 9448TIP3    H149759   4.574   1.289  13.150  1.3194  0.9169 -2.6322
 9448TIP3    H249760   4.698   1.368  13.187  0.7917 -0.2495  2.2406
 9449TIP3   OH249761   4.528   0.158   5.660 -0.0969  0.5229  0.1050
 9449TIP3    H149762   4.621   0.147   5.643 -0.1309  0.7039 -0.2023
 9449TIP3    H249763   4.524   0.225   5.728  0.0031  0.4156  0.2160
 9450TIP3   OH249764   1.239   1.967  13.977 -0.1353 -0.2251 -0.1655
 9450TIP3    H149765   1.232   2.062  13.980  0.6422 -0.1507 -0.5553
 9450TIP3    H249766   1.304   1.945  14.044 -0.4332 -0.4982  0.0400
 9451TIP3   OH249767   3.292   6.137  10.607 -0.4681  0.2890 -0.6185
 9451TIP3    H149768   3.220   6.137  10.544  0.8416  1.6443 -2.2197
 9451TIP3    H249769   3.271   6.208  10.668 -0.1283  1.2108 -1.5569
 9452TIP3   OH249770   0.785   2.513  14.238  0.2154  0.6609 -0.4886
 9452TIP3    H149771   0.762   2.553  14.322  1.7636 -1.2639  0.9606
 9452TIP3    H249772   0.708   2.460  14.215  0.0591  0.6008  0.1402
 9453TIP3   OH249773   6.222   6.378  12.707 -0.0750  0.1238  0.3835
 9453TIP3    H149774   6.293   6.346  12.762 -0.1315  0.8874  0.9315
 9453TIP3    H249775   6.142   6.347  12.751 -0.1145  0.5611  0.6276
 9454TIP3   OH249776   0.194   1.419  11.629 -0.4260  0.1064 -0.0400
 9454TIP3    H149777   0.107   1.383  11.650 -0.4123 -0.8895 -1.4908
 9454TIP3    H249778   0.189   1.436  11.535  2.1128 -3.5839 -1.0652
 9455TIP3   OH249779   2.546   6.172  14.839 -0.3902  0.1606  0.1119
 9455TIP3    H149780   2.486   6.245  14.854  0.5687  0.8870  0.4680
 9455TIP3    H249781   2.623   6.192  14.893 -0.0970 -1.0965  0.1930
 9456TIP3   OH249782   5.291   5.428   2.039  0.1631  0.0904 -0.0954
 9456TIP3    H149783   5.264   5.392   1.954 -1.2858 -0.4204  0.5502
 9456TIP3    H249784   5.383   5.452   2.027 -0.3915  1.3761 -2.2537
 9457TIP3   OH249785   2.841   4.169   0.816 -0.1457 -0.5786 -0.4109
 9457TIP3    H149786   2.786   4.226   0.761  0.5998 -0.6007 -1.2005
 9457TIP3    H249787   2.786   4.147   0.891 -0.5820  0.8963 -0.2658
 9458TIP3   OH249788   0.500   0.644  16.245  0.2389  0.5043 -0.3887
 9458TIP3    H149789   0.532   0.627  16.156  0.5038  0.7380 -0.3398
 9458TIP3    H249790   0.429   0.707  16.233 -0.9156 -0.7983 -0.5890
 9459TIP3   OH249791   0.951   1.823  13.590 -0.5691 -0.2947  0.0975
 9459TIP3    H149792   0.963   1.896  13.529 -0.8055 -1.7194 -1.7531
 9459TIP3    H249793   1.029   1.824  13.645  0.5014  0.0474 -1.3571
 9460TIP3   OH249794   3.690   1.001  12.380  0.3136  0.0609  0.0832
 9460TIP3    H149795   3.693   1.047  12.296  2.3149 -1.2959 -0.6785
 9460TIP3    H249796   3.618   0.938  12.370  0.9310 -0.5159 -0.8861
 9461TIP3   OH249797   1.724   6.300   5.168 -0.1269  0.0411  0.4037
 9461TIP3    H149798   1.773   6.242   5.110  0.0663  0.7617 -0.1631
 9461TIP3    H249799   1.666   6.348   5.110 -0.3089  0.3926  0.8738
 9462TIP3   OH249800   4.144   0.692  16.614 -0.3073 -0.1667 -0.2740
 9462TIP3    H149801   4.099   0.755  16.671 -2.3098 -1.8719  0.1768
 9462TIP3    H249802   4.237   0.707  16.631 -0.7668  1.3138  1.2778
 9463TIP3   OH249803   1.550   0.558   0.612 -0.0731  0.3028 -0.4206
 9463TIP3    H149804   1.456   0.559   0.597 -0.3352  0.0961  0.9995
 9463TIP3    H249805   1.569   0.643   0.652  0.4624  0.5960 -1.2719
 9464TIP3   OH249806   5.996   1.155  16.729 -0.1055  0.2545  0.5939
 9464TIP3    H149807   5.929   1.088  16.724 -0.3236  0.3916  1.5027
 9464TIP3    H249808   5.991   1.201  16.645 -0.7760 -0.0843  0.4448
 9465TIP3   OH249809   6.759   1.750   3.210 -0.0664  0.3696  0.1376
 9465TIP3    H149810   6.832   1.762   3.149 -0.2762  0.9675 -0.0047
 9465TIP3    H249811   6.730   1.839   3.230  1.2591  0.3408  2.6569
 9466TIP3   OH249812   1.059   5.932  16.230  0.2947 -0.0914  0.0674
 9466TIP3    H149813   1.097   5.876  16.298 -1.0403  0.5242  1.3818
 9466TIP3    H249814   1.095   6.019  16.248 -0.0082  0.0600 -0.0516
 9467TIP3   OH249815   3.990   1.022   5.474 -0.2699 -0.0063  0.5687
 9467TIP3    H149816   3.943   1.090   5.522  0.6457  0.3588  0.9704
 9467TIP3    H249817   4.075   1.061   5.454  0.7278 -1.4336  1.8307
 9468TIP3   OH249818   4.082   1.866  14.765 -0.2063  0.0846  0.2803
 9468TIP3    H149819   4.062   1.786  14.814  0.1165 -0.5374 -0.5776
 9468TIP3    H249820   4.160   1.843  14.713 -1.5526  0.1090 -1.8637
 9469TIP3   OH249821   6.768   1.887   3.746 -0.0956 -0.4678 -0.0167
 9469TIP3    H149822   6.767   1.793   3.728  0.1103 -0.4658 -0.0410
 9469TIP3    H249823   6.846   1.900   3.800 -1.1256 -0.6048  1.6033
 9470TIP3   OH249824   6.582   2.677  16.109  0.2423  0.2651  0.0498
 9470TIP3    H149825   6.669   2.672  16.148  0.1769  1.3099  0.3631
 9470TIP3    H249826   6.543   2.755  16.148 -0.7546 -0.0655 -0.2548
 9471TIP3   OH249827   3.851   0.338  16.935  0.5034  0.6048 -0.2197
 9471TIP3    H149828   3.764   0.344  16.897  0.2083  1.9821  0.6206
 9471TIP3    H249829   3.900   0.409  16.894  0.5035  1.3917  1.0822
 9472TIP3   OH249830   3.441   3.523  15.647  0.4327 -0.1264 -0.2656
 9472TIP3    H149831   3.501   3.470  15.596  1.0039  0.2657 -0.0113
 9472TIP3    H249832   3.453   3.612  15.614  0.9851  0.1711  0.6879
 9473TIP3   OH249833   0.612   6.781  16.180  0.4151 -0.3493 -1.0026
 9473TIP3    H149834   0.630   6.866  16.141 -0.5472  0.1229 -0.4625
 9473TIP3    H249835   0.524   6.789  16.216  0.0385 -1.7937 -1.5106
 9474TIP3   OH249836   0.296   1.905  17.001  0.5439 -0.3307  0.5949
 9474TIP3    H149837   0.234   1.834  16.985 -0.5127  0.4466  1.1274
 9474TIP3    H249838   0.319   1.936  16.913 -1.8559  1.0584  0.3837
 9475TIP3   OH249839   5.303   1.003   3.651 -0.4279 -0.0809 -0.5982
 9475TIP3    H149840   5.209   0.989   3.637 -1.2264  3.2132  0.6751
 9475TIP3    H249841   5.310   1.026   3.744  1.3481  1.5821 -1.0766
 9476TIP3   OH249842   3.590   2.011   2.552  0.5415 -0.3460  0.4518
 9476TIP3    H149843   3.603   2.031   2.459  1.1721  2.3164  1.0374
 9476TIP3    H249844   3.516   2.066   2.579  0.0489 -1.4420  1.4536
 9477TIP3   OH249845   2.485   3.168  12.970 -0.0875 -0.1143  0.1410
 9477TIP3    H149846   2.407   3.144  12.920 -0.7001 -0.3103  1.1760
 9477TIP3    H249847   2.452   3.196  13.055  1.0145 -0.9140  0.8604
 9478TIP3   OH249848   2.208   2.983  16.866  1.2113 -0.3129  0.7897
 9478TIP3    H149849   2.293   2.992  16.823  1.3308  2.1306  1.4160
 9478TIP3    H249850   2.145   3.015  16.802  0.9826 -0.2173  1.0598
 9479TIP3   OH249851   0.524   2.777  13.709  0.3726 -0.4088 -0.4150
 9479TIP3    H149852   0.542   2.848  13.647 -1.3662 -0.2564 -0.8014
 9479TIP3    H249853   0.507   2.822  13.792 -0.3805 -0.3800 -0.5775
 9480TIP3   OH249854   4.859   1.487   1.918  0.3878 -0.1888 -0.1959
 9480TIP3    H149855   4.839   1.466   1.826  0.1912  0.9432 -0.4255
 9480TIP3    H249856   4.784   1.452   1.967  1.1043 -1.9754 -0.2897
 9481TIP3   OH249857   2.351   5.133  12.937  0.4617 -0.1289  0.0252
 9481TIP3    H149858   2.359   5.086  13.020 -0.6197 -1.1192 -0.3992
 9481TIP3    H249859   2.277   5.091  12.892  1.5030 -0.1419 -1.7849
 9482TIP3   OH249860   5.262   1.513   3.573  0.0103  0.0410 -0.6048
 9482TIP3    H149861   5.334   1.574   3.558 -0.5046  0.8276  0.0517
 9482TIP3    H249862   5.214   1.550   3.647  0.2045 -1.6204  0.4288
 9483TIP3   OH249863   3.768   3.733  14.913 -0.2891 -0.2883 -0.1945
 9483TIP3    H149864   3.818   3.759  14.990 -1.4684 -1.6411  1.1085
 9483TIP3    H249865   3.677   3.738  14.941 -0.6950 -2.7292 -0.7944
 9484TIP3   OH249866   2.503   6.331   5.120  0.4599 -0.0420 -0.2227
 9484TIP3    H149867   2.423   6.376   5.095  0.0793 -0.6733 -0.1404
 9484TIP3    H249868   2.490   6.241   5.093  1.3880 -0.0268 -0.7628
 9485TIP3   OH249869   2.856   2.324   4.227  0.2629  0.5876 -0.2532
 9485TIP3    H149870   2.822   2.400   4.275  0.5478  0.3040  0.4124
 9485TIP3    H249871   2.920   2.286   4.287  2.7404  1.8444 -1.9428
 9486TIP3   OH249872   3.400   1.347   1.941  0.3125 -0.1843  0.1194
 9486TIP3    H149873   3.445   1.312   2.018  0.7512  0.7707  0.3213
 9486TIP3    H249874   3.311   1.364   1.972  0.6113  0.6283  0.5645
 9487TIP3   OH249875   0.887   3.633  15.709  0.3256  0.4060 -0.3629
 9487TIP3    H149876   0.895   3.537  15.701 -1.0339 -0.0787  2.6850
 9487TIP3    H249877   0.794   3.648  15.727  0.4865  2.3628 -0.9664
 9488TIP3   OH249878   5.238   5.532   0.501  0.0573  0.5246 -0.3920
 9488TIP3    H149879   5.322   5.577   0.490  0.4496 -0.0341  0.2692
 9488TIP3    H249880   5.213   5.550   0.591  0.1024 -0.3728 -0.1886
 9489TIP3   OH249881   1.464   5.152  11.161  0.2658 -0.5104  0.5809
 9489TIP3    H149882   1.521   5.152  11.085  1.1709 -1.8472  1.2223
 9489TIP3    H249883   1.448   5.245  11.179  3.2310 -0.0027  1.0893
 9490TIP3   OH249884   1.497   5.668   2.519 -0.3373 -0.5620  0.2083
 9490TIP3    H149885   1.460   5.625   2.596  0.1918 -1.6070 -0.0973
 9490TIP3    H249886   1.421   5.688   2.464 -0.9279  1.8591  1.7439
 9491TIP3   OH249887   5.357   5.264   4.853 -0.1467 -0.8938 -0.7135
 9491TIP3    H149888   5.289   5.274   4.920  0.8608 -1.1370  0.3818
 9491TIP3    H249889   5.406   5.346   4.856  0.7085 -1.3981 -0.1929
 9492TIP3   OH249890   0.061   4.479  15.711 -0.2793 -0.0400 -0.1438
 9492TIP3    H149891   0.016   4.505  15.792 -2.4322 -2.5051 -0.4139
 9492TIP3    H249892   0.145   4.445  15.740 -0.3616  0.5718  0.8733
 9493TIP3   OH249893   6.323   3.974  14.065  0.0773  0.0126 -0.4518
 9493TIP3    H149894   6.320   3.885  14.029  0.4622 -0.2003  0.0397
 9493TIP3    H249895   6.359   4.027  13.994  0.8287 -0.4058 -0.3958
 9494TIP3   OH249896   6.616   4.664  16.246  0.2112  0.4275  0.6216
 9494TIP3    H149897   6.577   4.720  16.178  0.4789  0.5501  0.5699
 9494TIP3    H249898   6.676   4.721  16.292  1.3094 -0.0869 -0.1252
 9495TIP3   OH249899   2.722   4.352  13.842  0.0605  0.4357 -0.2125
 9495TIP3    H149900   2.662   4.278  13.850  0.5999  0.0294  0.1910
 9495TIP3    H249901   2.734   4.363  13.747  1.6421 -1.4105 -0.2947
 9496TIP3   OH249902   3.850   4.557  14.348 -0.3664  0.1352 -0.1179
 9496TIP3    H149903   3.778   4.536  14.407  0.3835 -1.4719  0.2753
 9496TIP3    H249904   3.851   4.652  14.344 -2.7768  0.2035 -0.4769
 9497TIP3   OH249905   0.772   1.138   3.482  0.3437  0.6960  0.2011
 9497TIP3    H149906   0.711   1.205   3.513 -0.3247  0.2287 -0.0683
 9497TIP3    H249907   0.842   1.137   3.547  0.1826  1.4079  0.3931
 9498TIP3   OH249908   3.952   6.728  14.091  0.6338 -0.3686  0.3640
 9498TIP3    H149909   3.871   6.726  14.040  0.7440 -0.4616  0.1928
 9498TIP3    H249910   3.940   6.801  14.153  1.1619  0.8256 -0.8795
 9499TIP3   OH249911   5.612   0.858  13.285 -0.4054  0.4069 -0.1967
 9499TIP3    H149912   5.557   0.781  13.275 -0.8910  0.5539  1.1136
 9499TIP3    H249913   5.551   0.928  13.310  0.2043  0.9032 -0.0675
 9500TIP3   OH249914   2.486   2.410   6.408  0.0951 -0.2102 -0.5012
 9500TIP3    H149915   2.447   2.469   6.473 -0.5534  0.0173 -1.0894
 9500TIP3    H249916   2.476   2.323   6.447 -0.3054 -0.0788 -0.3055
 9501TIP3   OH249917   4.708   4.737   5.288 -0.5562  0.2717  0.7842
 9501TIP3    H149918   4.626   4.761   5.244 -0.4488 -0.1997  0.3124
 9501TIP3    H249919   4.694   4.647   5.318 -0.3743  0.3484  1.1014
 9502TIP3   OH249920   6.119   1.132  11.219  0.3214  0.7154  0.1798
 9502TIP3    H149921   6.191   1.083  11.260 -0.3582  1.3052  2.2084
 9502TIP3    H249922   6.161   1.187  11.154  1.4119 -0.6165 -0.2964
 9503TIP3   OH249923   6.592   2.720   6.424 -0.1908  0.0182  0.1707
 9503TIP3    H149924   6.597   2.807   6.384 -0.9310  0.4283  0.9448
 9503TIP3    H249925   6.500   2.708   6.445  0.0715 -0.4883  1.0961
 9504TIP3   OH249926   1.984   3.889   2.175 -0.0753  0.1772 -0.2099
 9504TIP3    H149927   1.937   3.964   2.140 -1.6779 -0.8253 -0.2828
 9504TIP3    H249928   2.028   3.851   2.099 -1.6010 -0.6063 -0.7315
 9505TIP3   OH249929   4.441   4.673  15.125  0.3079 -0.0421 -1.0299
 9505TIP3    H149930   4.459   4.679  15.032  0.1386 -1.2079 -1.1482
 9505TIP3    H249931   4.369   4.611  15.132 -0.3011  0.7221 -0.1871
 9506TIP3   OH249932   5.472   2.046  16.922  0.6230  0.7180  0.2514
 9506TIP3    H149933   5.546   2.099  16.893  0.8784 -0.4562 -1.3551
 9506TIP3    H249934   5.499   1.956  16.906 -1.6123  0.2904 -1.6317
 9507TIP3   OH249935   5.362   5.354  13.513  0.6761 -0.2878 -0.2898
 9507TIP3    H149936   5.318   5.426  13.469  2.7051  0.5282 -1.1060
 9507TIP3    H249937   5.319   5.348  13.599 -0.5137  0.8874 -0.7765
 9508TIP3   OH249938   5.536   0.548  10.761 -0.3765 -0.3949 -0.7587
 9508TIP3    H149939   5.486   0.627  10.739  1.6100  1.0064 -0.4610
 9508TIP3    H249940   5.504   0.523  10.847 -0.2499  0.7754 -0.3511
 9509TIP3   OH249941   1.898   6.593   2.755 -0.4492  0.8733 -0.1056
 9509TIP3    H149942   1.818   6.635   2.724 -0.8800 -0.1435 -0.4179
 9509TIP3    H249943   1.937   6.556   2.676  0.5060  1.6278 -0.0043
 9510TIP3   OH249944   2.614   2.970   6.619 -0.4858 -0.0601 -0.2237
 9510TIP3    H149945   2.524   2.984   6.650 -1.2340  1.2747 -2.7097
 9510TIP3    H249946   2.604   2.920   6.538  1.1443 -1.0365  0.1314
 9511TIP3   OH249947   2.696   0.942   2.271  0.0757  0.0726 -0.5411
 9511TIP3    H149948   2.657   0.957   2.185 -2.5087 -0.8664  0.3603
 9511TIP3    H249949   2.759   0.871   2.257  0.9585  1.0888 -1.9220
 9512TIP3   OH249950   3.130   6.052   1.230 -0.2529  0.5837 -0.3732
 9512TIP3    H149951   3.210   6.029   1.183  0.3198  1.0174  0.3749
 9512TIP3    H249952   3.106   6.137   1.194 -1.2559 -0.2079 -1.6952
 9513TIP3   OH249953   5.360   3.459   4.785  0.2108  0.3075 -0.8406
 9513TIP3    H149954   5.325   3.396   4.723  0.8507 -0.4638 -0.4318
 9513TIP3    H249955   5.374   3.539   4.734 -0.9883  0.2678 -1.2723
 9514TIP3   OH249956   3.029   6.338  14.163 -0.5279 -0.7926  0.0679
 9514TIP3    H149957   2.966   6.409  14.173  0.2882  0.1720 -1.3061
 9514TIP3    H249958   3.104   6.365  14.218  0.1352 -0.1242 -1.1234
 9515TIP3   OH249959   4.311   4.079  11.632  0.1575 -0.0708 -0.9103
 9515TIP3    H149960   4.231   4.049  11.675  1.2732 -0.0200  1.3747
 9515TIP3    H249961   4.305   4.046  11.543 -1.8302 -1.1197 -0.4334
 9516TIP3   OH249962   6.627   3.931   3.665 -0.6908 -0.2525 -0.5171
 9516TIP3    H149963   6.628   3.924   3.569 -0.0167 -0.6122 -0.4916
 9516TIP3    H249964   6.645   3.842   3.695 -0.4705 -0.0586 -0.0625
 9517TIP3   OH249965   5.618   0.513   3.837 -0.3533 -0.4068  0.1021
 9517TIP3    H149966   5.657   0.426   3.827 -0.1835 -0.2733 -0.4300
 9517TIP3    H249967   5.553   0.519   3.768  2.0838  1.2093 -2.2986
 9518TIP3   OH249968   1.201   0.623  11.477 -0.5668 -0.5727 -0.3003
 9518TIP3    H149969   1.163   0.537  11.494 -0.2464 -0.2370  2.4020
 9518TIP3    H249970   1.138   0.685  11.514 -0.1762  0.3033 -1.0650
 9519TIP3   OH249971   2.888   4.842   3.529  0.3489 -0.4345 -0.4787
 9519TIP3    H149972   2.969   4.800   3.556  0.3435 -0.4902 -0.5491
 9519TIP3    H249973   2.820   4.779   3.551  0.2863 -0.2061 -0.0203
 9520TIP3   OH249974   3.078   5.718   4.722 -0.2377  0.3971  0.1733
 9520TIP3    H149975   3.157   5.664   4.718 -1.2630 -1.1894  0.5173
 9520TIP3    H249976   3.110   5.808   4.710  1.3939 -0.3533 -1.7112
 9521TIP3   OH249977   0.370   3.082  15.930  0.3703  0.2151  0.5047
 9521TIP3    H149978   0.452   3.035  15.948  1.0491  0.7816 -0.9311
 9521TIP3    H249979   0.311   3.014  15.897  0.7546  0.0540  0.1353
 9522TIP3   OH249980   2.271   4.009   1.880  0.3431 -0.2400  0.6847
 9522TIP3    H149981   2.357   4.006   1.921 -0.0425  0.3120  1.5583
 9522TIP3    H249982   2.276   3.945   1.809  2.0260  1.0273 -0.4000
 9523TIP3   OH249983   3.859   1.690  11.226 -0.3725  0.3456  0.0953
 9523TIP3    H149984   3.901   1.623  11.280 -0.4558  1.2548  1.3383
 9523TIP3    H249985   3.885   1.668  11.137  1.4659 -0.0437  0.6731
 9524TIP3   OH249986   2.076   5.614   1.596  0.1444 -0.1001  0.5893
 9524TIP3    H149987   2.096   5.576   1.511 -0.6490  0.4805  0.1282
 9524TIP3    H249988   2.011   5.555   1.635 -2.8019  1.7825 -1.0581
 9525TIP3   OH249989   4.728   2.644  12.631 -0.2710  0.2131 -0.0623
 9525TIP3    H149990   4.792   2.698  12.585  0.2759 -0.5193 -0.1798
 9525TIP3    H249991   4.781   2.575  12.673 -0.9634 -0.2828  0.0019
 9526TIP3   OH249992   2.249   1.935   4.152 -0.1152 -0.1904 -0.4988
 9526TIP3    H149993   2.336   1.942   4.113  0.7271 -0.2885  1.2734
 9526TIP3    H249994   2.263   1.948   4.246 -2.2279  1.3467 -0.3193
 9527TIP3   OH249995   0.006   3.566  14.133 -0.3602  0.2978  0.1088
 9527TIP3    H149996   0.089   3.605  14.103  0.3277 -1.6333 -0.6550
 9527TIP3    H249997   0.023   3.541  14.224 -0.6144  1.2109  0.4183
 9528TIP3   OH249998   4.344   0.883   5.131  0.1034  0.1219  0.1217
 9528TIP3    H149999   4.278   0.946   5.102  1.2766  0.8956 -0.9646
 9528TIP3    H250000   4.416   0.937   5.165  1.2162 -0.5787 -1.0081
 9529TIP3   OH250001   2.380   4.147  14.021 -0.4257 -0.2346 -0.4479
 9529TIP3    H150002   2.301   4.180  14.062 -0.4140  0.4829 -0.9808
 9529TIP3    H250003   2.349   4.100  13.943 -0.2411  2.1128 -2.0331
 9530TIP3   OH250004   2.790   5.694   2.414  0.3308 -0.2037  0.0758
 9530TIP3    H150005   2.747   5.608   2.414 -0.0434 -0.0208  0.1171
 9530TIP3    H250006   2.753   5.739   2.338  0.1089  0.1231  0.3727
 9531TIP3   OH250007   3.356   4.874   2.030 -0.1599  0.3753 -0.3422
 9531TIP3    H150008   3.411   4.875   1.952  0.1150  1.0323 -0.1437
 9531TIP3    H250009   3.398   4.936   2.090 -0.4820  0.0344  0.2483
 9532TIP3   OH250010   3.775   6.733  17.068  0.0455 -0.1717 -0.2764
 9532TIP3    H150011   3.831   6.695  17.135 -1.4250 -0.7824  0.6770
 9532TIP3    H250012   3.828   6.733  16.989  2.4698  2.1218  1.1664
 9533TIP3   OH250013   4.020   4.770   0.751 -0.1727  0.2787  0.1271
 9533TIP3    H150014   3.954   4.727   0.805  0.7069 -0.4286  0.6758
 9533TIP3    H250015   4.002   4.864   0.761  0.0344  0.1777  1.7786
 9534TIP3   OH250016   3.736   4.722  10.999 -0.2431  0.0715  0.3090
 9534TIP3    H150017   3.707   4.812  11.013 -0.9248  0.1120 -1.1695
 9534TIP3    H250018   3.763   4.691  11.086  0.3084  1.7925  0.7756
 9535TIP3   OH250019   1.215   4.928   2.614 -0.3736  0.1118  0.5893
 9535TIP3    H150020   1.204   4.851   2.669 -1.7110 -1.0521 -1.1751
 9535TIP3    H250021   1.308   4.950   2.621  0.1176 -1.8531  0.8939
 9536TIP3   OH250022   5.022   1.265   3.804 -0.4113 -0.3781  0.4148
 9536TIP3    H150023   5.044   1.328   3.873 -1.8884 -0.3026  0.8430
 9536TIP3    H250024   4.939   1.227   3.832 -0.7591 -0.7451 -1.0554
 9537TIP3   OH250025   2.203   2.894   4.244 -0.3000 -0.2289 -0.1023
 9537TIP3    H150026   2.245   2.880   4.329  0.5351  0.5008 -0.3839
 9537TIP3    H250027   2.269   2.867   4.180  0.7074  3.1175 -0.6348
 9538TIP3   OH250028   0.943   1.885  15.650  0.4530 -0.0584 -0.1353
 9538TIP3    H150029   0.992   1.956  15.608 -2.5385  1.4973 -1.3490
 9538TIP3    H250030   0.938   1.911  15.743  0.7843  0.4520 -0.2559
 9539TIP3   OH250031   0.066   4.454   6.337 -0.6106 -0.2123 -0.5684
 9539TIP3    H150032   0.090   4.362   6.344 -0.5181 -0.1694 -0.3354
 9539TIP3    H250033   0.105   4.496   6.413 -3.1242 -0.4868  0.9774
 9540TIP3   OH250034   3.100   4.692  16.889  0.2818  0.2134  0.6380
 9540TIP3    H150035   3.152   4.744  16.950  2.1485 -0.4041 -0.3545
 9540TIP3    H250036   3.112   4.734  16.804 -0.7049 -0.0507  0.3541
 9541TIP3   OH250037   2.411   6.761   0.642  0.4724 -0.2399  0.0197
 9541TIP3    H150038   2.399   6.708   0.563 -0.7769 -1.0912  0.7427
 9541TIP3    H250039   2.427   6.697   0.712 -0.1297  0.3816  0.7444
 9542TIP3   OH250040   3.531   1.793  11.699  0.1680 -0.3064 -0.3694
 9542TIP3    H150041   3.554   1.885  11.712  0.9280 -0.1016 -2.6781
 9542TIP3    H250042   3.491   1.790  11.612  0.6374 -2.2400 -0.5709
 9543TIP3   OH250043   3.210   5.280  16.547 -0.0026 -0.4713  0.0483
 9543TIP3    H150044   3.246   5.264  16.635 -0.7568 -0.3898  0.3789
 9543TIP3    H250045   3.279   5.328  16.501 -0.0562  0.5338  0.9808
 9544TIP3   OH250046   0.658   3.643  11.445  0.3442 -0.4699  0.6895
 9544TIP3    H150047   0.702   3.666  11.526 -0.7141  0.5740  0.9998
 9544TIP3    H250048   0.571   3.614  11.472  0.1023 -0.4451 -0.0345
 9545TIP3   OH250049   3.513   6.609  14.337  0.3159  0.3340  0.1612
 9545TIP3    H150050   3.564   6.568  14.267  1.1686  0.2684  0.8053
 9545TIP3    H250051   3.515   6.546  14.409  0.6664  1.0017  0.7540
 9546TIP3   OH250052   2.275   6.692  11.103  0.1056  0.0886  0.5033
 9546TIP3    H150053   2.349   6.697  11.163  0.2292  2.1545  0.2397
 9546TIP3    H250054   2.310   6.652  11.023  0.6196 -0.0657  0.8076
 9547TIP3   OH250055   6.151   6.431   3.909 -0.3015 -0.1558  0.0382
 9547TIP3    H150056   6.085   6.362   3.902 -0.9397  0.4939 -0.4504
 9547TIP3    H250057   6.174   6.452   3.819 -0.3793  0.5283  0.1723
 9548TIP3   OH250058   5.423   6.027  14.740  0.5602  0.1740 -0.1228
 9548TIP3    H150059   5.442   5.996  14.829 -2.0157  1.4326  0.9800
 9548TIP3    H250060   5.455   6.117  14.738 -0.4300  0.5503 -0.0020
 9549TIP3   OH250061   0.334   0.715  12.279  0.2774  0.0845 -0.3605
 9549TIP3    H150062   0.333   0.799  12.325 -0.3447  0.1410 -0.4589
 9549TIP3    H250063   0.414   0.716  12.227  1.5778 -0.4472  1.5455
 9550TIP3   OH250064   6.010   2.677   3.696  0.0958  0.1499 -0.1315
 9550TIP3    H150065   5.990   2.707   3.607  2.9695  1.3725 -0.4769
 9550TIP3    H250066   5.929   2.635   3.725 -1.8100  1.9286 -2.3497
 9551TIP3   OH250067   2.851   4.009  12.105 -0.1162 -0.0806 -0.8968
 9551TIP3    H150068   2.783   3.942  12.096 -0.3946 -0.0609  0.6913
 9551TIP3    H250069   2.933   3.960  12.106 -0.0315 -0.0800 -3.1342
 9552TIP3   OH250070   1.432   3.830   5.038  0.1992  0.3860 -0.5602
 9552TIP3    H150071   1.496   3.824   4.968  0.7091  0.4598 -0.1116
 9552TIP3    H250072   1.448   3.916   5.078 -0.6933  0.7419 -0.9207
 9553TIP3   OH250073   5.994   6.373  14.384 -0.3287 -0.3345  0.2520
 9553TIP3    H150074   5.910   6.327  14.382 -1.1136  0.6892  3.3096
 9553TIP3    H250075   6.049   6.319  14.442  0.7215 -0.3221 -0.6916
 9554TIP3   OH250076   1.231   5.388  10.686  0.2293  0.1575 -0.1623
 9554TIP3    H150077   1.181   5.314  10.654 -1.1393  0.7538  0.5269
 9554TIP3    H250078   1.315   5.351  10.714 -0.6079 -1.1983  0.6213
 9555TIP3   OH250079   3.585   3.014  11.092 -0.2591  0.0034  0.2370
 9555TIP3    H150080   3.585   3.099  11.049  0.5912  0.1820  0.5833
 9555TIP3    H250081   3.627   2.955  11.029  0.2302  0.0939  0.4715
 9556TIP3   OH250082   5.377   4.661   1.884  0.9633 -0.3685 -0.0478
 9556TIP3    H150083   5.292   4.617   1.884  1.0040 -0.4550  0.7401
 9556TIP3    H250084   5.363   4.740   1.936  1.4018 -0.4652  0.2225
 9557TIP3   OH250085   2.611   0.874  12.746 -0.4769 -0.4249 -0.1338
 9557TIP3    H150086   2.561   0.829  12.678  0.6609 -1.5231 -0.2559
 9557TIP3    H250087   2.605   0.817  12.822 -2.5359  1.2351  1.0518
 9558TIP3   OH250088   2.593   2.827  15.556 -0.6087 -0.4089  0.1075
 9558TIP3    H150089   2.521   2.764  15.553 -0.3800 -0.6576 -0.3126
 9558TIP3    H250090   2.613   2.845  15.464 -0.0543 -0.4322  0.2180
 9559TIP3   OH250091   4.824   5.899  14.035  0.1513 -0.3133 -0.4096
 9559TIP3    H150092   4.749   5.844  14.013 -0.2649  0.0035  0.1802
 9559TIP3    H250093   4.785   5.985  14.052  0.9795  0.7729 -3.4165
 9560TIP3   OH250094   5.347   3.847   0.536 -0.9632 -0.2306  0.1261
 9560TIP3    H150095   5.352   3.839   0.631  0.0932  1.6808  0.2788
 9560TIP3    H250096   5.323   3.759   0.506 -2.4748 -0.6129  2.2025
 9561TIP3   OH250097   0.608   4.703  10.942 -0.4248 -0.1752 -0.2094
 9561TIP3    H150098   0.697   4.738  10.933 -0.6289  0.5578  0.4475
 9561TIP3    H250099   0.610   4.620  10.895  0.6615 -0.2647 -0.0445
 9562TIP3   OH250100   4.988   4.572  12.869 -0.2712 -0.4323 -0.0209
 9562TIP3    H150101   4.941   4.528  12.799 -1.2549 -0.3159  0.5483
 9562TIP3    H250102   5.042   4.504  12.909  0.7523 -0.3794 -1.2309
 9563TIP3   OH250103   0.182   4.504  12.028 -0.1550 -0.2862 -0.2499
 9563TIP3    H150104   0.213   4.595  12.025  0.4414 -0.4367  0.9627
 9563TIP3    H250105   0.143   4.490  11.942 -0.1398  1.0780 -0.5066
 9564TIP3   OH250106   5.096   0.240  15.289  0.5575 -0.3898  0.1627
 9564TIP3    H150107   5.108   0.309  15.223  0.6510  0.6034  1.1757
 9564TIP3    H250108   5.038   0.177  15.247 -1.6175  1.5623  0.0536
 9565TIP3   OH250109   5.698   3.252   4.561 -0.8612  0.3845 -0.3153
 9565TIP3    H150110   5.691   3.180   4.497 -1.2752 -0.6557  0.8603
 9565TIP3    H250111   5.714   3.330   4.507  0.7844 -0.7325 -1.5663
 9566TIP3   OH250112   6.189   1.430  12.136  0.0229 -0.0497  0.6597
 9566TIP3    H150113   6.100   1.444  12.103 -0.8186  0.3928  2.8979
 9566TIP3    H250114   6.237   1.508  12.108 -0.5009  0.0687  0.0650
 9567TIP3   OH250115   2.946   5.566   4.895 -0.1611 -0.4930  0.2630
 9567TIP3    H150116   2.981   5.625   4.828  0.1688  0.1794  1.0201
 9567TIP3    H250117   2.975   5.479   4.867 -1.2650 -0.4085 -1.2509
 9568TIP3   OH250118   2.551   2.259  16.094  0.4374  0.5317 -0.4198
 9568TIP3    H150119   2.594   2.344  16.104  0.6096  0.4159 -0.1913
 9568TIP3    H250120   2.478   2.262  16.156  1.4267 -0.1334  0.8376
 9569TIP3   OH250121   3.088   3.591  16.112  0.1407 -0.4400 -0.1931
 9569TIP3    H150122   3.115   3.679  16.136 -1.2647  0.3307 -1.2778
 9569TIP3    H250123   3.170   3.545  16.091  0.8987  0.5471  0.5321
 9570TIP3   OH250124   2.491   0.387   5.283 -0.1379  0.1220 -0.2347
 9570TIP3    H150125   2.513   0.324   5.351  1.5590  2.4598  1.5284
 9570TIP3    H250126   2.404   0.360   5.253  0.4338 -2.8973  0.4896
 9571TIP3   OH250127   2.429   1.208  12.610 -0.0249 -0.1482  0.1244
 9571TIP3    H150128   2.447   1.211  12.704  0.8355 -0.8606 -0.0062
 9571TIP3    H250129   2.360   1.142  12.601  0.1115 -0.3011  0.2150
 9572TIP3   OH250130   4.272   6.083   4.591  0.5518 -0.2301  0.6043
 9572TIP3    H150131   4.189   6.044   4.620  0.6393 -0.8777  0.0172
 9572TIP3    H250132   4.327   6.083   4.670 -0.3614  1.2401  1.2879
 9573TIP3   OH250133   6.647   2.046   4.717  0.0628 -0.0166  0.4845
 9573TIP3    H150134   6.734   2.077   4.741  0.1785 -0.2375  0.3568
 9573TIP3    H250135   6.588   2.094   4.774  0.2304  0.5156  0.2149
 9574TIP3   OH250136   1.570   3.617  16.093 -0.3536 -0.1452 -0.1311
 9574TIP3    H150137   1.652   3.667  16.090  0.1113 -0.8244  0.7510
 9574TIP3    H250138   1.569   3.578  16.180 -0.7180 -1.6250 -0.7638
 9575TIP3   OH250139   6.092   4.229   0.569 -0.4560  0.1620  0.3897
 9575TIP3    H150140   6.067   4.320   0.554 -5.1914 -1.1574 -1.4255
 9575TIP3    H250141   6.119   4.197   0.483 -1.8862 -0.8569  0.2906
 9576TIP3   OH250142   1.923   3.641  13.740 -0.1552 -0.1707 -0.0653
 9576TIP3    H150143   1.929   3.593  13.656 -2.5586 -0.6152 -0.0526
 9576TIP3    H250144   1.893   3.728  13.715  2.0883  0.7122  0.1196
 9577TIP3   OH250145   1.741   6.278   3.835  0.4301 -0.1095  0.0295
 9577TIP3    H150146   1.815   6.233   3.794  0.7069  1.5583 -1.3880
 9577TIP3    H250147   1.664   6.249   3.786  0.3915 -0.3338  0.2219
 9578TIP3   OH250148   5.296   5.836   0.054 -0.7457  0.1491 -0.0898
 9578TIP3    H150149   5.345   5.831  -0.028 -1.7499  0.0080 -0.7025
 9578TIP3    H250150   5.223   5.776   0.042 -0.4725 -0.4858  1.2365
 9579TIP3   OH250151   5.079   0.650   3.586  0.0917  0.0787 -0.0372
 9579TIP3    H150152   5.079   0.622   3.677 -1.4760 -1.2943 -0.4053
 9579TIP3    H250153   5.029   0.732   3.586 -0.7633 -0.4216  0.2397
 9580TIP3   OH250154   1.622   1.253   0.829 -0.7871 -0.8877 -0.0438
 9580TIP3    H150155   1.694   1.304   0.793 -1.1564 -0.0356  0.4080
 9580TIP3    H250156   1.636   1.254   0.923 -1.2879 -0.8617  0.0358
 9581TIP3   OH250157   3.140   5.566  11.024  0.1769  0.5975  0.4395
 9581TIP3    H150158   3.130   5.489  10.969 -2.1787  1.0724  0.0846
 9581TIP3    H250159   3.234   5.582  11.028  0.6490 -1.7087 -0.2519
 9582TIP3   OH250160   1.480   0.507  15.763 -0.2117 -0.4573  0.1422
 9582TIP3    H150161   1.456   0.496  15.855  0.5464  0.9994  0.5388
 9582TIP3    H250162   1.559   0.561  15.765 -1.0674  0.9143 -1.4219
 9583TIP3   OH250163   1.484   3.619   0.290  0.1024  0.6386 -0.3726
 9583TIP3    H150164   1.476   3.662   0.375  0.8936  0.1475 -0.0401
 9583TIP3    H250165   1.472   3.690   0.226 -0.5252  1.0012  0.1425
 9584TIP3   OH250166   3.333   4.155   3.359 -0.2458  0.3316  0.2098
 9584TIP3    H150167   3.273   4.087   3.328  0.3873 -0.5161  0.8006
 9584TIP3    H250168   3.382   4.181   3.281  0.7057 -1.1330  0.2945
 9585TIP3   OH250169   6.500   4.632  15.218 -0.2377  0.1566 -0.2009
 9585TIP3    H150170   6.558   4.662  15.148  0.5642 -0.8148  0.0228
 9585TIP3    H250171   6.525   4.684  15.294  0.7743 -0.6619  0.0477
 9586TIP3   OH250172   2.476   1.224  10.948 -0.3540  0.5673  0.3522
 9586TIP3    H150173   2.531   1.301  10.962  3.0063 -1.1365 -2.0814
 9586TIP3    H250174   2.451   1.230  10.856  0.5237 -1.4939 -0.0685
 9587TIP3   OH250175   2.975   2.104   2.807 -0.1233  0.3074 -0.1549
 9587TIP3    H150176   2.897   2.154   2.831  0.1130  0.6941 -0.1882
 9587TIP3    H250177   2.995   2.052   2.885 -1.6472 -1.4060 -0.8414
 9588TIP3   OH250178   1.660   6.146   2.573  0.1782  0.2137 -0.3802
 9588TIP3    H150179   1.610   6.071   2.606  0.5922  0.7383  1.5767
 9588TIP3    H250180   1.606   6.222   2.593  0.2973  0.5416 -1.2679
 9589TIP3   OH250181   2.252   3.646   0.146 -0.2170  0.2716 -0.9320
 9589TIP3    H150182   2.287   3.674   0.062  0.7129  0.6275 -0.4472
 9589TIP3    H250183   2.290   3.559   0.161  0.5502  0.6847 -0.3762
 9590TIP3   OH250184   6.200   3.961  16.917  0.5837  0.2309  0.1016
 9590TIP3    H150185   6.289   3.995  16.929  1.0813 -0.6106 -0.9128
 9590TIP3    H250186   6.173   3.932  17.004  0.4338  2.4492  0.8325
 9591TIP3   OH250187   2.375   3.416   1.523 -0.1592  0.7077  0.5118
 9591TIP3    H150188   2.356   3.331   1.484 -3.2367  0.9724  1.2348
 9591TIP3    H250189   2.464   3.406   1.558  0.4782 -1.3951 -1.4279
 9592TIP3   OH250190   5.854   4.648  16.709 -0.3375  0.3987 -0.1696
 9592TIP3    H150191   5.807   4.729  16.689  1.0511  1.3019  0.1059
 9592TIP3    H250192   5.820   4.622  16.795 -0.1873  1.1633  0.1312
 9593TIP3   OH250193   2.001   2.865   3.156  0.3204 -0.0648 -0.2251
 9593TIP3    H150194   1.927   2.867   3.216  0.6454 -0.5984  0.2042
 9593TIP3    H250195   1.966   2.829   3.075 -0.9849  3.8120 -1.6214
 9594TIP3   OH250196   6.768   0.242  13.731  0.2365 -0.7522 -0.0144
 9594TIP3    H150197   6.741   0.169  13.787 -0.2776  1.1245  2.3211
 9594TIP3    H250198   6.731   0.220  13.645 -1.9609 -2.1086  1.1828
 9595TIP3   OH250199   6.558   3.507   2.249 -0.1497  0.4778 -0.0237
 9595TIP3    H150200   6.512   3.436   2.203 -0.4020  0.9131 -0.4506
 9595TIP3    H250201   6.623   3.538   2.186  0.7529 -0.1272  0.5710
 9596TIP3   OH250202   1.883   2.594  12.049  0.1576  0.6455  0.5897
 9596TIP3    H150203   1.900   2.606  12.142  3.6471 -1.3567  0.3670
 9596TIP3    H250204   1.800   2.546  12.046  0.8420 -0.8115  2.7890
 9597TIP3   OH250205   1.478   4.846   0.011  0.4208  0.2580  0.2363
 9597TIP3    H150206   1.510   4.792  -0.061 -0.8513 -0.8037  0.4311
 9597TIP3    H250207   1.434   4.920  -0.033 -1.1901 -0.8710 -0.1514
 9598TIP3   OH250208   4.936   4.340   2.261  0.5089 -0.2418 -0.1572
 9598TIP3    H150209   5.028   4.330   2.286  1.2943  2.3021 -1.6842
 9598TIP3    H250210   4.924   4.275   2.192  2.2055  1.4402 -2.2096
 9599TIP3   OH250211   3.940   4.874   2.153 -0.6449  0.1824  0.0862
 9599TIP3    H150212   3.925   4.826   2.235 -1.1982 -0.4262 -0.3659
 9599TIP3    H250213   3.866   4.850   2.097  0.9802 -1.4382 -1.5352
 9600TIP3   OH250214   1.835   4.378  11.278  0.1669 -0.0824  0.1524
 9600TIP3    H150215   1.808   4.460  11.235  0.0627 -0.0179  0.3418
 9600TIP3    H250216   1.907   4.404  11.335 -0.3569  0.0173  0.7862
 9601TIP3   OH250217   5.618   1.837   0.557 -0.0047 -0.4740 -0.5761
 9601TIP3    H150218   5.694   1.800   0.602 -0.6887  0.5009  1.5443
 9601TIP3    H250219   5.544   1.785   0.589 -0.4426 -0.2596 -1.2147
 9602TIP3   OH250220   6.665   0.254  11.817  0.1525 -0.3532  0.2908
 9602TIP3    H150221   6.643   0.162  11.806 -0.2158 -0.4027  1.2690
 9602TIP3    H250222   6.598   0.302  11.767 -0.0156 -0.6011  0.2788
 9603TIP3   OH250223   1.287   4.590  10.360 -0.0682 -0.4870  0.5831
 9603TIP3    H150224   1.308   4.502  10.328  0.8675 -0.5635  1.3620
 9603TIP3    H250225   1.214   4.619  10.305  1.8932 -0.2906 -2.1256
 9604TIP3   OH250226   1.561   2.843   5.791 -0.8447  0.1257 -0.2517
 9604TIP3    H150227   1.641   2.893   5.806 -0.8245  0.2832 -0.8655
 9604TIP3    H250228   1.497   2.880   5.851 -0.9447  1.1590 -0.9812
 9605TIP3   OH250229   0.223   0.060  13.020  0.0024  0.8863 -0.0098
 9605TIP3    H150230   0.197   0.105  12.940  2.4226  0.2240 -1.2770
 9605TIP3    H250231   0.309   0.023  12.999 -0.6042 -1.8630  1.9098
 9606TIP3   OH250232   5.855   0.455  13.716  0.1193 -0.6691 -0.4066
 9606TIP3    H150233   5.949   0.471  13.713  0.1324 -0.1146  1.5996
 9606TIP3    H250234   5.816   0.535  13.679  0.4178 -0.0405  0.5905
 9607TIP3   OH250235   4.068   0.616  15.320 -0.0374  0.0800  0.1895
 9607TIP3    H150236   4.010   0.689  15.338 -1.8461 -1.2345 -0.0738
 9607TIP3    H250237   4.023   0.539  15.354  1.4986 -1.0205 -0.1173
 9608TIP3   OH250238   5.862   4.051  10.865  0.1483  0.1995 -0.0321
 9608TIP3    H150239   5.951   4.051  10.829  0.9589 -1.7311  1.7430
 9608TIP3    H250240   5.844   3.959  10.884 -2.3146  0.5358 -0.4446
 9609TIP3   OH250241   1.997   4.755   5.856 -0.2298 -0.3829 -0.0765
 9609TIP3    H150242   2.073   4.760   5.798 -0.2939  0.5563 -0.0976
 9609TIP3    H250243   2.024   4.695   5.925  0.8098  0.4814  0.2998
 9610TIP3   OH250244   6.535   0.217   1.588 -0.8715 -0.3895 -0.3149
 9610TIP3    H150245   6.467   0.223   1.655 -0.3966  0.1711  0.1293
 9610TIP3    H250246   6.616   0.235   1.635 -0.3996 -1.1933 -0.8135
 9611TIP3   OH250247   6.134   1.855   3.076  0.3864  0.5606 -0.3284
 9611TIP3    H150248   6.111   1.936   3.032 -3.3449 -0.8348 -1.3429
 9611TIP3    H250249   6.169   1.799   3.006 -1.5998 -0.2395 -0.7459
 9612TIP3   OH250250   4.404   2.072   6.735  0.3525  0.3495 -0.3331
 9612TIP3    H150251   4.311   2.058   6.717  0.8117 -2.1671 -1.0775
 9612TIP3    H250252   4.408   2.082   6.830 -0.4621 -2.1143  0.0246
 9613TIP3   OH250253   6.059   5.995   3.958 -0.4797 -0.1554 -0.2302
 9613TIP3    H150254   6.110   5.916   3.938  1.7647  1.3460 -0.7784
 9613TIP3    H250255   6.033   5.983   4.050  0.6719 -1.0907  0.0053
 9614TIP3   OH250256   4.371   6.160  13.118  0.4999  1.1245  0.3793
 9614TIP3    H150257   4.360   6.161  13.213 -1.4594  0.3387  0.2063
 9614TIP3    H250258   4.353   6.250  13.092 -0.4780  1.0193  0.6387
 9615TIP3   OH250259   3.912   1.053   4.944 -0.5741 -0.0725  0.5761
 9615TIP3    H150260   3.884   1.123   4.885  1.4294 -0.2873 -0.7437
 9615TIP3    H250261   3.865   0.975   4.914  0.3427 -0.1583 -0.7704
 9616TIP3   OH250262   1.701   1.380   3.789 -0.1038 -0.1985 -0.2897
 9616TIP3    H150263   1.685   1.372   3.883  0.5096 -0.4459 -0.2029
 9616TIP3    H250264   1.660   1.464   3.765  0.2285  0.1399  0.3058
 9617TIP3   OH250265   0.276   2.753  12.729 -0.0038 -0.1853 -0.2892
 9617TIP3    H150266   0.190   2.738  12.770 -0.2454  1.3019 -0.1888
 9617TIP3    H250267   0.256   2.791  12.644  0.5450  0.6280 -0.0699
 9618TIP3   OH250268   6.513   2.458   4.094 -0.1214 -0.0609  0.2286
 9618TIP3    H150269   6.493   2.459   4.188 -0.5274 -0.6322  0.1571
 9618TIP3    H250270   6.530   2.366   4.075 -2.1126 -0.3056 -0.6603
 9619TIP3   OH250271   4.790   0.018  14.481  0.2637  0.0982 -1.0068
 9619TIP3    H150272   4.770   0.022  14.388  0.1530  1.9574 -0.9393
 9619TIP3    H250273   4.833   0.101  14.500  0.5156 -0.3511  0.5620
 9620TIP3   OH250274   5.240   2.088  11.723  0.2615 -0.2492 -0.0131
 9620TIP3    H150275   5.173   2.029  11.688  0.0566 -0.4847  0.7476
 9620TIP3    H250276   5.273   2.043  11.800 -0.5144  1.0010  1.0962
 9621TIP3   OH250277   0.857   1.403   6.343  0.2004  0.3789 -0.2911
 9621TIP3    H150278   0.858   1.308   6.358 -1.5687  0.4565  0.5079
 9621TIP3    H250279   0.883   1.441   6.427  0.5830  0.6190 -0.5143
 9622TIP3   OH250280   3.822   0.667   4.473  0.4479  0.0962 -0.4071
 9622TIP3    H150281   3.867   0.586   4.498 -0.0069  0.0412  0.2480
 9622TIP3    H250282   3.883   0.737   4.498  0.0784  0.0355  0.7516
 9623TIP3   OH250283   4.143   5.599   2.759  0.2358 -0.3844  0.0575
 9623TIP3    H150284   4.216   5.596   2.697  1.4864  0.4013  1.4203
 9623TIP3    H250285   4.138   5.510   2.794 -0.2508 -0.7423 -0.8931
 9624TIP3   OH250286   1.422   0.500   0.939 -0.1433  0.1723  0.4621
 9624TIP3    H150287   1.408   0.509   1.033  0.7439 -0.4824  0.6750
 9624TIP3    H250288   1.386   0.580   0.901 -2.1561 -0.3224  1.1611
 9625TIP3   OH250289   2.768   3.868  15.346 -0.6454  0.4615  0.4599
 9625TIP3    H150290   2.763   3.962  15.326 -0.0881  0.4617  0.2968
 9625TIP3    H250291   2.802   3.865  15.436  1.4896  0.4093 -0.2823
 9626TIP3   OH250292   1.623   1.020   1.219 -0.6474  0.0007 -0.6589
 9626TIP3    H150293   1.702   1.028   1.165 -1.3602  0.4052 -1.6641
 9626TIP3    H250294   1.649   0.961   1.290  1.1306  1.5973  0.0984
 9627TIP3   OH250295   2.821   2.108   0.867 -0.0063 -0.1195  0.2143
 9627TIP3    H150296   2.829   2.012   0.866  1.2659 -0.0206  0.0661
 9627TIP3    H250297   2.896   2.139   0.817 -1.2818  0.9282 -1.1078
 9628TIP3   OH250298   4.731   6.501  14.620 -0.0745  0.3305 -0.3894
 9628TIP3    H150299   4.724   6.594  14.601 -0.6888  0.1634 -1.0089
 9628TIP3    H250300   4.820   6.490  14.655 -0.1664  1.2151  0.1283
 9629TIP3   OH250301   5.535   0.663   5.274 -0.5861  1.1400  0.2818
 9629TIP3    H150302   5.619   0.637   5.311  0.3332  2.4713 -0.7656
 9629TIP3    H250303   5.547   0.658   5.180 -1.9277  0.6707  0.1160
 9630TIP3   OH250304   0.744   0.161   0.889 -0.2961 -0.4324 -0.4753
 9630TIP3    H150305   0.729   0.254   0.909 -2.6920 -1.0468  0.8785
 9630TIP3    H250306   0.823   0.139   0.938  0.7116  1.0122 -1.3645
 9631TIP3   OH250307   2.037   5.512   2.264  0.5656 -0.1231  0.0627
 9631TIP3    H150308   2.043   5.553   2.350 -1.4825  0.9901 -0.2448
 9631TIP3    H250309   2.095   5.564   2.208  0.0360  0.7197  0.2705
 9632TIP3   OH250310   6.101   2.558  13.953  0.2830 -0.2743  0.6338
 9632TIP3    H150311   6.113   2.591  13.864 -1.6550 -0.9762  0.0567
 9632TIP3    H250312   6.149   2.475  13.955  1.0411  0.1514  0.5365
 9633TIP3   OH250313   0.430   0.601   3.339  0.5974  0.8924 -0.7980
 9633TIP3    H150314   0.525   0.600   3.332  0.6557  0.3146 -0.0287
 9633TIP3    H250315   0.412   0.650   3.419  0.1966  1.9349 -1.5029
 9634TIP3   OH250316   3.995   6.339   6.170  0.1745 -0.3954  0.2310
 9634TIP3    H150317   3.955   6.379   6.248  0.6425  1.3148 -0.3504
 9634TIP3    H250318   4.031   6.256   6.201 -1.8511 -0.9473  1.2569
 9635TIP3   OH250319   1.250   1.208  12.871 -0.0277 -0.5448 -0.5034
 9635TIP3    H150320   1.251   1.300  12.898 -1.0134 -0.6441 -0.0733
 9635TIP3    H250321   1.226   1.161  12.951  0.3582 -1.1698 -0.7496
 9636TIP3   OH250322   5.546   2.439  14.731  0.2127 -0.0090 -0.3144
 9636TIP3    H150323   5.619   2.397  14.777  0.4617 -1.0814 -1.6107
 9636TIP3    H250324   5.516   2.508  14.790  1.0207 -0.8122  1.0834
 9637TIP3   OH250325   5.071   1.597  15.754 -0.4407  0.1553 -0.0399
 9637TIP3    H150326   5.005   1.641  15.808  0.5018  0.1245  1.1884
 9637TIP3    H250327   5.050   1.504  15.761 -0.8495  0.2119 -0.4677
 9638TIP3   OH250328   5.813   6.720   5.606 -0.5560  0.5054 -0.2668
 9638TIP3    H150329   5.883   6.772   5.566 -1.3053  1.9792  0.2702
 9638TIP3    H250330   5.857   6.644   5.644  0.8506  1.7307  0.6280
 9639TIP3   OH250331   2.957   3.665   4.584 -0.0871  0.0363 -0.3450
 9639TIP3    H150332   2.885   3.602   4.574  0.0740 -0.1889 -0.0767
 9639TIP3    H250333   2.939   3.731   4.517 -0.3515 -0.2026 -0.5144
 9640TIP3   OH250334   4.645   1.357  14.159 -0.3086 -0.2613 -0.0077
 9640TIP3    H150335   4.647   1.357  14.255 -0.1700 -2.1371  0.0240
 9640TIP3    H250336   4.569   1.303  14.137 -0.4930  0.3661 -0.9720
 9641TIP3   OH250337   6.597   0.288   5.230  0.2523 -0.1503 -0.0188
 9641TIP3    H150338   6.659   0.273   5.301  0.4460 -1.7179 -0.4916
 9641TIP3    H250339   6.513   0.304   5.274  0.0490 -2.5720  0.5913
 9642TIP3   OH250340   1.401   3.521  13.694  0.1500 -0.2864 -0.1569
 9642TIP3    H150341   1.353   3.579  13.753  1.4030  0.0301  0.5738
 9642TIP3    H250342   1.347   3.518  13.615 -0.2560  1.3694  0.0191
 9643TIP3   OH250343   2.354   0.901  16.437 -0.0097 -0.5178  0.4258
 9643TIP3    H150344   2.369   0.807  16.427  1.0736 -0.6073  2.4139
 9643TIP3    H250345   2.259   0.911  16.431 -0.3222 -2.0367  2.1216
 9644TIP3   OH250346   1.661   5.278  16.564 -0.1150  0.0456 -0.4564
 9644TIP3    H150347   1.727   5.275  16.494 -0.6134 -1.3562 -0.8893
 9644TIP3    H250348   1.671   5.366  16.601  1.3209  0.2192 -1.1570
 9645TIP3   OH250349   6.333   2.392  15.555 -0.1882  0.0664  0.1943
 9645TIP3    H150350   6.379   2.419  15.475 -0.2804 -0.4594 -0.0365
 9645TIP3    H250351   6.283   2.470  15.580 -0.8154 -0.0207 -0.7298
 9646TIP3   OH250352   1.170   4.409  10.597 -0.8609 -0.1709 -0.9563
 9646TIP3    H150353   1.141   4.496  10.626  0.0049 -0.0409 -0.4223
 9646TIP3    H250354   1.098   4.375  10.544 -2.2895 -0.1619  0.8887
 9647TIP3   OH250355   1.698   4.179   3.034 -0.1895  0.1893  0.1134
 9647TIP3    H150356   1.718   4.246   2.969 -0.5045  0.2690  0.0982
 9647TIP3    H250357   1.646   4.225   3.100  0.7824  0.2968  0.8164
 9648TIP3   OH250358   5.124   4.263   4.898 -0.0720 -0.0623 -0.0273
 9648TIP3    H150359   5.042   4.225   4.928  0.0577 -1.5550 -1.4267
 9648TIP3    H250360   5.164   4.195   4.843  1.4004  1.1663 -0.5587
 9649TIP3   OH250361   6.762   3.382   4.526  0.3960  0.0561 -0.0668
 9649TIP3    H150362   6.808   3.437   4.590  0.4031 -0.6903  0.5921
 9649TIP3    H250363   6.676   3.366   4.566  0.3547 -0.3165 -0.2970
 9650TIP3   OH250364   4.349   4.503   0.926  0.7105  0.1604  0.5029
 9650TIP3    H150365   4.320   4.591   0.903 -1.1511 -0.1158  1.6084
 9650TIP3    H250366   4.292   4.445   0.875  0.5141 -0.3944  1.3402
 9651TIP3   OH250367   0.620   3.189   3.978 -0.3142  0.2455 -0.2177
 9651TIP3    H150368   0.612   3.174   4.072 -3.4126 -0.9643 -0.5335
 9651TIP3    H250369   0.587   3.109   3.938 -1.5314  1.6644 -2.2791
 9652TIP3   OH250370   5.184   4.289  11.196 -0.4442  0.2424  0.6684
 9652TIP3    H150371   5.258   4.246  11.239  0.8506  1.1467 -0.5769
 9652TIP3    H250372   5.153   4.224  11.132 -0.6811 -0.1065  1.1339
 9653TIP3   OH250373   5.620   1.256  13.319 -0.7058  0.5028  0.3478
 9653TIP3    H150374   5.615   1.198  13.395  0.9075  0.9270  0.8087
 9653TIP3    H250375   5.529   1.267  13.291 -1.1713 -1.0741  1.1321
 9654TIP3   OH250376   4.272   1.697   5.550 -0.2143 -0.5722  0.3666
 9654TIP3    H150377   4.331   1.772   5.556 -0.4851 -0.3582  0.3813
 9654TIP3    H250378   4.330   1.621   5.541  0.0618 -0.3676  0.4121
 9655TIP3   OH250379   3.981   0.969   3.288 -0.3400 -0.2028 -0.7724
 9655TIP3    H150380   3.964   0.897   3.226  0.8525  0.6223 -2.1236
 9655TIP3    H250381   3.957   1.048   3.240 -0.8982  0.3735  0.4166
 9656TIP3   OH250382   4.551   2.335  12.931  0.5036  0.1445 -0.1321
 9656TIP3    H150383   4.559   2.271  13.002  0.2462  0.1852 -0.0632
 9656TIP3    H250384   4.557   2.284  12.851  0.1286  0.0095 -0.0770
 9657TIP3   OH250385   4.788   1.797   1.551 -0.1871  0.4093 -0.1223
 9657TIP3    H150386   4.775   1.882   1.508  0.5091  1.0322  0.8492
 9657TIP3    H250387   4.768   1.815   1.643 -0.5748 -0.6247  0.0040
 9658TIP3   OH250388   0.844   2.971  13.060  0.6026 -0.3674 -0.0383
 9658TIP3    H150389   0.781   2.917  13.108  2.0999 -1.1740  1.0791
 9658TIP3    H250390   0.890   3.020  13.129  1.5446 -0.1624 -0.8028
 9659TIP3   OH250391   6.493   2.620  14.815  0.3712  0.0653 -0.5279
 9659TIP3    H150392   6.584   2.621  14.786  0.3550  0.2713 -0.5745
 9659TIP3    H250393   6.444   2.594  14.738  0.2520  1.3549 -0.9183
 9660TIP3   OH250394   3.192   3.958  14.881 -0.4883 -0.4657 -0.3658
 9660TIP3    H150395   3.214   3.893  14.948  1.0327 -0.5981 -0.9562
 9660TIP3    H250396   3.168   3.906  14.804 -0.4265 -0.3312 -0.4765
 9661TIP3   OH250397   2.597   4.648  12.211 -0.1768  0.3132 -0.0293
 9661TIP3    H150398   2.669   4.587  12.223 -1.0374 -0.7480 -0.1366
 9661TIP3    H250399   2.543   4.638  12.289 -1.7183 -1.0180 -1.2165
 9662TIP3   OH250400   5.934   5.798  14.135 -0.3580  0.3841 -0.2202
 9662TIP3    H150401   5.944   5.880  14.183  0.5199 -0.6718  1.5095
 9662TIP3    H250402   5.860   5.755  14.176  0.5120 -0.6150  0.3462
 9663TIP3   OH250403   6.341   2.102  13.376 -0.0000 -0.1223 -0.1639
 9663TIP3    H150404   6.277   2.085  13.306 -0.4741 -0.8083  0.4169
 9663TIP3    H250405   6.423   2.068  13.342  0.2720  1.4976 -1.2548
 9664TIP3   OH250406   2.148   0.721   5.965  0.6155 -0.3534 -0.1055
 9664TIP3    H150407   2.226   0.741   6.017  0.5405 -1.5837  0.5273
 9664TIP3    H250408   2.155   0.627   5.946 -0.4791 -0.3850 -0.4268
 9665TIP3   OH250409   2.949   5.681   4.018 -0.4535 -0.1689 -0.6272
 9665TIP3    H150410   3.016   5.675   4.085  0.5619 -1.4997 -1.7163
 9665TIP3    H250411   2.948   5.774   3.993  1.5651 -0.2490 -1.1456
 9666TIP3   OH250412   3.322   0.344  11.548  0.0362  0.1898  0.4500
 9666TIP3    H150413   3.410   0.311  11.564  0.2704  0.5945  0.0230
 9666TIP3    H250414   3.270   0.267  11.526  1.2436  0.3458 -3.6185
 9667TIP3   OH250415   1.041   2.687  13.492  0.7731  0.0250 -0.1493
 9667TIP3    H150416   1.082   2.671  13.577 -0.3576  1.1341  0.6451
 9667TIP3    H250417   1.021   2.780  13.492  1.7830  0.2928 -2.1383
 9668TIP3   OH250418   3.357   5.686  14.872 -0.1910  0.2397  0.3575
 9668TIP3    H150419   3.363   5.730  14.787 -2.3088 -1.7866 -0.9351
 9668TIP3    H250420   3.409   5.741  14.931 -0.4607  2.9137 -1.7336
 9669TIP3   OH250421   6.561   1.308  12.054  0.3130  0.3608  0.0392
 9669TIP3    H150422   6.648   1.321  12.092  0.1591 -0.8327  0.8642
 9669TIP3    H250423   6.570   1.230  12.000 -0.5597 -0.6418  1.2718
 9670TIP3   OH250424   3.084   0.437   3.858 -0.0942 -0.7353 -0.2666
 9670TIP3    H150425   3.050   0.443   3.768 -0.9202  1.2540  0.1297
 9670TIP3    H250426   3.077   0.526   3.892  1.1578 -1.2493  1.4567
 9671TIP3   OH250427   2.420   3.733   5.903 -0.7239  0.0952 -0.1903
 9671TIP3    H150428   2.447   3.808   5.850  0.2817 -0.9136 -1.1493
 9671TIP3    H250429   2.471   3.742   5.984  1.0644 -0.6971 -1.1821
 9672TIP3   OH250430   4.679   1.017  12.074  0.1697 -0.4712  0.6368
 9672TIP3    H150431   4.698   1.069  12.152 -0.7447 -0.4001  0.8224
 9672TIP3    H250432   4.660   1.081  12.006 -0.2553 -0.5466  0.6818
 9673TIP3   OH250433   3.478   1.709   4.949  0.2705 -0.4420 -0.7173
 9673TIP3    H150434   3.462   1.739   5.038  1.4420  1.1195 -0.9879
 9673TIP3    H250435   3.435   1.623   4.944  1.5765 -1.3442  1.8581
 9674TIP3   OH250436   1.444   6.442  15.304  0.0895  0.1122  0.3807
 9674TIP3    H150437   1.367   6.389  15.325 -1.1873  2.5514  2.3363
 9674TIP3    H250438   1.516   6.401  15.353  0.2175 -2.2364 -1.5354
 9675TIP3   OH250439   0.922   1.543   2.273 -0.4761 -0.4034 -0.5175
 9675TIP3    H150440   0.831   1.531   2.246 -0.9149  0.5298  0.5077
 9675TIP3    H250441   0.965   1.581   2.196 -0.6147 -2.0714 -1.4733
 9676TIP3   OH250442   1.891   0.137   3.179 -0.8141  0.6544 -0.0881
 9676TIP3    H150443   1.897   0.089   3.261  1.6903  0.8830 -0.0637
 9676TIP3    H250444   1.844   0.217   3.201 -0.9191  0.3244  0.9220
 9677TIP3   OH250445   0.591   4.213  13.364  0.5194 -0.3411  0.1342
 9677TIP3    H150446   0.504   4.243  13.340  0.2877 -1.0626  0.0298
 9677TIP3    H250447   0.606   4.248  13.452  1.2268  2.0297 -0.8435
 9678TIP3   OH250448   4.861   1.553   1.142 -0.0682 -0.0205  0.7918
 9678TIP3    H150449   4.949   1.583   1.121 -0.1100 -1.5527 -2.0604
 9678TIP3    H250450   4.803   1.617   1.101 -0.2169 -0.4698  0.2836
 9679TIP3   OH250451   1.955   5.629   4.077 -0.2354  0.3322 -0.0732
 9679TIP3    H150452   1.966   5.706   4.133  1.7750  1.6454 -2.0893
 9679TIP3    H250453   2.032   5.630   4.020 -1.0422 -2.2007 -1.3460
 9680TIP3   OH250454   1.855   4.763   3.441 -0.2200  0.2821 -0.2054
 9680TIP3    H150455   1.800   4.793   3.513 -0.7050  0.1080 -0.5005
 9680TIP3    H250456   1.902   4.841   3.413  0.5534  0.2017  0.7935
 9681TIP3   OH250457   6.084   5.948   3.455 -0.5187 -0.1542 -0.0402
 9681TIP3    H150458   6.025   5.925   3.383  0.0247  0.2148 -0.6144
 9681TIP3    H250459   6.149   5.877   3.455  1.5782  1.5750 -2.2734
 9682TIP3   OH250460   2.845   3.803  13.726  0.3053  0.6504  0.5167
 9682TIP3    H150461   2.774   3.741  13.740  0.2060  0.4042 -0.9765
 9682TIP3    H250462   2.879   3.820  13.814  0.3489 -1.5050  0.9731
 9683TIP3   OH250463   5.093   1.811   4.943 -0.3975  0.0111  0.3957
 9683TIP3    H150464   5.170   1.868   4.933  0.7801 -1.3025  1.4844
 9683TIP3    H250465   5.125   1.724   4.920 -1.2454 -0.7549  1.9728
 9684TIP3   OH250466   5.878   0.999   6.266  0.3782 -0.1838 -0.2284
 9684TIP3    H150467   5.898   0.906   6.258  2.7379  0.3489 -1.4005
 9684TIP3    H250468   5.964   1.042   6.270 -0.6062  2.0467 -1.1880
 9685TIP3   OH250469   4.509   2.351  12.350  0.7111  0.0889  0.1950
 9685TIP3    H150470   4.466   2.407  12.415 -0.3624 -2.1221  1.5349
 9685TIP3    H250471   4.472   2.264  12.365  1.5385 -0.8215 -2.4526
 9686TIP3   OH250472   1.700   2.351  12.871 -0.1842 -0.1019 -0.3295
 9686TIP3    H150473   1.606   2.342  12.889 -0.6470  1.9249 -1.4591
 9686TIP3    H250474   1.741   2.350  12.957 -1.2297 -0.9775  0.1905
 9687TIP3   OH250475   3.974   3.130   1.699 -0.1538 -0.4892 -0.6753
 9687TIP3    H150476   3.901   3.109   1.641 -0.2728  0.1141 -0.7492
 9687TIP3    H250477   3.935   3.130   1.787 -0.5411  1.0439 -0.8103
 9688TIP3   OH250478   1.856   2.916  16.122  0.2276 -0.1194  0.2755
 9688TIP3    H150479   1.780   2.917  16.064  1.6601 -2.4065 -1.7889
 9688TIP3    H250480   1.818   2.918  16.210 -2.1225  0.5557 -0.6760
 9689TIP3   OH250481   6.689   6.276  12.770 -0.3405  0.0742  0.4167
 9689TIP3    H150482   6.742   6.220  12.827  0.2473  0.5699  0.3743
 9689TIP3    H250483   6.599   6.251  12.789 -0.1107 -0.5512  0.7430
 9690TIP3   OH250484   3.516   2.269  10.631 -0.5255  0.2394 -0.4475
 9690TIP3    H150485   3.476   2.241  10.548 -0.1103  0.5656 -0.7603
 9690TIP3    H250486   3.492   2.361  10.640 -1.1914  0.0180  0.1700
 9691TIP3   OH250487   1.007   1.524  13.978  0.2141 -0.1660 -0.1181
 9691TIP3    H150488   1.022   1.487  13.891  2.5879  1.0017 -0.2926
 9691TIP3    H250489   1.092   1.518  14.022  0.3331  3.3381  0.4591
 9692TIP3   OH250490   1.661   5.131  12.412 -0.1781 -0.1319  0.1497
 9692TIP3    H150491   1.624   5.196  12.353  0.1195  1.3048  1.4835
 9692TIP3    H250492   1.743   5.105  12.370  0.4468  1.4903  0.3101
 9693TIP3   OH250493   3.684   2.088  10.298  0.4312 -0.0786  0.2131
 9693TIP3    H150494   3.742   2.149  10.253  0.8733  1.2458  2.4473
 9693TIP3    H250495   3.739   2.047  10.365 -0.8970  0.3860  1.6514
 9694TIP3   OH250496   0.763   3.094  12.311  0.3802  0.2513 -0.7389
 9694TIP3    H150497   0.696   3.160  12.331  0.6788  0.5374 -0.6684
 9694TIP3    H250498   0.755   3.080  12.216 -3.1684 -3.4167 -0.1693
 9695TIP3   OH250499   5.233   3.932  16.246  0.4752  0.2837  0.5269
 9695TIP3    H150500   5.229   4.016  16.291  1.0086 -0.6024  2.3148
 9695TIP3    H250501   5.323   3.926  16.213  0.5418  0.2589  0.7142
 9696TIP3   OH250502   6.601   5.231   5.701 -0.1959 -0.8391  0.6247
 9696TIP3    H150503   6.628   5.313   5.742 -0.4240 -0.3798 -0.1373
 9696TIP3    H250504   6.593   5.251   5.608  1.5265 -2.1818  0.1423
 9697TIP3   OH250505   2.396   5.329  11.869  0.1330  0.7310 -0.3139
 9697TIP3    H150506   2.399   5.424  11.880 -1.8906  1.0133 -1.7116
 9697TIP3    H250507   2.426   5.315  11.779 -0.1873  0.1001 -0.3262
 9698TIP3   OH250508   2.193   2.210  14.520 -0.1393 -0.2770 -0.1329
 9698TIP3    H150509   2.203   2.302  14.498  1.0521 -0.6869 -1.4662
 9698TIP3    H250510   2.177   2.209  14.614 -2.6717  1.4172 -0.4474
 9699TIP3   OH250511   0.502   1.412  12.179  0.3526 -1.1487 -0.0883
 9699TIP3    H150512   0.521   1.491  12.229 -0.5896 -0.6486 -0.4979
 9699TIP3    H250513   0.558   1.345  12.218  1.3841 -0.2180  0.0684
 9700TIP3   OH250514   0.332   6.227   1.207 -0.1235 -0.4516 -0.2072
 9700TIP3    H150515   0.306   6.209   1.116 -0.8675 -2.0059  0.2848
 9700TIP3    H250516   0.290   6.310   1.228  0.7061  0.3356 -1.5264
 9701TIP3   OH250517   2.189   2.494   2.824 -0.2402  0.2530  0.5385
 9701TIP3    H150518   2.097   2.508   2.847 -0.9643  0.2542 -2.0265
 9701TIP3    H250519   2.197   2.530   2.735  1.9074 -0.9592  0.1814
 9702TIP3   OH250520   4.762   2.695  16.822 -1.0684 -0.3450 -0.2358
 9702TIP3    H150521   4.731   2.767  16.767  0.4618 -0.1172 -0.8518
 9702TIP3    H250522   4.819   2.644  16.764 -0.7237 -1.0398  0.6908
 9703TIP3   OH250523   0.627   0.976   2.583  0.3622  0.2990  0.3194
 9703TIP3    H150524   0.584   0.946   2.664 -0.1785  0.2897  0.0345
 9703TIP3    H250525   0.697   1.034   2.614  1.8308 -1.7035  0.9069
 9704TIP3   OH250526   4.054   4.144  17.042 -0.3668 -0.0670  0.2094
 9704TIP3    H150527   4.147   4.160  17.054 -0.4988 -0.4248  2.1245
 9704TIP3    H250528   4.050   4.062  16.992  0.4809 -2.1711  3.2579
 9705TIP3   OH250529   5.059   5.961  13.946 -0.5613 -0.1645 -0.7685
 9705TIP3    H150530   4.969   5.944  13.974 -0.0952 -1.3286  0.0791
 9705TIP3    H250531   5.104   5.877  13.956  0.5194  0.2956 -1.5882
 9706TIP3   OH250532   4.329   4.333   5.331  0.0309 -0.0577  0.1874
 9706TIP3    H150533   4.323   4.397   5.259  1.9086  1.5594  1.3435
 9706TIP3    H250534   4.420   4.303   5.328 -0.6077 -2.1010  0.1998
 9707TIP3   OH250535   5.676   3.236   5.830  0.0850 -0.1726  0.1571
 9707TIP3    H150536   5.699   3.271   5.916 -0.6113 -0.5580  0.5172
 9707TIP3    H250537   5.725   3.154   5.824  0.1815 -0.1150  0.1642
 9708TIP3   OH250538   6.775   3.096   1.405 -0.3206  0.2323  1.0573
 9708TIP3    H150539   6.810   3.026   1.460  1.9846 -0.3140 -0.9064
 9708TIP3    H250540   6.794   3.176   1.454 -0.1392 -0.3299  1.9320
 9709TIP3   OH250541   2.193   5.203   2.870 -0.2650  0.4287 -0.1885
 9709TIP3    H150542   2.190   5.279   2.812 -0.8653  0.2487 -0.3958
 9709TIP3    H250543   2.265   5.223   2.931 -0.1054  0.9439 -0.5362
 9710TIP3   OH250544   2.938   0.855  16.340 -0.4216 -0.5108  0.5254
 9710TIP3    H150545   2.975   0.813  16.418 -0.6035  0.3088  1.0738
 9710TIP3    H250546   2.965   0.946  16.347 -1.3225 -0.1991  0.1869
 9711TIP3   OH250547   1.097   4.490   1.137 -0.7449 -0.3426 -0.0756
 9711TIP3    H150548   1.117   4.544   1.214 -1.5968  0.9887 -0.7397
 9711TIP3    H250549   1.182   4.467   1.101 -0.3471 -0.5106  0.9505
 9712TIP3   OH250550   4.281   6.188   2.177  0.0479  0.4239 -0.2604
 9712TIP3    H150551   4.199   6.151   2.211  0.3707  0.5467  0.7066
 9712TIP3    H250552   4.329   6.111   2.145 -0.2409  0.2928 -0.3900
 9713TIP3   OH250553   5.741   1.988  11.313 -0.5040  0.1175 -0.2552
 9713TIP3    H150554   5.690   2.011  11.235 -0.8295  1.6845  0.3664
 9713TIP3    H250555   5.830   1.974  11.281 -0.9315 -0.7311 -1.0988
 9714TIP3   OH250556   3.255   3.819  12.938  0.5255  0.5101 -0.0693
 9714TIP3    H150557   3.205   3.741  12.916  0.8283  0.7567 -1.7871
 9714TIP3    H250558   3.347   3.790  12.934  0.6266  0.8623 -0.4100
 9715TIP3   OH250559   5.848   2.384  15.741 -0.2550 -0.6842  0.6486
 9715TIP3    H150560   5.760   2.352  15.722  0.7939 -2.0654 -2.4896
 9715TIP3    H250561   5.900   2.305  15.757  0.6549  0.0353  1.3893
 9716TIP3   OH250562   3.712   4.912   2.741 -0.5036 -0.6454  0.6546
 9716TIP3    H150563   3.654   4.878   2.673 -1.0964 -1.0621  1.3551
 9716TIP3    H250564   3.798   4.918   2.699 -1.0264 -0.0973 -0.3780
 9717TIP3   OH250565   0.622   4.591  11.262 -0.5785 -0.0219  0.5106
 9717TIP3    H150566   0.633   4.566  11.171 -1.7571 -0.1384  0.3806
 9717TIP3    H250567   0.710   4.613  11.292 -0.1395 -0.2398 -0.5712
 9718TIP3   OH250568   5.457   5.082  12.317  0.4116  0.4551  0.0215
 9718TIP3    H150569   5.441   5.125  12.233  0.1618  1.1993  0.4447
 9718TIP3    H250570   5.376   5.033  12.334  0.1984  0.8551  0.1577
 9719TIP3   OH250571   4.930   2.190   2.487 -0.1787 -0.0310  0.2153
 9719TIP3    H150572   4.948   2.284   2.498  0.1484 -0.2001  1.2199
 9719TIP3    H250573   4.870   2.186   2.413  0.0404  0.9499 -0.0373
 9720TIP3   OH250574   3.397   0.594  15.944 -0.2733  0.0498  0.6396
 9720TIP3    H150575   3.462   0.617  16.010 -1.4909  0.6655  1.6619
 9720TIP3    H250576   3.362   0.510  15.972  0.2163 -0.3967 -0.0413
 9721TIP3   OH250577   2.839   1.374   4.003 -0.4610 -0.1485  0.5050
 9721TIP3    H150578   2.746   1.352   4.000 -0.6276  0.3967  1.2073
 9721TIP3    H250579   2.864   1.358   4.094  0.3564 -1.1168  0.1214
 9722TIP3   OH250580   0.237   5.223  12.162  0.2932  0.3009  0.1298
 9722TIP3    H150581   0.230   5.312  12.195 -1.0498  0.3571 -0.2424
 9722TIP3    H250582   0.233   5.168  12.240  1.1710  0.5551  0.3635
 9723TIP3   OH250583   1.332   3.357  16.740  0.5206  0.1971  0.2195
 9723TIP3    H150584   1.349   3.265  16.759  0.1429 -0.1482 -1.0542
 9723TIP3    H250585   1.372   3.373  16.655 -2.7507  0.1362 -1.4728
 9724TIP3   OH250586   2.846   0.827  12.170 -0.6402 -0.6828 -0.4466
 9724TIP3    H150587   2.762   0.871  12.157  0.3587  1.4154 -0.2531
 9724TIP3    H250588   2.842   0.793  12.260 -0.5033  1.3179  0.3560
 9725TIP3   OH250589   0.485   4.407  10.660  0.0907  0.2232  0.0812
 9725TIP3    H150590   0.495   4.349  10.585 -0.0394  0.2030  0.0805
 9725TIP3    H250591   0.396   4.442  10.652  0.3118  0.7482 -0.1523
 9726TIP3   OH250592   5.104   2.413  14.128 -0.6681 -0.0997  0.5665
 9726TIP3    H150593   5.173   2.359  14.166  0.4674  1.6512  1.1255
 9726TIP3    H250594   5.149   2.470  14.066 -1.8646  0.0328 -0.2151
 9727TIP3   OH250595   5.440   0.451   6.622  0.0383 -0.0047 -0.1321
 9727TIP3    H150596   5.401   0.499   6.549 -0.4539  1.2527  0.9161
 9727TIP3    H250597   5.484   0.518   6.674 -1.9872 -0.3478  2.2238
 9728TIP3   OH250598   5.457   3.867   6.451 -0.0463 -0.5011 -0.0216
 9728TIP3    H150599   5.542   3.827   6.432 -1.6465 -4.1092 -0.3649
 9728TIP3    H250600   5.466   3.901   6.540  1.4491 -1.8425  0.3947
 9729TIP3   OH250601   1.569   4.300  12.685  0.7060  0.3199 -0.0434
 9729TIP3    H150602   1.539   4.344  12.605  0.0002  1.2522  0.7135
 9729TIP3    H250603   1.588   4.211  12.657 -1.5886  0.0121 -0.8556
 9730TIP3   OH250604   3.597   2.753  13.192 -0.6377  0.1091 -0.3234
 9730TIP3    H150605   3.651   2.733  13.269 -3.0115  0.9444  1.6972
 9730TIP3    H250606   3.514   2.709  13.210 -1.1980  0.1878 -2.5407
 9731TIP3   OH250607   6.657   5.147   4.860 -0.5579  0.0090  0.7445
 9731TIP3    H150608   6.589   5.168   4.924 -0.4924  0.1843  0.7567
 9731TIP3    H250609   6.737   5.185   4.896 -0.6701  0.8200  0.1688
 9732TIP3   OH250610   3.483   6.180   5.378 -0.3289 -0.2403 -0.2014
 9732TIP3    H150611   3.403   6.229   5.398 -0.6150 -0.6116 -0.4320
 9732TIP3    H250612   3.550   6.248   5.368 -0.7506  0.1196 -0.6445
 9733TIP3   OH250613   6.323   0.200   2.678 -0.1299 -0.2396 -0.1003
 9733TIP3    H150614   6.248   0.198   2.738 -0.1373  1.6705 -0.0100
 9733TIP3    H250615   6.297   0.260   2.608  1.9245  1.9025  0.8294
 9734TIP3   OH250616   1.899   2.829  16.720 -0.1436  0.1705 -0.2317
 9734TIP3    H150617   1.882   2.879  16.800  0.6527 -0.2064  0.1784
 9734TIP3    H250618   1.968   2.768  16.744  0.8166  0.7278 -1.4906
 9735TIP3   OH250619   4.096   1.412  14.687 -0.4787 -0.0452 -0.4570
 9735TIP3    H150620   4.178   1.440  14.726  0.3969 -2.1867 -0.6241
 9735TIP3    H250621   4.038   1.397  14.761 -1.0052  2.1038 -0.3640
 9736TIP3   OH250622   3.621   3.637   2.881 -0.0605  0.0881 -0.2220
 9736TIP3    H150623   3.707   3.674   2.861  0.6557 -0.0860  2.2133
 9736TIP3    H250624   3.637   3.543   2.891 -0.5235  0.0649  0.3345
 9737TIP3   OH250625   2.204   6.740  14.324  0.6189 -0.2657 -0.0555
 9737TIP3    H150626   2.259   6.749  14.246 -0.0106  1.8619 -0.3290
 9737TIP3    H250627   2.130   6.687  14.295  0.3578  0.5594 -0.9716
 9738TIP3   OH250628   0.654   3.887   2.205 -0.0973 -0.3897 -0.0274
 9738TIP3    H150629   0.593   3.960   2.195 -1.0757 -1.2985 -0.9745
 9738TIP3    H250630   0.616   3.833   2.274 -1.3212 -1.8135 -1.7166
 9739TIP3   OH250631   4.072   4.351   5.687 -0.3337  0.4443 -0.2418
 9739TIP3    H150632   4.028   4.435   5.703  1.7127  1.3061  1.3378
 9739TIP3    H250633   4.079   4.346   5.591  1.6417  3.3603 -0.3979
 9740TIP3   OH250634   3.238   5.697  13.642  0.1452 -0.5749  0.3860
 9740TIP3    H150635   3.186   5.777  13.628 -0.3612 -1.0325 -0.4251
 9740TIP3    H250636   3.320   5.728  13.681 -0.7911  0.1550  1.8722
 9741TIP3   OH250637   4.440   0.330   0.518  0.0359 -0.2442 -0.4177
 9741TIP3    H150638   4.505   0.259   0.517  0.2008 -0.1197  0.4773
 9741TIP3    H250639   4.491   0.409   0.500  0.1150 -0.1587  0.1831
 9742TIP3   OH250640   5.255   3.129  10.434 -0.3868  0.0422 -0.3976
 9742TIP3    H150641   5.284   3.043  10.403 -1.3484 -0.7003  0.7055
 9742TIP3    H250642   5.179   3.111  10.488  0.4961  1.4135  1.4122
 9743TIP3   OH250643   4.581   6.336   3.890 -0.2915  0.2239  0.0757
 9743TIP3    H150644   4.601   6.385   3.811  0.9578  0.5434  0.5678
 9743TIP3    H250645   4.629   6.254   3.880  0.8677  0.7632  1.0262
 9744TIP3   OH250646   5.138   5.961  14.708 -0.2246  0.1320 -0.7412
 9744TIP3    H150647   5.220   6.006  14.732 -0.2554 -0.1936  0.0110
 9744TIP3    H250648   5.096   5.944  14.792 -1.0534  0.2589 -1.1284
 9745TIP3   OH250649   3.186   5.990  13.973  0.2925  0.0162 -0.0756
 9745TIP3    H150650   3.266   6.035  14.002  0.5207 -0.7894  0.5816
 9745TIP3    H250651   3.191   5.904  14.014  0.0662 -0.7797 -1.6390
 9746TIP3   OH250652   3.267   3.064  14.871  0.1347  0.1570 -0.5942
 9746TIP3    H150653   3.297   2.974  14.878 -1.9201 -0.5012  0.7430
 9746TIP3    H250654   3.334   3.115  14.916 -0.2026 -1.1299  1.4947
 9747TIP3   OH250655   6.600   6.070   3.200  0.2865  0.2001  0.1006
 9747TIP3    H150656   6.539   6.104   3.266  2.4806  0.3340  2.1933
 9747TIP3    H250657   6.625   6.147   3.148  2.0666  1.1047  2.1637
 9748TIP3   OH250658   0.722   2.009  13.327 -0.6347  0.3528 -0.4317
 9748TIP3    H150659   0.687   1.951  13.395 -0.8863 -0.6114 -1.3536
 9748TIP3    H250660   0.816   1.998  13.333 -0.6340  0.5315 -0.0305
 9749TIP3   OH250661   1.069   1.858  14.323 -0.2759 -0.6510  0.0072
 9749TIP3    H150662   1.005   1.829  14.387 -0.3723  1.6406  1.0626
 9749TIP3    H250663   1.018   1.907  14.258  0.3901  2.1448  1.4373
 9750TIP3   OH250664   5.533   6.328  11.919 -0.2473  0.0098 -0.0549
 9750TIP3    H150665   5.613   6.320  11.867  0.7132  0.0994  1.3624
 9750TIP3    H250666   5.562   6.322  12.010 -1.9969 -1.2719  0.4917
 9751TIP3   OH250667   0.883   5.660   1.781 -0.4001  0.2145 -0.1951
 9751TIP3    H150668   0.792   5.662   1.750 -0.5649 -1.6894  0.0010
 9751TIP3    H250669   0.920   5.582   1.739  0.1530 -0.9146  2.2263
 9752TIP3   OH250670   4.150   4.320   4.042 -0.5303 -0.3484  0.7324
 9752TIP3    H150671   4.066   4.363   4.058 -0.8636 -0.6367 -0.1831
 9752TIP3    H250672   4.141   4.282   3.955  0.0122 -1.6721  1.2217
 9753TIP3   OH250673   4.417   2.551   0.438  0.7039 -0.4813 -0.2361
 9753TIP3    H150674   4.401   2.624   0.497  0.3614  0.8263 -1.8655
 9753TIP3    H250675   4.354   2.484   0.465  1.9842 -0.8199  2.2078
 9754TIP3   OH250676   0.894   0.801  13.940 -0.7728 -0.1677  0.2807
 9754TIP3    H150677   0.844   0.784  14.020  0.1894 -0.7742  0.7793
 9754TIP3    H250678   0.835   0.778  13.869 -0.7128 -2.3863  0.8732
 9755TIP3   OH250679   4.820   0.481  13.313  0.1552  0.1322  0.7222
 9755TIP3    H150680   4.899   0.465  13.365  0.6181 -0.6544 -0.1808
 9755TIP3    H250681   4.748   0.457  13.371  0.6960 -1.6444  0.7202
 9756TIP3   OH250682   3.273   6.373  15.221 -0.1294 -0.2755  0.1723
 9756TIP3    H150683   3.261   6.467  15.231  2.3158  0.2570 -1.0350
 9756TIP3    H250684   3.190   6.341  15.188 -0.9974  1.4455  0.5691
 9757TIP3   OH250685   2.527   0.600  15.699 -0.2157 -0.0911 -0.0016
 9757TIP3    H150686   2.593   0.580  15.633  1.4223 -1.3776  1.9063
 9757TIP3    H250687   2.569   0.665  15.755 -1.7291  1.2760 -0.3772
 9758TIP3   OH250688   3.959   2.736   6.290 -0.0755 -0.0777 -0.4553
 9758TIP3    H150689   4.055   2.732   6.293 -0.0556  0.4115 -0.1827
 9758TIP3    H250690   3.940   2.830   6.285 -0.5051 -0.2354 -2.5673
 9759TIP3   OH250691   5.137   1.893  16.102 -0.7709 -0.3780 -0.0947
 9759TIP3    H150692   5.180   1.862  16.181 -2.1527 -1.7333  0.1527
 9759TIP3    H250693   5.208   1.930  16.049  0.2765 -0.1382  1.4302
 9760TIP3   OH250694   2.219   0.513  14.316  0.4206 -0.3114  0.3291
 9760TIP3    H150695   2.193   0.465  14.395 -0.0626  0.4322  0.6286
 9760TIP3    H250696   2.211   0.449  14.245 -2.3182 -0.1470  0.3896
 9761TIP3   OH250697   3.875   1.003   1.189 -0.6008  0.0416 -0.0798
 9761TIP3    H150698   3.950   0.949   1.213 -0.4155  1.2009  2.2335
 9761TIP3    H250699   3.799   0.945   1.198 -0.4498  0.1669  2.7643
 9762TIP3   OH250700   2.497   5.707  16.498  0.0641 -0.1259  0.2017
 9762TIP3    H150701   2.532   5.637  16.553 -2.7467 -0.8358  1.2860
 9762TIP3    H250702   2.499   5.785  16.553 -0.1996 -0.1951  0.3082
 9763TIP3   OH250703   6.686   3.696   2.405  0.1170  0.6375  0.4878
 9763TIP3    H150704   6.705   3.674   2.496  1.1704 -3.3813 -0.4830
 9763TIP3    H250705   6.617   3.633   2.379 -1.3869  2.7907 -1.1045
 9764TIP3   OH250706   4.486   0.751  11.510 -0.0049  0.2401 -0.3672
 9764TIP3    H150707   4.552   0.683  11.494  1.3372  1.1355  1.0916
 9764TIP3    H250708   4.449   0.729  11.595 -0.8949  0.3025 -0.7337
 9765TIP3   OH250709   6.574   2.019  14.362 -0.2139 -0.0007 -0.1629
 9765TIP3    H150710   6.627   2.037  14.441 -1.9132 -1.1246  1.3111
 9765TIP3    H250711   6.587   1.926  14.345  0.1216  0.2355 -1.2134
 9766TIP3   OH250712   6.039   4.561  16.111 -0.8324 -0.4239  0.0608
 9766TIP3    H150713   5.983   4.637  16.100  0.5802  0.8691  1.4113
 9766TIP3    H250714   6.100   4.585  16.180  0.7255 -2.1665 -0.6115
 9767TIP3   OH250715   4.604   6.176   1.996  0.4341  0.3978 -0.1750
 9767TIP3    H150716   4.691   6.139   1.986 -0.3603 -1.1108 -2.2479
 9767TIP3    H250717   4.580   6.160   2.087  1.2665 -1.6601 -0.2838
 9768TIP3   OH250718   2.167   4.317  16.661  0.2104  0.4666  0.1743
 9768TIP3    H150719   2.100   4.328  16.729  0.6375 -1.0027  0.8676
 9768TIP3    H250720   2.231   4.257  16.699  1.8525  1.6780 -0.5529
 9769TIP3   OH250721   5.557   3.499  12.796 -0.2767 -0.7493 -0.1340
 9769TIP3    H150722   5.499   3.554  12.847  0.6208 -0.6963  0.8690
 9769TIP3    H250723   5.500   3.456  12.733 -1.0357  1.1512 -0.8183
 9770TIP3   OH250724   0.738   5.043  15.231 -0.1413 -0.2108  0.3161
 9770TIP3    H150725   0.795   5.007  15.163  1.9837  2.0076  0.7352
 9770TIP3    H250726   0.750   4.986  15.306 -1.3978 -1.8576 -0.6721
 9771TIP3   OH250727   4.136   2.613   1.707  0.5635 -0.0178  0.2346
 9771TIP3    H150728   4.082   2.618   1.628 -2.6844 -1.2617  2.1438
 9771TIP3    H250729   4.107   2.688   1.760  0.6726 -0.7054  1.3063
 9772TIP3   OH250730   4.168   3.232  10.855 -0.0907  0.2755 -0.4049
 9772TIP3    H150731   4.096   3.233  10.792 -1.4453  0.8550  1.0670
 9772TIP3    H250732   4.153   3.308  10.911  0.2911 -0.8662  1.3767
 9773TIP3   OH250733   6.027   1.926  15.570  0.1688 -0.5912  0.0932
 9773TIP3    H150734   6.111   1.963  15.543  0.2422 -0.9936 -0.2421
 9773TIP3    H250735   5.986   1.897  15.489 -0.8131  0.6392  0.1271
 9774TIP3   OH250736   5.052   1.653   2.997 -0.2326 -0.3826  0.2286
 9774TIP3    H150737   5.090   1.615   2.918  1.0799  1.9031 -0.3238
 9774TIP3    H250738   5.021   1.739   2.970 -1.6163 -0.3371  1.7796
 9775TIP3   OH250739   3.598   6.008   0.089  0.0071  0.0844 -0.7291
 9775TIP3    H150740   3.547   6.049   0.019  0.3003  1.6290 -0.0708
 9775TIP3    H250741   3.686   6.045   0.080  0.1901 -0.1284  0.1005
 9776TIP3   OH250742   3.025   1.434   1.925 -0.2019 -0.3860  0.6766
 9776TIP3    H150743   2.945   1.459   1.879 -1.5111 -0.4182  2.7940
 9776TIP3    H250744   3.088   1.501   1.900 -1.3326  0.5101  0.1179
 9777TIP3   OH250745   1.224   3.921   5.874  0.2210  0.4787 -0.4854
 9777TIP3    H150746   1.262   3.916   5.962 -1.0064  0.1266  0.0510
 9777TIP3    H250747   1.297   3.945   5.818  1.7995 -2.3574  0.1397
 9778TIP3   OH250748   3.877   4.666   4.029  0.1497 -0.0990 -0.8410
 9778TIP3    H150749   3.912   4.683   4.116 -1.0357 -0.7627 -0.2131
 9778TIP3    H250750   3.902   4.575   4.010 -0.6906 -0.3846 -0.6316
 9779TIP3   OH250751   0.648   5.176   1.319 -0.0444  0.7537 -0.5907
 9779TIP3    H150752   0.728   5.208   1.359  0.3655 -1.2084  0.2781
 9779TIP3    H250753   0.678   5.123   1.245 -0.4034 -1.1717  0.5848
 9780TIP3   OH250754   0.063   2.989  16.437 -0.3093 -0.5435  0.2426
 9780TIP3    H150755  -0.029   2.963  16.427 -0.5024  0.4653 -0.7849
 9780TIP3    H250756   0.100   2.982  16.349  0.6494 -1.0781  0.6675
 9781TIP3   OH250757   1.380   4.366   3.814  0.3711 -0.2527 -0.0525
 9781TIP3    H150758   1.298   4.330   3.848 -1.4473  3.2872 -0.1375
 9781TIP3    H250759   1.385   4.334   3.724 -1.3427 -0.0159 -0.2667
 9782TIP3   OH250760   6.019   6.266  13.150  0.0117 -0.0925 -0.5781
 9782TIP3    H150761   5.997   6.173  13.143 -0.3450 -0.0014 -0.6570
 9782TIP3    H250762   5.945   6.304  13.196  0.4873  0.0255  0.1133
 9783TIP3   OH250763   6.195   3.768  11.649  0.4335 -0.0265 -0.3799
 9783TIP3    H150764   6.164   3.781  11.560 -0.6097 -1.3348 -0.2409
 9783TIP3    H250765   6.160   3.683  11.675  1.2522  0.0322  1.0564
 9784TIP3   OH250766   2.446   3.232  15.027  0.0901  0.2928 -0.3401
 9784TIP3    H150767   2.407   3.246  14.941  0.0075 -0.8172 -0.4992
 9784TIP3    H250768   2.409   3.149  15.057  0.8853  0.1657  0.3376
 9785TIP3   OH250769   4.481   5.746   3.146  0.0748  0.0511  0.0757
 9785TIP3    H150770   4.470   5.697   3.065  3.4424 -2.7851  1.0795
 9785TIP3    H250771   4.438   5.693   3.213  0.6591  0.3090  0.6712
 9786TIP3   OH250772   1.332   0.323   3.442 -0.4475  0.2919 -0.0364
 9786TIP3    H150773   1.307   0.405   3.484 -1.0052  0.2890 -0.3442
 9786TIP3    H250774   1.406   0.291   3.492 -0.0659  1.1130 -0.0628
 9787TIP3   OH250775   3.947   3.559   2.223  0.0538 -0.3496  0.6748
 9787TIP3    H150776   4.016   3.598   2.277  0.7108 -0.0351 -0.3560
 9787TIP3    H250777   3.968   3.587   2.134  0.2382 -2.6153 -0.0576
 9788TIP3   OH250778   3.058   3.279  14.977  0.5961 -0.0641  0.4947
 9788TIP3    H150779   3.137   3.227  14.966  0.4318 -0.3546  0.6700
 9788TIP3    H250780   3.081   3.366  14.944  1.0062 -0.1289  0.6067
 9789TIP3   OH250781   4.446   6.034   0.600  0.4888  0.0045  0.4952
 9789TIP3    H150782   4.437   6.129   0.598 -1.0878 -0.0959  1.0455
 9789TIP3    H250783   4.439   6.008   0.508 -1.5465  0.2900  0.5075
 9790TIP3   OH250784   5.531   6.256   5.073  0.4266  0.5741  0.0651
 9790TIP3    H150785   5.478   6.325   5.033  2.1769  0.3589 -2.9412
 9790TIP3    H250786   5.484   6.175   5.053 -0.9406  0.6959  2.4387
 9791TIP3   OH250787   0.514   6.317   1.755  0.0137 -0.1146  0.5167
 9791TIP3    H150788   0.418   6.319   1.759 -0.1205 -1.8289 -0.4842
 9791TIP3    H250789   0.540   6.271   1.835 -0.1441 -1.2377 -0.0584
 9792TIP3   OH250790   4.765   3.181   3.037  0.3966  0.2070 -0.0887
 9792TIP3    H150791   4.806   3.103   2.999  0.6685  0.5949 -0.6120
 9792TIP3    H250792   4.839   3.233   3.069  0.2320  0.3417  0.0720
 9793TIP3   OH250793   1.122   0.195   4.413 -0.0641  0.1638  0.2025
 9793TIP3    H150794   1.041   0.225   4.371  0.2835 -0.4538 -0.9437
 9793TIP3    H250795   1.190   0.254   4.379  0.3754 -0.9360 -0.8955
 9794TIP3   OH250796   1.237   1.092  11.853 -0.4629  0.1376 -0.4123
 9794TIP3    H150797   1.238   1.034  11.929  0.7531  0.4289 -0.1873
 9794TIP3    H250798   1.176   1.051  11.792 -0.5380 -0.7324  0.2355
 9795TIP3   OH250799   0.545   1.370  14.501 -0.0515 -0.2179  0.3743
 9795TIP3    H150800   0.451   1.386  14.508 -0.2378 -1.0047 -0.1759
 9795TIP3    H250801   0.569   1.333  14.586  0.0813  1.4233  1.0775
 9796TIP3   OH250802   3.439   0.557   5.927 -0.4741  0.4667  0.0244
 9796TIP3    H150803   3.420   0.537   5.835  2.4816 -1.0847 -0.3657
 9796TIP3    H250804   3.355   0.544   5.972 -1.3696 -1.6422 -2.0379
 9797TIP3   OH250805   4.441   6.810  13.872 -0.2077  0.0067  0.0272
 9797TIP3    H150806   4.359   6.761  13.882  0.0573 -0.0697  2.7443
 9797TIP3    H250807   4.508   6.742  13.866 -0.1791  0.0655 -0.3347
 9798TIP3   OH250808   2.563   2.041   3.416 -0.1305 -0.3131 -0.2624
 9798TIP3    H150809   2.641   2.058   3.362  1.0881  0.9090  1.7324
 9798TIP3    H250810   2.489   2.062   3.359  1.0419 -0.3654 -1.8577
 9799TIP3   OH250811   2.647   2.345  14.955 -0.0381 -0.3301 -0.2706
 9799TIP3    H150812   2.596   2.349  14.874  0.5706 -0.6427 -0.6695
 9799TIP3    H250813   2.599   2.403  15.015 -0.9278 -0.7035 -0.5974
 9800TIP3   OH250814   6.367   2.182  12.489 -0.2464  0.7343 -0.5216
 9800TIP3    H150815   6.415   2.249  12.537 -1.7681 -0.3232  2.7937
 9800TIP3    H250816   6.435   2.130  12.446  1.0964  2.7270 -0.9504
 9801TIP3   OH250817   0.899   5.678   2.858 -0.3037  0.1537  0.3314
 9801TIP3    H150818   0.887   5.604   2.798  3.5008  0.6619 -1.3630
 9801TIP3    H250819   0.863   5.753   2.811 -0.9577 -0.0626  0.4816
 9802TIP3   OH250820   5.437   6.603  14.361  0.9152  0.0861 -0.0868
 9802TIP3    H150821   5.385   6.526  14.336  0.9760  0.4585 -1.4493
 9802TIP3    H250822   5.525   6.569  14.372  0.4852 -0.4816  1.8658
 9803TIP3   OH250823   2.119   6.621   1.591  0.2019  0.2465  0.3415
 9803TIP3    H150824   2.203   6.645   1.631  0.1705  1.5170 -0.2836
 9803TIP3    H250825   2.069   6.703   1.591  0.0144  0.1919 -1.7769
 9804TIP3   OH250826   5.318   1.640   3.958 -0.2437 -0.6172 -0.1937
 9804TIP3    H150827   5.348   1.549   3.956  0.9448 -0.2580  0.3566
 9804TIP3    H250828   5.249   1.644   3.892  0.5269 -1.6259 -1.0858
 9805TIP3   OH250829   5.473   5.943  11.975 -0.9150 -0.1539  0.1514
 9805TIP3    H150830   5.559   5.916  11.942 -0.8229  0.3051  0.0094
 9805TIP3    H250831   5.471   5.914  12.066 -1.3060 -1.7597 -0.3339
 9806TIP3   OH250832   3.703   0.449  12.345  0.2961  0.0573  0.1636
 9806TIP3    H150833   3.737   0.512  12.408  0.8260 -0.6316  0.5835
 9806TIP3    H250834   3.752   0.369  12.363  1.0555  0.0516 -1.6658
 9807TIP3   OH250835   2.899   3.605  10.868 -0.6863  0.3625  0.4218
 9807TIP3    H150836   2.973   3.550  10.842 -1.7849 -0.5784 -0.8563
 9807TIP3    H250837   2.917   3.628  10.959  0.6829 -0.6633  0.4387
 9808TIP3   OH250838   4.385   0.683  12.422  0.1033  0.2310  0.0917
 9808TIP3    H150839   4.291   0.666  12.428  0.2803 -1.5578 -1.3216
 9808TIP3    H250840   4.391   0.773  12.390 -1.1118  0.3901  0.2620
 9809TIP3   OH250841   0.296   5.390  13.619 -0.1145 -0.5897 -0.5696
 9809TIP3    H150842   0.296   5.459  13.686  0.1822 -0.4851 -0.6719
 9809TIP3    H250843   0.246   5.427  13.547 -0.8770 -0.9064 -0.2056
 9810TIP3   OH250844   2.638   2.490  15.350 -0.3972 -0.5122  0.4471
 9810TIP3    H150845   2.610   2.530  15.268 -1.3711 -1.4959  0.2664
 9810TIP3    H250846   2.610   2.398  15.343  1.3453 -1.1268  1.0236
 9811TIP3   OH250847   4.828   4.203   0.307  0.4753  0.4059  0.1217
 9811TIP3    H150848   4.767   4.185   0.379  0.5859  0.9161  0.3478
 9811TIP3    H250849   4.798   4.287   0.272  0.1697 -0.0301 -0.6945
 9812TIP3   OH250850   5.953   6.336  13.560  0.5243 -0.0917 -0.1916
 9812TIP3    H150851   5.860   6.358  13.560  0.3731 -0.6919  0.7613
 9812TIP3    H250852   5.962   6.267  13.494  0.5699  1.0101 -1.3706
 9813TIP3   OH250853   5.365   3.820  14.298 -0.0999 -0.4636 -0.3054
 9813TIP3    H150854   5.274   3.792  14.281  0.2781 -1.9957  0.0295
 9813TIP3    H250855   5.414   3.738  14.303  1.4102  0.3626 -0.9906
 9814TIP3   OH250856   1.543   4.436   4.179  0.5754  0.5904 -0.1114
 9814TIP3    H150857   1.590   4.373   4.234 -0.8963  0.3940  1.0128
 9814TIP3    H250858   1.541   4.396   4.092  0.0412 -0.7403  0.4801
 9815TIP3   OH250859   6.540   3.255  11.387  1.0572 -0.3824 -0.3493
 9815TIP3    H150860   6.462   3.238  11.439  0.8462 -1.9095 -1.1321
 9815TIP3    H250861   6.584   3.327  11.433 -1.4182  1.3822 -0.5905
 9816TIP3   OH250862   0.744   2.140   5.740  0.0640  0.7049 -0.2925
 9816TIP3    H150863   0.729   2.212   5.802 -0.9554  0.7383 -0.5625
 9816TIP3    H250864   0.673   2.079   5.756  1.3980 -0.6868  0.5173
 9817TIP3   OH250865   2.698   4.648   3.557  0.7003  0.7604 -0.4121
 9817TIP3    H150866   2.696   4.620   3.649  0.8165  1.0780 -0.3119
 9817TIP3    H250867   2.609   4.631   3.526  0.8888 -0.1234 -0.4766
 9818TIP3   OH250868   5.776   3.525  11.074  0.1938 -0.2204  0.0712
 9818TIP3    H150869   5.820   3.532  10.989 -0.5774 -1.3948 -0.4576
 9818TIP3    H250870   5.797   3.437  11.105 -2.7056 -1.3407 -0.7947
 9819TIP3   OH250871   1.230   1.797   5.807  0.2588 -0.1968  0.0860
 9819TIP3    H150872   1.206   1.873   5.754  0.0316  0.6511  1.3589
 9819TIP3    H250873   1.208   1.722   5.752  0.8665  0.6401 -1.3565
 9820TIP3   OH250874   2.845   2.009   4.929 -0.1597 -0.5173 -0.0580
 9820TIP3    H150875   2.800   2.066   4.867 -0.1837 -1.7578 -1.2368
 9820TIP3    H250876   2.930   2.051   4.943 -0.5068  0.2457 -0.2259
 9821TIP3   OH250877   3.205   0.068   2.889  0.7587 -0.0372 -0.1408
 9821TIP3    H150878   3.287   0.109   2.916 -0.2285  1.8858  0.0561
 9821TIP3    H250879   3.204   0.076   2.793  0.1304  1.3242 -0.0375
 9822TIP3   OH250880   4.149   1.452   5.367  0.6413 -0.1860  0.3553
 9822TIP3    H150881   4.077   1.515   5.361  1.6469  0.8583 -2.4101
 9822TIP3    H250882   4.218   1.498   5.414  0.7375  0.1399 -0.0973
 9823TIP3   OH250883   1.366   1.812  12.080  0.7038 -0.0549 -0.1210
 9823TIP3    H150884   1.318   1.763  12.147  1.7548 -1.5571 -0.3949
 9823TIP3    H250885   1.322   1.896  12.074 -0.1615 -0.3537  1.5790
 9824TIP3   OH250886   5.312   2.096   6.003  0.7000 -0.1602  0.4655
 9824TIP3    H150887   5.277   2.164   5.945  0.4267  0.2112  1.0615
 9824TIP3    H250888   5.348   2.031   5.943  3.0379  1.5427 -0.1035
 9825TIP3   OH250889   3.965   1.261  12.168 -1.0636 -0.7012  0.3311
 9825TIP3    H150890   4.039   1.204  12.188  0.5159  0.6718 -1.2251
 9825TIP3    H250891   3.900   1.204  12.127  0.6202 -1.3832 -1.5440
 9826TIP3   OH250892   6.226   0.509   2.609 -0.1865  0.6486  0.4248
 9826TIP3    H150893   6.187   0.593   2.586 -0.7845 -0.0165 -1.1720
 9826TIP3    H250894   6.287   0.491   2.537 -0.1615 -0.3200  0.6779
 9827TIP3   OH250895   5.251   4.992   6.616 -0.0577 -0.4000  0.2793
 9827TIP3    H150896   5.267   5.006   6.523  0.0073 -1.0737  0.1852
 9827TIP3    H250897   5.177   4.931   6.619 -0.0379 -0.4093  0.6686
 9828TIP3   OH250898   0.997   5.631  11.865  0.0169  0.5311  0.0046
 9828TIP3    H150899   1.028   5.547  11.831  0.9579  1.4921 -1.6635
 9828TIP3    H250900   0.947   5.608  11.943 -0.4239 -1.6480 -0.8267
 9829TIP3   OH250901   1.593   3.429   5.023 -0.0358  0.4318 -0.1678
 9829TIP3    H150902   1.653   3.483   5.074  0.8280 -0.1113 -0.5882
 9829TIP3    H250903   1.634   3.343   5.019 -0.4490  0.2556 -1.1364
 9830TIP3   OH250904   0.351   1.072  16.313  0.5640  0.1090 -0.0544
 9830TIP3    H150905   0.278   1.115  16.358  0.1733 -0.6167  0.0208
 9830TIP3    H250906   0.418   1.060  16.380 -0.3849 -1.8318  0.6034
 9831TIP3   OH250907   6.806   0.391  12.927 -0.1944 -0.2837  0.3430
 9831TIP3    H150908   6.846   0.435  13.002 -0.4953 -2.1290  1.6701
 9831TIP3    H250909   6.744   0.455  12.892  0.7035  0.9969  1.0072
 9832TIP3   OH250910   3.464   3.803   2.257  0.2817 -0.0553 -0.5154
 9832TIP3    H150911   3.438   3.772   2.344 -0.3808 -2.5011 -1.4868
 9832TIP3    H250912   3.452   3.898   2.261 -1.0890 -0.2409  1.6053
 9833TIP3   OH250913   6.640   3.026   3.230 -0.3019  0.2271 -0.3775
 9833TIP3    H150914   6.694   2.985   3.162  0.7615  0.5974  0.2148
 9833TIP3    H250915   6.679   3.113   3.241 -1.7681  0.9691 -0.7613
 9834TIP3   OH250916   2.478   5.368  15.259 -0.3799  0.1282  0.1572
 9834TIP3    H150917   2.450   5.370  15.167 -1.4956 -2.8871  0.3082
 9834TIP3    H250918   2.421   5.430  15.303 -1.5420 -0.2125 -0.8177
 9835TIP3   OH250919   1.499   0.217  11.934 -0.2706 -0.1670 -0.0509
 9835TIP3    H150920   1.586   0.198  11.969 -0.2536  0.6513  0.3670
 9835TIP3    H250921   1.458   0.131  11.924  0.4494 -0.5320  0.1007
 9836TIP3   OH250922   2.329   6.249   2.109  0.0629 -0.3870  0.2297
 9836TIP3    H150923   2.359   6.320   2.166 -1.0708  0.5333 -0.2809
 9836TIP3    H250924   2.238   6.270   2.090  0.9464  0.8215 -3.9476
 9837TIP3   OH250925   1.979   3.865   1.172 -0.1587  0.3608  0.6067
 9837TIP3    H150926   1.942   3.906   1.093 -1.9032 -1.5570  0.3346
 9837TIP3    H250927   2.062   3.827   1.143 -0.4173  0.3259 -0.1097
 9838TIP3   OH250928   6.614   1.135   5.267 -0.0999 -0.4329  0.7249
 9838TIP3    H150929   6.625   1.060   5.326  1.1546 -0.5993  0.2909
 9838TIP3    H250930   6.697   1.142   5.221 -1.1159 -0.4182 -1.1836
 9839TIP3   OH250931   0.167   0.079  11.189 -0.2158 -0.2823 -0.5763
 9839TIP3    H150932   0.112   0.068  11.112 -0.0904  0.3127 -0.7562
 9839TIP3    H250933   0.256   0.085  11.154  0.0437 -1.7817 -0.2508
 9840TIP3   OH250934   4.241   2.778  15.430  0.4573  0.5782  0.0993
 9840TIP3    H150935   4.246   2.842  15.502 -1.6192 -0.4375  1.2094
 9840TIP3    H250936   4.165   2.724  15.450 -1.3318  1.2893 -3.7492
 9841TIP3   OH250937   1.541   6.392   2.598  0.2381 -0.1027 -0.5910
 9841TIP3    H150938   1.481   6.343   2.654  0.6244 -0.8035 -0.7779
 9841TIP3    H250939   1.513   6.483   2.606 -0.5073 -0.3575 -0.2584
 9842TIP3   OH250940   0.362   5.287  13.347  0.4818 -0.9248  0.7120
 9842TIP3    H150941   0.347   5.213  13.406  1.8511 -0.8668  1.1698
 9842TIP3    H250942   0.318   5.361  13.388 -0.9733 -1.4728  0.2109
 9843TIP3   OH250943   2.293   5.501   0.769 -0.8999 -0.2923  0.5323
 9843TIP3    H150944   2.342   5.433   0.722 -0.5548 -1.1791  2.1142
 9843TIP3    H250945   2.201   5.474   0.761 -0.9136 -0.0304 -0.2519
 9844TIP3   OH250946   0.120   4.988   4.926 -0.7559 -0.0832  0.0079
 9844TIP3    H150947   0.064   4.915   4.950  0.1491 -0.9840 -0.5335
 9844TIP3    H250948   0.209   4.959   4.950 -0.4580  1.1342  0.4691
 9845TIP3   OH250949   6.762   4.093   4.273  0.5670 -0.4336  0.0217
 9845TIP3    H150950   6.745   4.136   4.189 -1.2603 -0.1584  0.5013
 9845TIP3    H250951   6.812   4.014   4.249 -1.4742 -1.3531 -1.5789
 9846TIP3   OH250952   0.245   6.089   3.198 -0.0115  0.6553 -0.3327
 9846TIP3    H150953   0.179   6.156   3.182 -0.2886 -0.0736 -2.5976
 9846TIP3    H250954   0.196   6.007   3.205  0.6113 -0.0367 -2.9849
 9847TIP3   OH250955   3.984   0.245   0.117  0.4558  0.0812 -0.1802
 9847TIP3    H150956   4.075   0.253   0.089  0.5986  1.4782  0.6000
 9847TIP3    H250957   3.935   0.299   0.055  0.1311 -0.6841 -0.6113
 9848TIP3   OH250958   5.291   1.953  13.130 -0.0303 -0.1375  0.0996
 9848TIP3    H150959   5.342   1.985  13.204  0.5233 -0.2638 -0.2167
 9848TIP3    H250960   5.344   1.976  13.053  0.1702 -1.4118 -0.1584
 9849TIP3   OH250961   0.824   1.442   4.060  0.6024 -0.0479 -0.0693
 9849TIP3    H150962   0.806   1.535   4.075 -0.3577 -0.0702 -0.9721
 9849TIP3    H250963   0.856   1.439   3.969  0.3965 -0.6324 -0.1200
 9850TIP3   OH250964   6.436   3.192   0.489 -0.0150 -0.2620  0.0834
 9850TIP3    H150965   6.354   3.167   0.447 -0.5824 -0.7830  1.4516
 9850TIP3    H250966   6.493   3.220   0.417 -1.0804 -0.7476 -0.9660
 9851TIP3   OH250967   1.900   6.572   0.649  0.1201 -0.5650  0.0974
 9851TIP3    H150968   1.855   6.523   0.718 -0.0475 -1.4018 -0.5726
 9851TIP3    H250969   1.834   6.632   0.616 -0.2253 -1.1066 -0.2247
 9852TIP3   OH250970   6.721   6.770  12.613  0.2365  0.2655  0.3364
 9852TIP3    H150971   6.694   6.801  12.700 -2.3857 -0.9868  0.0524
 9852TIP3    H250972   6.752   6.681  12.628  0.6485  0.3630  0.0840
 9853TIP3   OH250973   0.178   3.118  13.374  0.3512  0.0344 -0.2628
 9853TIP3    H150974   0.165   3.088  13.465 -0.8979  1.2898  0.0087
 9853TIP3    H250975   0.118   3.064  13.323  0.1868  0.1317 -0.1731
 9854TIP3   OH250976   5.300   6.440  10.444 -0.1682  0.3445 -0.1710
 9854TIP3    H150977   5.366   6.496  10.403  0.4299 -0.2582 -0.0430
 9854TIP3    H250978   5.316   6.353  10.408  0.2276 -0.1577  1.1376
 9855TIP3   OH250979   1.803   4.440   5.436 -0.2647 -1.1530  0.3763
 9855TIP3    H150980   1.748   4.411   5.364  2.7812 -0.5510 -2.4267
 9855TIP3    H250981   1.867   4.370   5.448  0.4629 -0.3904  1.1738
 9856TIP3   OH250982   2.289   5.644  15.902  0.0885 -0.1221 -0.5137
 9856TIP3    H150983   2.275   5.681  15.815  0.4326  0.4341 -0.3388
 9856TIP3    H250984   2.371   5.594  15.894  1.2337  1.5951 -0.0141
 9857TIP3   OH250985   4.410   5.099   2.435 -0.3214 -0.3087 -0.3377
 9857TIP3    H150986   4.373   5.177   2.395 -2.0515 -0.8517  0.0958
 9857TIP3    H250987   4.500   5.094   2.401 -1.0012  0.4478 -2.3936
 9858TIP3   OH250988   1.063   6.708  10.319  0.4660  0.3965 -0.6678
 9858TIP3    H150989   1.120   6.717  10.395 -0.3105 -1.2993  0.1700
 9858TIP3    H250990   1.012   6.789  10.318  1.2153  0.8961 -0.0179
 9859TIP3   OH250991   3.592   0.492  14.767 -0.6048  0.1514 -0.6532
 9859TIP3    H150992   3.641   0.492  14.849 -1.2809 -1.5882 -0.2117
 9859TIP3    H250993   3.658   0.477  14.699 -0.3060 -0.6186 -0.2050
 9860TIP3   OH250994   1.701   4.673  14.113  0.6369 -0.0775 -0.0470
 9860TIP3    H150995   1.636   4.733  14.077 -0.8388 -1.6042 -0.0467
 9860TIP3    H250996   1.743   4.634  14.037  2.3399  1.6402 -0.0584
 9861TIP3   OH250997   2.235   0.229  12.782  0.6075 -0.1994  1.2864
 9861TIP3    H150998   2.287   0.281  12.721  0.1569  0.7232  1.6759
 9861TIP3    H250999   2.164   0.287  12.810 -1.8947 -1.9999 -0.7781
 9862TIP3   OH251000   5.380   2.204   1.460 -0.0598 -0.4312  0.0306
 9862TIP3    H151001   5.326   2.159   1.525  0.0672  0.6879  0.9468
 9862TIP3    H251002   5.453   2.240   1.510 -1.1981  2.5606 -0.2072
 9863TIP3   OH251003   5.997   5.055  13.023 -0.3555  0.7351 -0.7140
 9863TIP3    H151004   5.965   4.973  12.986 -0.4370  1.0847 -1.4431
 9863TIP3    H251005   5.978   5.048  13.117  2.5058 -1.4089 -0.1612
 9864TIP3   OH251006   3.007   5.923  13.040  0.0419  0.0233 -0.1208
 9864TIP3    H151007   2.917   5.893  13.029  0.3019 -0.8422 -0.0129
 9864TIP3    H251008   3.056   5.844  13.064  0.6123  0.6971  1.0324
 9865TIP3   OH251009   3.679   2.788  16.122 -0.0359 -0.1763 -0.0543
 9865TIP3    H151010   3.613   2.718  16.118  0.7367 -0.8980 -0.3502
 9865TIP3    H251011   3.760   2.743  16.144  1.1309  0.1481 -3.2835
 9866TIP3   OH251012   1.661   2.529  11.061 -0.3063 -0.6856 -0.3090
 9866TIP3    H151013   1.623   2.449  11.025  0.0284 -0.6829 -0.6597
 9866TIP3    H251014   1.650   2.595  10.992  1.0252 -0.8717 -0.7147
 9867TIP3   OH251015   2.122   6.162  10.910  0.6084  0.5047 -0.3739
 9867TIP3    H151016   2.100   6.079  10.867  0.6944  0.5111 -0.4316
 9867TIP3    H251017   2.138   6.223  10.838  2.3046  0.1072 -0.3841
 9868TIP3   OH251018   1.224   2.673   0.266  0.1857 -0.0757 -0.3578
 9868TIP3    H151019   1.279   2.596   0.276 -0.0384 -0.1018  0.9244
 9868TIP3    H251020   1.177   2.659   0.184 -1.3169 -2.2908  0.7781
 9869TIP3   OH251021   0.929   6.522  14.214  0.0187  0.2060 -0.5033
 9869TIP3    H151022   0.971   6.458  14.156 -0.4606 -1.5613  0.9873
 9869TIP3    H251023   0.837   6.496  14.216 -0.0128  0.3057  0.8582
 9870TIP3   OH251024   5.001   4.666   3.844  0.1766 -0.1432  0.6717
 9870TIP3    H151025   5.072   4.619   3.887 -0.0060 -0.8743  0.1906
 9870TIP3    H251026   4.947   4.698   3.916  1.1187  0.6508  1.0571
 9871TIP3   OH251027   1.357   5.265   1.301  0.8198 -0.7049  0.2369
 9871TIP3    H151028   1.384   5.295   1.388  0.7142 -3.2016  1.1992
 9871TIP3    H251029   1.404   5.182   1.289 -0.3890 -1.1823 -1.4158
 9872TIP3   OH251030   6.394   4.633   0.709  0.1632 -0.1083  0.2811
 9872TIP3    H151031   6.426   4.549   0.740  1.1155  0.1932  0.1372
 9872TIP3    H251032   6.407   4.631   0.614  3.2199  1.3765  0.5318
 9873TIP3   OH251033   1.298   0.456  12.223 -0.2908  0.2687 -0.4664
 9873TIP3    H151034   1.360   0.419  12.287 -1.2839  0.1463  0.4606
 9873TIP3    H251035   1.354   0.495  12.156  0.8408  1.6479  1.1713
 9874TIP3   OH251036   2.406   5.919  15.709  0.0219  0.2972  0.6224
 9874TIP3    H151037   2.355   5.839  15.697  1.0418 -0.3808  0.7668
 9874TIP3    H251038   2.470   5.897  15.777  1.9597  0.4242 -1.0736
 9875TIP3   OH251039   0.221   3.280  14.366  0.1025 -0.6179 -0.2364
 9875TIP3    H151040   0.215   3.373  14.346 -0.1995 -0.5953 -0.0493
 9875TIP3    H251041   0.275   3.274  14.444  4.1558 -0.9309 -2.7942
 9876TIP3   OH251042   2.645   6.611   2.390 -0.1274 -0.6015  0.2122
 9876TIP3    H151043   2.664   6.627   2.482 -0.9956 -0.1879  0.3332
 9876TIP3    H251044   2.728   6.624   2.345 -0.1186  1.3130  0.6850
 9877TIP3   OH251045   6.466   5.463   3.450  0.0708 -0.9993 -0.3546
 9877TIP3    H151046   6.447   5.538   3.393  0.6328 -0.9831 -0.5283
 9877TIP3    H251047   6.548   5.486   3.493  0.7895 -1.9547 -1.1764
 9878TIP3   OH251048   3.231   0.972  15.955  0.4320 -0.3212  0.4741
 9878TIP3    H151049   3.327   0.970  15.954  0.4362 -1.3496  1.4816
 9878TIP3    H251050   3.207   1.019  15.875  1.7545 -1.2077 -0.4739
 9879TIP3   OH251051   2.589   5.365  15.574 -0.0834  0.1567  0.0899
 9879TIP3    H151052   2.496   5.370  15.553  0.0016 -0.7573 -0.5547
 9879TIP3    H251053   2.633   5.412  15.503  0.0663 -1.2080 -0.7663
 9880TIP3   OH251054   1.714   4.350  11.771 -0.4120 -0.6793  0.2221
 9880TIP3    H151055   1.755   4.308  11.846 -2.0508 -0.2813  1.4004
 9880TIP3    H251056   1.781   4.350  11.703  1.1978 -0.8083  1.7607
 9881TIP3   OH251057   4.795   4.211  13.992  0.3603  0.5415  0.6098
 9881TIP3    H151058   4.720   4.257  13.955 -0.1299 -0.0674  0.8134
 9881TIP3    H251059   4.777   4.118  13.974  0.0739  0.2048  2.3843
 9882TIP3   OH251060   5.070   5.209  14.681  0.0662 -0.1029 -0.1629
 9882TIP3    H151061   5.149   5.260  14.695  0.4457 -0.9779  0.9859
 9882TIP3    H251062   5.003   5.253  14.734  0.2733 -0.5021  0.4359
 9883TIP3   OH251063   2.478   0.098   4.597 -0.2694 -0.1375 -0.2440
 9883TIP3    H151064   2.515   0.141   4.674 -2.3706 -2.3393  2.1858
 9883TIP3    H251065   2.399   0.147   4.576  0.5332  0.7278 -1.3544
 9884TIP3   OH251066   1.443   1.179   2.820 -0.0209  0.2326 -0.2091
 9884TIP3    H151067   1.498   1.233   2.877  2.6588 -2.4977  0.0508
 9884TIP3    H251068   1.397   1.120   2.880  0.3945 -0.5839 -0.6729
 9885TIP3   OH251069   3.492   4.003   3.505  0.3952  0.3335 -0.0461
 9885TIP3    H151070   3.433   4.065   3.461  1.9524  0.7548 -1.6408
 9885TIP3    H251071   3.476   3.920   3.461 -0.6591 -0.1286  1.1327
 9886TIP3   OH251072   5.051   0.251  15.549 -0.0494  0.2758 -0.5578
 9886TIP3    H151073   5.061   0.242  15.455 -0.5090  0.1918 -0.5998
 9886TIP3    H251074   4.958   0.238  15.565 -0.3925  2.5395 -0.3538
 9887TIP3   OH251075   2.861   1.244   1.309 -0.2048  0.0908  0.7551
 9887TIP3    H151076   2.880   1.194   1.230 -0.4630  0.6336  0.3384
 9887TIP3    H251077   2.841   1.332   1.277 -2.4587 -0.2048  1.2472
 9888TIP3   OH251078   1.530   1.085  11.709  0.0151 -0.1758 -0.4345
 9888TIP3    H151079   1.544   1.173  11.673  1.6790 -0.3121 -0.2180
 9888TIP3    H251080   1.441   1.087  11.744  0.1120  1.5128 -0.1909
 9889TIP3   OH251081   6.611   3.940  11.805 -0.2879  0.2985 -0.2720
 9889TIP3    H151082   6.539   3.957  11.865  0.7043 -0.1779  1.1082
 9889TIP3    H251083   6.669   4.016  11.815 -0.5095  0.6061 -1.2520
 9890TIP3   OH251084   5.431   2.517   5.125 -0.2752  0.5613 -0.3905
 9890TIP3    H151085   5.357   2.522   5.064  0.7708  2.5116 -1.6267
 9890TIP3    H251086   5.429   2.600   5.171 -0.5156 -0.5401  1.6863
 9891TIP3   OH251087   1.313   1.377  11.787 -0.1270  0.0803  0.0729
 9891TIP3    H151088   1.331   1.419  11.871 -1.1345  0.2443  0.2240
 9891TIP3    H251089   1.249   1.309  11.807 -0.0994 -0.1229 -0.5047
 9892TIP3   OH251090   1.048   5.934   5.106 -0.1629 -0.0980 -0.3713
 9892TIP3    H151091   1.007   5.847   5.101 -0.2625 -0.1287  0.8415
 9892TIP3    H251092   0.974   5.994   5.121  0.1010 -0.0131  0.5996
 9893TIP3   OH251093   6.423   4.750   0.442 -0.2372  0.3268 -0.4023
 9893TIP3    H151094   6.329   4.767   0.442 -0.4069 -0.5654 -0.5678
 9893TIP3    H251095   6.438   4.693   0.366  0.4136  0.3322 -0.2904
 9894TIP3   OH251096   5.596   4.664   3.296 -0.4486  0.1991 -0.3864
 9894TIP3    H151097   5.634   4.740   3.340 -1.7064  1.8887 -2.0986
 9894TIP3    H251098   5.504   4.664   3.322 -0.5470 -0.5377 -0.6980
 9895TIP3   OH251099   1.913   2.283   5.696 -0.6071  0.0943 -0.2672
 9895TIP3    H151100   1.939   2.199   5.733 -0.4676 -0.4009 -1.4226
 9895TIP3    H251101   1.971   2.295   5.620  1.2769  2.5657  1.4080
 9896TIP3   OH251102   1.472   3.928   1.768 -0.1404 -0.4399 -0.4084
 9896TIP3    H151103   1.455   3.891   1.681  0.5579 -2.1189  0.1321
 9896TIP3    H251104   1.548   3.984   1.756 -0.2196 -0.4378 -0.9248
 9897TIP3   OH251105   6.040   1.317   1.239 -0.6221  0.3088  0.0574
 9897TIP3    H151106   6.081   1.385   1.293  0.0037 -2.1437  2.9794
 9897TIP3    H251107   6.106   1.248   1.233 -1.4714 -0.3839 -2.2210
 9898TIP3   OH251108   3.710   6.006   2.806  0.3778 -0.1603  0.1106
 9898TIP3    H151109   3.703   5.949   2.883  0.8446  1.3576  1.3296
 9898TIP3    H251110   3.638   5.979   2.749 -2.0871  0.7876  2.5531
 9899TIP3   OH251111   6.184   6.616   0.032  0.4177 -0.4477  0.1509
 9899TIP3    H151112   6.108   6.613  -0.025 -0.2006  0.5438  0.8833
 9899TIP3    H251113   6.201   6.710   0.043  0.4213 -0.6086  1.7092
 9900TIP3   OH251114   6.443   4.437   5.391 -0.3752 -0.0539  0.3931
 9900TIP3    H151115   6.510   4.447   5.460  0.8872 -2.1503 -0.4273
 9900TIP3    H251116   6.447   4.519   5.342  2.3802 -0.4791 -0.2500
 9901TIP3   OH251117   0.007   2.829   0.469 -0.6520 -0.2699  0.0447
 9901TIP3    H151118  -0.073   2.873   0.498 -0.7715 -0.0944 -0.5423
 9901TIP3    H251119  -0.021   2.774   0.396 -0.2928 -0.4593  0.0460
 9902TIP3   OH251120   6.021   6.687  13.512 -0.6658 -0.3167 -0.7897
 9902TIP3    H151121   6.051   6.598  13.497  0.3426 -0.6668  2.4587
 9902TIP3    H251122   6.101   6.737  13.530 -1.3779  0.6767 -0.2680
 9903TIP3   OH251123   0.584   3.303  16.710 -0.0125 -0.4534  0.7997
 9903TIP3    H151124   0.675   3.277  16.701 -0.0447 -0.4867  0.5615
 9903TIP3    H251125   0.583   3.396  16.689 -0.0338 -0.4546  0.7942
 9904TIP3   OH251126   2.814   5.421   4.603  0.6087 -0.8004  0.1963
 9904TIP3    H151127   2.869   5.497   4.582  0.3371 -0.3777  0.9843
 9904TIP3    H251128   2.748   5.455   4.663  1.2771 -1.9254  1.6300
 9905TIP3   OH251129   1.153   4.554   2.016 -0.2198  0.6608  0.1723
 9905TIP3    H151130   1.130   4.631   2.068 -0.5498  0.2456  0.6485
 9905TIP3    H251131   1.187   4.491   2.080  2.0764  1.1640 -0.4623
 9906TIP3   OH251132   4.540   5.424  14.565  0.3702  0.3608 -0.1236
 9906TIP3    H151133   4.604   5.361  14.534  0.3941 -1.2256  2.8205
 9906TIP3    H251134   4.459   5.402  14.519  1.2790  0.7866 -2.0091
 9907TIP3   OH251135   2.664   6.406  11.017 -0.6084  0.4910  0.0677
 9907TIP3    H151136   2.619   6.390  10.934  1.2612  0.3432 -0.9791
 9907TIP3    H251137   2.737   6.465  10.994 -0.3854  0.9170  1.7183
 9908TIP3   OH251138   1.921   3.417   6.698  0.5047  0.0832 -0.4053
 9908TIP3    H151139   1.970   3.500   6.706 -0.7516  0.9159 -0.9847
 9908TIP3    H251140   1.843   3.431   6.751  1.3836 -1.6762  1.4888
 9909TIP3   OH251141   5.594   3.392   4.284 -0.8812 -0.4880  0.0376
 9909TIP3    H151142   5.661   3.456   4.262  0.8274 -2.0296  0.5141
 9909TIP3    H251143   5.514   3.426   4.244 -0.3180  2.4398  1.1339
 9910TIP3   OH251144   0.818   2.265   3.342  0.0176 -0.0672 -0.3258
 9910TIP3    H151145   0.833   2.252   3.249  1.0162  0.5404 -0.2604
 9910TIP3    H251146   0.743   2.209   3.362  0.0237 -0.4854 -1.4109
 9911TIP3   OH251147   3.073   6.285   3.853 -0.1232  0.2224 -0.2136
 9911TIP3    H151148   3.066   6.196   3.886 -0.1280  0.1439 -0.4239
 9911TIP3    H251149   3.066   6.340   3.931  0.0283  0.0352 -0.0659
 9912TIP3   OH251150   4.122   2.388  16.625  0.5026  0.5684  0.0942
 9912TIP3    H151151   4.107   2.480  16.604 -0.4258  0.3504 -0.2511
 9912TIP3    H251152   4.057   2.368  16.693  1.6617  0.5392  1.2318
 9913TIP3   OH251153   1.386   5.353  16.862  0.4600  0.2356 -0.1987
 9913TIP3    H151154   1.340   5.428  16.823 -2.2187 -0.3685  1.4809
 9913TIP3    H251155   1.357   5.278  16.810  0.4406 -0.0125  0.1636
 9914TIP3   OH251156   6.557   2.196   1.045 -0.2478 -0.0690 -0.6211
 9914TIP3    H151157   6.619   2.128   1.073  1.3042  1.2131 -0.8423
 9914TIP3    H251158   6.488   2.192   1.111  1.0728 -0.1919  0.8334
 9915TIP3   OH251159   1.831   5.469   5.495  0.1876 -0.3859  0.1858
 9915TIP3    H151160   1.829   5.484   5.401  0.1794 -1.8189 -0.0578
 9915TIP3    H251161   1.766   5.530   5.530 -0.9487 -0.9135 -0.9115
 9916TIP3   OH251162   4.766   3.393   5.186 -0.2322  0.4564 -0.0010
 9916TIP3    H151163   4.736   3.373   5.275 -0.8017  1.4567  0.0482
 9916TIP3    H251164   4.860   3.408   5.195 -0.1935  0.0395  0.3308
 9917TIP3   OH251165   2.317   3.500   5.800 -0.7564 -0.4408  0.1173
 9917TIP3    H151166   2.343   3.575   5.854 -2.7985  0.9676 -0.7494
 9917TIP3    H251167   2.269   3.443   5.860  0.6908 -1.0458  0.7497
 9918TIP3   OH251168   6.646   2.014   3.224  0.3566 -0.6570  0.1969
 9918TIP3    H151169   6.551   2.003   3.225  0.2198  0.2634 -0.5156
 9918TIP3    H251170   6.662   2.075   3.151  1.5610 -1.4018 -0.1871
 9919TIP3   OH251171   2.322   3.984  16.786 -0.1167  0.1104  0.0990
 9919TIP3    H151172   2.298   3.960  16.697 -2.2674  0.1854  0.6138
 9919TIP3    H251173   2.405   4.031  16.776  0.4637 -1.1889 -1.6682
 9920TIP3   OH251174   4.491   2.188   5.651 -0.2194  0.0467  0.1275
 9920TIP3    H151175   4.404   2.200   5.614 -0.0172 -3.0846 -1.6972
 9920TIP3    H251176   4.477   2.186   5.746 -1.9490  0.5496 -0.0873
 9921TIP3   OH251177   6.124   3.604  14.407 -0.0027  0.3070  0.2589
 9921TIP3    H151178   6.104   3.540  14.339 -1.4621  0.8157  0.1755
 9921TIP3    H251179   6.040   3.623  14.448  0.3195  2.3633  0.0947
 9922TIP3   OH251180   2.524   6.467   6.026  0.5750 -0.3038 -0.1046
 9922TIP3    H151181   2.512   6.531   6.095 -0.3506  1.6576 -1.9769
 9922TIP3    H251182   2.613   6.434   6.039  0.6990  0.5911  1.5191
 9923TIP3   OH251183   4.985   1.699   4.226  0.1070 -0.5760 -0.0927
 9923TIP3    H151184   4.915   1.637   4.205  1.0175 -1.1650 -1.4985
 9923TIP3    H251185   4.982   1.765   4.157  0.6483 -0.3592  0.0810
 9924TIP3   OH251186   3.749   5.511   5.227 -0.6378  0.7349  0.3069
 9924TIP3    H151187   3.788   5.549   5.148  1.4031 -1.7606 -0.0014
 9924TIP3    H251188   3.783   5.566   5.298  0.8646  0.5853 -0.2490
 9925TIP3   OH251189   2.165   1.507  14.966 -0.7311 -0.0521  0.6161
 9925TIP3    H151190   2.166   1.440  14.897  1.0011 -0.6935  1.2111
 9925TIP3    H251191   2.256   1.534  14.975 -0.4207 -1.6332  4.1489
 9926TIP3   OH251192   4.125   3.368  13.504 -0.0215 -0.2084 -0.5778
 9926TIP3    H151193   4.121   3.305  13.576 -0.5000  2.1666  1.6772
 9926TIP3    H251194   4.165   3.446  13.544 -0.0902  1.1453 -2.9904
 9927TIP3   OH251195   6.800   5.925   1.622 -0.0799 -0.4807 -0.1251
 9927TIP3    H151196   6.738   5.954   1.689 -1.7440 -0.4492 -1.6038
 9927TIP3    H251197   6.860   5.867   1.669 -0.8450 -0.0333  1.4993
 9928TIP3   OH251198   1.808   2.750   1.648  0.6324  0.3004  0.2907
 9928TIP3    H151199   1.884   2.808   1.651  0.6017  0.5146 -1.8003
 9928TIP3    H251200   1.839   2.672   1.602  0.1117 -0.4975  1.2395
 9929TIP3   OH251201   6.418   1.786   4.156  0.0860  0.3341  0.0929
 9929TIP3    H151202   6.452   1.709   4.110  2.7394  0.4577  1.6885
 9929TIP3    H251203   6.457   1.861   4.109  2.2753  0.4752  1.9650
 9930TIP3   OH251204   6.428   4.849   0.895  0.5887  0.5271  0.7287
 9930TIP3    H151205   6.390   4.807   0.818 -1.6058  0.3288  1.8518
 9930TIP3    H251206   6.467   4.776   0.944 -1.7365 -0.0781  1.8328
 9931TIP3   OH251207   0.357   3.118   0.669  0.6038  0.3283 -0.3718
 9931TIP3    H151208   0.276   3.098   0.623  1.1338  1.0194 -1.6759
 9931TIP3    H251209   0.397   3.033   0.686  1.3948  0.0473 -3.1337
 9932TIP3   OH251210   1.683   1.051  16.146  0.0531  0.0531 -0.0201
 9932TIP3    H151211   1.752   1.098  16.192  1.4328  0.6550 -2.5893
 9932TIP3    H251212   1.624   1.119  16.115 -0.6518 -0.3218  0.4598
 9933TIP3   OH251213   1.673   5.150  16.087  0.0619  0.1192  0.0367
 9933TIP3    H151214   1.703   5.121  16.001  2.3431 -1.0819  1.1453
 9933TIP3    H251215   1.676   5.071  16.141 -0.9194  0.9326  1.3323
 9934TIP3   OH251216   2.833   2.011   2.578  0.7023  0.3809 -0.0866
 9934TIP3    H151217   2.868   2.044   2.661 -1.7002  0.9125  0.7840
 9934TIP3    H251218   2.803   2.090   2.532 -0.2741 -0.1233 -0.3311
 9935TIP3   OH251219   0.627   2.435   5.875 -0.0524  0.2726  0.2980
 9935TIP3    H151220   0.621   2.530   5.864  0.8300  0.3577  0.4435
 9935TIP3    H251221   0.647   2.423   5.968  0.0247 -0.0456  0.2413
 9936TIP3   OH251222   3.625   2.238   1.620  0.3645 -0.1132 -0.6145
 9936TIP3    H151223   3.535   2.208   1.632  0.7278 -0.6856  0.9128
 9936TIP3    H251224   3.664   2.232   1.707  1.1882  2.5076 -0.7285
 9937TIP3   OH251225   2.453   6.352  13.789  0.8393  0.1059 -0.5787
 9937TIP3    H151226   2.426   6.308  13.869  0.6088 -0.1397 -0.7898
 9937TIP3    H251227   2.371   6.369  13.742  0.8563  1.4250 -0.1611
 9938TIP3   OH251228   2.651   4.881  15.727  0.1286  0.1300 -0.2407
 9938TIP3    H151229   2.735   4.854  15.765 -0.3591 -1.4352 -0.2241
 9938TIP3    H251230   2.618   4.948  15.787  1.1190  0.4067  0.0209
 9939TIP3   OH251231   3.513   3.768  13.576 -0.1188  0.0037  0.5441
 9939TIP3    H151232   3.428   3.773  13.532  0.7654  0.7539 -1.2028
 9939TIP3    H251233   3.532   3.859  13.600  0.4890 -0.0514  0.2895
 9940TIP3   OH251234   3.878   3.660  12.769  0.4274 -0.0114 -0.2633
 9940TIP3    H151235   3.950   3.600  12.750  0.5014  0.2505 -0.8359
 9940TIP3    H251236   3.917   3.727  12.826  0.1942 -0.8263  0.8779
 9941TIP3   OH251237   3.639   0.904   5.342 -0.0654 -0.7991  0.2960
 9941TIP3    H151238   3.715   0.954   5.312  0.4827 -1.4302  0.6154
 9941TIP3    H251239   3.640   0.824   5.289 -1.2643 -0.2405 -0.6110
 9942TIP3   OH251240   4.778   4.131   0.026  0.0730 -0.2656 -0.3791
 9942TIP3    H151241   4.844   4.068  -0.004 -0.2730 -1.7555  1.7820
 9942TIP3    H251242   4.817   4.173   0.103 -1.7182 -1.8221  1.5000
 9943TIP3   OH251243   2.167   6.521  12.476  0.0514  0.2621 -0.5822
 9943TIP3    H151244   2.084   6.551  12.514  0.7930  2.0325 -0.2744
 9943TIP3    H251245   2.201   6.597  12.429  2.6228  0.3834  1.2733
 9944TIP3   OH251246   1.439   2.354  13.447  0.1853  0.1347 -0.1698
 9944TIP3    H151247   1.366   2.321  13.499 -0.5524 -0.1970 -1.3719
 9944TIP3    H251248   1.414   2.443  13.423  0.5469  0.3073  0.0806
 9945TIP3   OH251249   5.041   3.150  12.423  0.0908 -0.0665  0.1014
 9945TIP3    H151250   5.050   3.124  12.514  0.1237 -1.4744 -0.2778
 9945TIP3    H251251   5.120   3.117  12.380 -0.2240  0.0039 -0.5533
 9946TIP3   OH251252   6.043   5.892  14.786  0.0635  0.7476  0.4046
 9946TIP3    H151253   6.103   5.957  14.823 -0.9866  1.0899  1.5365
 9946TIP3    H251254   6.088   5.862  14.707  2.3692  0.0021  1.8886
 9947TIP3   OH251255   2.593   3.950   5.064 -0.3394  0.1202  0.5572
 9947TIP3    H151256   2.627   3.958   5.153 -0.3319  0.3977  0.5309
 9947TIP3    H251257   2.522   4.014   5.060 -1.7865 -1.4030  1.0456
 9948TIP3   OH251258   5.970   5.096   1.188 -0.4929  0.3781 -0.1258
 9948TIP3    H151259   6.002   5.012   1.223 -1.3157  0.7533  1.6106
 9948TIP3    H251260   5.907   5.071   1.120 -1.1714 -0.4453  0.7753
 9949TIP3   OH251261   6.592   6.341   4.050 -0.1480 -0.1469  0.5528
 9949TIP3    H151262   6.589   6.273   4.117  2.4846 -0.3128  0.6120
 9949TIP3    H251263   6.593   6.423   4.099  0.7925 -0.2351  0.6975
 9950TIP3   OH251264   2.524   2.007   4.370  0.4835 -0.0741  0.3825
 9950TIP3    H151265   2.444   1.954   4.368  0.2107  0.1406  2.5974
 9950TIP3    H251266   2.551   2.006   4.462  0.7796  3.1497  0.4679
 9951TIP3   OH251267   4.638   2.180  14.025  0.4128  0.0805  0.3996
 9951TIP3    H151268   4.715   2.191  13.969  1.2721  1.7748  1.8164
 9951TIP3    H251269   4.642   2.089  14.054  0.9035 -0.3362 -0.8760
 9952TIP3   OH251270   6.779   6.420  11.643 -0.0726 -0.2962  0.3405
 9952TIP3    H151271   6.789   6.329  11.614  1.8955 -0.2089  0.6139
 9952TIP3    H251272   6.766   6.414  11.738 -2.0079 -0.3538  0.1129
 9953TIP3   OH251273   1.503   2.591   4.758  0.3712  0.3328 -0.3974
 9953TIP3    H151274   1.547   2.519   4.803  0.2867  0.4420 -0.1377
 9953TIP3    H251275   1.573   2.636   4.710  0.9940  1.9279  1.8742
 9954TIP3   OH251276   3.408   0.527  13.025 -0.2482  0.0657 -0.6090
 9954TIP3    H151277   3.435   0.567  13.108 -0.8784 -1.1475  0.2134
 9954TIP3    H251278   3.431   0.592  12.959  0.3104  1.0508  0.5055
 9955TIP3   OH251279   0.469   5.313  12.758  0.3499  0.2794 -0.0408
 9955TIP3    H151280   0.395   5.352  12.710 -1.9305 -0.1060  2.8832
 9955TIP3    H251281   0.503   5.385  12.811  0.5651 -0.0964  0.3370
 9956TIP3   OH251282   1.487   3.183   4.081  0.4033 -0.8688  0.3484
 9956TIP3    H151283   1.442   3.107   4.043 -0.8680 -0.4022  0.8509
 9956TIP3    H251284   1.532   3.149   4.158  0.8562 -1.3285 -0.1068
 9957TIP3   OH251285   4.472   1.644   0.365  0.0959  0.1109 -0.4680
 9957TIP3    H151286   4.470   1.566   0.309 -0.7465 -0.0030 -0.2843
 9957TIP3    H251287   4.464   1.610   0.454  0.9129  0.3297 -0.3062
 9958TIP3   OH251288   6.761   4.267   3.181 -0.0025  0.0106  0.2017
 9958TIP3    H151289   6.786   4.254   3.272  0.5503  0.5231  0.1289
 9958TIP3    H251290   6.808   4.346   3.154 -1.1168  0.5539 -0.1724
 9959TIP3   OH251291   6.177   3.768   5.371  0.3231 -0.0696 -0.1867
 9959TIP3    H151292   6.217   3.853   5.355  0.7516 -0.0915  0.7213
 9959TIP3    H251293   6.157   3.768   5.465  1.8753 -1.6067  0.1920
 9960TIP3   OH251294   2.466   0.224  13.794  0.2772 -0.1421  0.2057
 9960TIP3    H151295   2.476   0.223  13.699  0.2705  0.2112  0.2018
 9960TIP3    H251296   2.466   0.317  13.818  2.5980 -0.2183  0.7912
 9961TIP3   OH251297   3.268   3.313   1.380 -0.0672 -0.0650  0.3700
 9961TIP3    H151298   3.202   3.286   1.444  0.3282 -0.9339  0.4361
 9961TIP3    H251299   3.293   3.231   1.337  0.2277  0.4026 -0.3577
 9962TIP3   OH251300   6.436   2.963  15.396 -0.3283 -0.1951 -0.3104
 9962TIP3    H151301   6.444   3.034  15.332  0.7609 -0.0241 -0.0061
 9962TIP3    H251302   6.390   3.003  15.470  2.1699  0.8558  0.7545
 9963TIP3   OH251303   3.285   2.030  10.630 -0.2903  0.3885 -0.2859
 9963TIP3    H151304   3.316   1.947  10.667  0.6108  0.9244  0.2171
 9963TIP3    H251305   3.289   2.017  10.536 -0.6174 -0.2999 -0.2160
 9964TIP3   OH251306   0.741   0.339  14.652  0.1389 -0.2534  0.2484
 9964TIP3    H151307   0.812   0.275  14.653 -0.0770 -0.4886  0.6485
 9964TIP3    H251308   0.763   0.398  14.580  1.3289  0.3370  1.0513
 9965TIP3   OH251309   2.196   6.610  11.652  0.4948  0.0833  0.0518
 9965TIP3    H151310   2.212   6.699  11.684 -3.1808  0.2415  2.0176
 9965TIP3    H251311   2.173   6.623  11.559  2.5874  0.7642 -0.4251
 9966TIP3   OH251312   2.989   2.301   1.127  0.2605  0.6739  0.4169
 9966TIP3    H151313   2.930   2.225   1.130  1.6149 -0.4079  0.6623
 9966TIP3    H251314   2.932   2.376   1.143 -1.0207 -0.3483  0.8193
 9967TIP3   OH251315   3.615   1.457  14.937 -0.0999 -0.3008  0.3710
 9967TIP3    H151316   3.649   1.514  15.006 -1.5457  3.6114 -1.7889
 9967TIP3    H251317   3.522   1.480  14.932 -0.5139 -2.1037 -1.4228
 9968TIP3   OH251318   0.936   1.408   0.037  0.3411 -0.7602  0.1268
 9968TIP3    H151319   0.878   1.370  -0.029  0.1473 -2.1031  1.0200
 9968TIP3    H251320   1.021   1.367   0.021  1.0124  0.9418 -0.9550
 9969TIP3   OH251321   3.062   2.858  13.293  0.1114  0.0176  0.1599
 9969TIP3    H151322   3.153   2.886  13.279 -0.4700  1.4202 -1.1270
 9969TIP3    H251323   3.025   2.924  13.350 -0.2874 -0.1695  0.1202
 9970TIP3   OH251324   4.630   0.233  11.269 -0.2729 -0.4989 -0.2692
 9970TIP3    H151325   4.701   0.249  11.332 -0.6998 -0.2953  0.1619
 9970TIP3    H251326   4.651   0.289  11.194  0.2787 -0.8013 -0.3513
 9971TIP3   OH251327   4.418   1.683   2.423  0.0745  0.0459 -0.1543
 9971TIP3    H151328   4.346   1.724   2.374 -0.9904 -1.6515 -0.0974
 9971TIP3    H251329   4.466   1.633   2.357  0.2154 -0.1388  0.0862
 9972TIP3   OH251330   2.872   3.729  16.297  0.6925  0.0733 -0.0419
 9972TIP3    H151331   2.918   3.658  16.342  0.8709 -1.1750 -2.0493
 9972TIP3    H251332   2.942   3.788  16.267  0.5017  1.5670  2.2478
 9973TIP3   OH251333   0.962   5.110  10.825 -0.4196 -0.3254  0.1950
 9973TIP3    H151334   0.876   5.101  10.783  0.3814  1.5308 -2.0224
 9973TIP3    H251335   1.008   5.029  10.803 -0.3493  0.2285 -1.8229
 9974TIP3   OH251336   6.692   4.017  16.531 -0.1785  0.2565 -0.4022
 9974TIP3    H151337   6.659   3.931  16.560 -0.2205  0.1391 -0.7964
 9974TIP3    H251338   6.677   4.074  16.606 -1.0861  0.1542 -0.4925
 9975TIP3   OH251339   1.805   0.460   2.296 -0.6239 -0.2025  0.2705
 9975TIP3    H151340   1.896   0.468   2.327 -0.2430  0.4349 -0.9323
 9975TIP3    H251341   1.806   0.502   2.209 -1.9344 -0.7276 -0.0164
 9976TIP3   OH251342   0.015   2.939   3.028  0.3267  0.1078  0.3808
 9976TIP3    H151343   0.066   2.874   3.077  1.4949 -0.2836 -1.2403
 9976TIP3    H251344  -0.055   2.888   2.987  1.3654 -0.2366 -1.0603
 9977TIP3   OH251345   0.966   3.721   3.823  0.2672 -0.8320  0.4314
 9977TIP3    H151346   1.015   3.641   3.846 -1.8581 -2.2012  0.4720
 9977TIP3    H251347   0.875   3.699   3.842 -0.6657  0.7926 -1.7753
 9978TIP3   OH251348   6.096   5.895  12.232 -0.0006 -0.0119 -0.5230
 9978TIP3    H151349   6.188   5.902  12.256  0.2004  1.7880 -1.6561
 9978TIP3    H251350   6.075   5.978  12.191 -1.8401 -0.8141 -1.3345
 9979TIP3   OH251351   5.732   1.109   1.598 -0.5853  0.4489 -0.4797
 9979TIP3    H151352   5.692   1.064   1.672  1.0643  1.1889  0.9349
 9979TIP3    H251353   5.674   1.183   1.581 -0.6526  0.6290  0.4898
 9980TIP3   OH251354   6.777   1.276  11.737 -0.2397  0.1792 -0.4555
 9980TIP3    H151355   6.785   1.289  11.832 -0.6653 -0.9536 -0.2387
 9980TIP3    H251356   6.683   1.284  11.720 -0.3471 -0.9674 -0.5314
 9981TIP3   OH251357   1.682   6.578  16.567 -0.0054 -0.6023 -0.0507
 9981TIP3    H151358   1.660   6.597  16.658  1.7415  1.5445  0.0198
 9981TIP3    H251359   1.690   6.483  16.564 -0.0200 -0.7246  2.0603
 9982TIP3   OH251360   3.039   4.979  15.462  0.2529  0.0306  0.3979
 9982TIP3    H151361   3.071   4.945  15.379 -0.9786 -1.3687  0.4479
 9982TIP3    H251362   3.054   5.073  15.458  0.4473 -0.0531 -1.2968
 9983TIP3   OH251363   2.955   4.941   3.253  0.2754 -0.3204 -0.3700
 9983TIP3    H151364   2.979   4.852   3.225  0.4201 -0.3028 -0.2995
 9983TIP3    H251365   2.910   4.928   3.336 -0.3451 -0.3925 -0.7120
 9984TIP3   OH251366   5.355   5.391  10.588 -0.0147  0.8200 -0.2334
 9984TIP3    H151367   5.314   5.471  10.557  1.5251  1.5991 -0.3180
 9984TIP3    H251368   5.448   5.411  10.592  0.4036 -0.9680 -0.2540
 9985TIP3   OH251369   1.176   3.733   1.485  0.2612  0.1461  0.6737
 9985TIP3    H151370   1.178   3.684   1.567  0.6743  0.9153  1.1459
 9985TIP3    H251371   1.083   3.740   1.463  0.0922  0.5297  1.4616
 9986TIP3   OH251372   0.580   2.960   3.687 -0.0776 -0.1583 -0.4580
 9986TIP3    H151373   0.611   2.936   3.775 -1.0035  0.1724 -0.0306
 9986TIP3    H251374   0.513   2.895   3.666  0.8953 -0.9016 -1.4015
 9987TIP3   OH251375   0.983   4.462  15.962  0.4994 -0.1409  0.1728
 9987TIP3    H151376   1.062   4.499  15.923  1.0838  0.1905  1.5844
 9987TIP3    H251377   0.912   4.519  15.933  1.1892  1.2828  1.1742
 9988TIP3   OH251378   0.741   3.814   3.637 -0.1465 -0.0151 -0.2428
 9988TIP3    H151379   0.746   3.733   3.586 -0.2252  1.0450 -2.0385
 9988TIP3    H251380   0.831   3.844   3.644 -0.0939 -0.3504  0.6077
 9989TIP3   OH251381   3.956   0.124  16.746  0.5285  0.0582 -0.2753
 9989TIP3    H151382   3.947   0.202  16.692  1.3220 -0.7973 -1.7242
 9989TIP3    H251383   3.963   0.156  16.835  0.1828  1.5938 -0.7819
 9990TIP3   OH251384   4.640   5.963   1.585 -0.0688 -0.4687 -0.1420
 9990TIP3    H151385   4.581   6.029   1.620 -0.7259 -0.2259 -1.6350
 9990TIP3    H251386   4.610   5.880   1.624  0.9762  0.0917  2.0091
 9991TIP3   OH251387   5.880   2.605   2.367 -0.6336 -0.4357  0.2458
 9991TIP3    H151388   5.813   2.568   2.424 -1.0386 -0.7421 -0.4154
 9991TIP3    H251389   5.944   2.643   2.427 -1.7941  0.5810  0.8687
 9992TIP3   OH251390   3.895   2.729  14.315 -0.1671  0.2487 -0.3259
 9992TIP3    H151391   3.988   2.726  14.337 -0.6776 -1.1112  1.9318
 9992TIP3    H251392   3.862   2.807  14.359 -0.2377  0.3662 -0.5822
 9993TIP3   OH251393   2.850   2.163  14.696  0.0247 -0.0586 -0.2285
 9993TIP3    H151394   2.836   2.172  14.602  0.0885 -1.3873 -0.3838
 9993TIP3    H251395   2.834   2.251  14.731  1.0363  0.7095 -1.5940
 9994TIP3   OH251396   6.293   0.527   4.253  0.3395 -0.4177 -0.4227
 9994TIP3    H151397   6.252   0.507   4.169 -0.3602 -1.5768  0.1624
 9994TIP3    H251398   6.250   0.467   4.315 -0.2674  1.4470  1.0578
 9995TIP3   OH251399   4.312   4.614   5.149  0.4444  0.6063  0.4121
 9995TIP3    H151400   4.347   4.695   5.110 -2.6349  1.9250  0.1299
 9995TIP3    H251401   4.270   4.569   5.076 -0.7774  0.4331  1.2047
 9996TIP3   OH251402   2.425   4.440   4.339 -0.2298  0.1023  0.3389
 9996TIP3    H151403   2.383   4.354   4.349  0.5828 -0.3758 -0.2194
 9996TIP3    H251404   2.511   4.429   4.379 -0.4108  0.9169  0.9939
 9997TIP3   OH251405   2.008   5.274  11.655 -0.5384 -0.4653 -0.1031
 9997TIP3    H151406   2.080   5.311  11.605 -0.5403 -0.6593 -0.2527
 9997TIP3    H251407   1.942   5.342  11.657 -0.4138 -0.3446 -0.1004
 9998TIP3   OH251408   1.104   0.477   5.456  0.4688  0.0225 -0.6277
 9998TIP3    H151409   1.059   0.548   5.411  1.2643 -0.0363 -1.5355
 9998TIP3    H251410   1.177   0.520   5.501 -0.2111  0.0558  0.5043
 9999TIP3   OH251411   0.876   3.504   1.609 -0.2267  0.1303 -0.0040
 9999TIP3    H151412   0.797   3.518   1.660  0.3737  1.7246  0.5364
 9999TIP3    H251413   0.948   3.512   1.672  0.4515  0.4712 -0.7953
10000TIP3   OH251414   5.087   1.809  14.693  0.2041 -0.4290 -0.0162
10000TIP3    H151415   5.142   1.732  14.704  0.9623 -0.1559 -1.6681
10000TIP3    H251416   5.123   1.873  14.754  0.5356 -0.8736  0.2584
10001TIP3   OH251417   3.133   2.593   4.352  0.3054  0.2852 -0.7167
10001TIP3    H151418   3.107   2.565   4.265  1.7381 -1.5290 -0.6202
10001TIP3    H251419   3.222   2.628   4.341 -0.1117  1.5660 -0.2234
10002TIP3   OH251420   1.289   3.381   4.131  0.1410 -0.2175  0.0126
10002TIP3    H151421   1.359   3.320   4.108  1.2433  1.3501 -0.9904
10002TIP3    H251422   1.282   3.440   4.056 -0.0345  1.6158  1.3917
10003TIP3   OH251423   3.542   1.451  13.642  0.6299 -0.1207 -0.4738
10003TIP3    H151424   3.510   1.518  13.702  0.7085  0.7009 -1.3415
10003TIP3    H251425   3.484   1.457  13.566  1.0685 -0.5758 -0.8488
10004TIP3   OH251426   3.482   0.277  16.004  0.2107 -0.3125 -0.1382
10004TIP3    H151427   3.401   0.312  16.041  1.9862  1.5054  2.3343
10004TIP3    H251428   3.457   0.192  15.968 -3.7715  2.0188 -3.8190
10005TIP3   OH251429   2.116   5.035  13.225 -0.6592  0.2259  0.3592
10005TIP3    H151430   2.021   5.043  13.215 -0.5296  0.8258 -0.4764
10005TIP3    H251431   2.130   5.039  13.320 -1.2761  2.7335  0.4068
10006TIP3   OH251432   5.329   0.780   0.911  0.0871 -0.3147  0.7134
10006TIP3    H151433   5.344   0.732   0.993  1.2181  0.2340  0.8366
10006TIP3    H251434   5.410   0.827   0.895 -0.5367  0.5180 -0.1128
10007TIP3   OH251435   2.841   4.863   2.744  0.1180  0.0751  0.2238
10007TIP3    H151436   2.768   4.909   2.703  0.3012 -0.8897 -1.2411
10007TIP3    H251437   2.865   4.919   2.818 -0.7350  1.4805 -0.5088
10008TIP3   OH251438   0.306   5.075   4.250 -0.0847 -0.3097  0.3661
10008TIP3    H151439   0.390   5.053   4.290  0.3665 -1.0766 -0.9489
10008TIP3    H251440   0.264   5.132   4.314  1.7570  0.7473  0.7165
10009TIP3   OH251441   5.223   0.580   5.073 -0.5638 -0.1537  0.2070
10009TIP3    H151442   5.307   0.587   5.118 -0.4162  1.7262 -0.2851
10009TIP3    H251443   5.174   0.516   5.124 -0.0585  1.1772  2.5259
10010TIP3   OH251444   1.985   3.225  13.932  0.1204 -0.2113  0.3171
10010TIP3    H151445   2.004   3.297  13.992  0.8152  0.0090 -0.1574
10010TIP3    H251446   1.959   3.152  13.989 -0.5372  0.3955  0.7990
10011TIP3   OH251447   1.061   6.720  13.382  0.3416  0.1234 -0.1538
10011TIP3    H151448   1.078   6.628  13.363  1.7832  0.7569 -2.3610
10011TIP3    H251449   1.102   6.767  13.309 -3.0259  2.3753 -0.8537
10012TIP3   OH251450   5.348   6.788  15.935 -0.2285  0.1371 -0.5856
10012TIP3    H151451   5.295   6.722  15.980  1.8987 -0.7777  0.7107
10012TIP3    H251452   5.335   6.771  15.842  0.9011 -2.7007 -0.3057
10013TIP3   OH251453   2.590   5.830   5.242  0.2198  0.5156 -0.0681
10013TIP3    H151454   2.650   5.756   5.231 -1.0371 -1.0308  2.3502
10013TIP3    H251455   2.640   5.906   5.214  1.3623 -1.2546 -3.3315
10014TIP3   OH251456   2.617   3.684   1.334 -0.0118  0.4247  0.8132
10014TIP3    H151457   2.569   3.745   1.390  0.0770 -0.4494  1.8740
10014TIP3    H251458   2.698   3.729   1.312 -1.0973  1.7644 -0.6841
10015TIP3   OH251459   1.607   2.777  13.058 -0.1520  0.5201 -0.3911
10015TIP3    H151460   1.671   2.727  13.109 -1.6500  0.0251  1.1051
10015TIP3    H251461   1.611   2.865  13.094 -0.5210  0.4153 -0.0937
10016TIP3   OH251462   4.068   2.150   1.731 -0.3161  0.4418  0.1450
10016TIP3    H151463   4.055   2.215   1.663  1.2943  0.7765  0.1230
10016TIP3    H251464   4.067   2.066   1.685  0.5629  0.6517 -0.2719
10017TIP3   OH251465   4.547   4.008  15.607  0.0430 -0.1759 -0.5120
10017TIP3    H151466   4.513   3.919  15.613  0.4157 -0.2783  0.1670
10017TIP3    H251467   4.554   4.025  15.513 -2.1208 -0.0610 -0.7028
10018TIP3   OH251468   2.303   0.994  13.927 -0.1744  0.4507  0.7433
10018TIP3    H151469   2.264   0.906  13.927  1.0543 -0.2424 -2.4214
10018TIP3    H251470   2.368   0.991  13.997 -0.9666 -0.7400  1.4823
10019TIP3   OH251471   1.654   4.292  16.994  0.3049  0.0360  0.2951
10019TIP3    H151472   1.709   4.262  16.922 -0.8145 -1.7144  0.1035
10019TIP3    H251473   1.583   4.228  16.998 -1.1226  1.5973  1.2377
10020TIP3   OH251474   6.385   5.702  12.580  0.3617 -0.1538 -0.5353
10020TIP3    H151475   6.401   5.729  12.671 -2.5248 -0.4516  0.1637
10020TIP3    H251476   6.364   5.609  12.587 -0.2143 -0.1033 -1.4608
10021TIP3   OH251477   3.317   0.407   3.077 -0.1775 -0.0322  0.2638
10021TIP3    H151478   3.350   0.424   3.166 -1.7997  0.9301  0.7092
10021TIP3    H251479   3.322   0.312   3.069 -0.1953 -0.1567  1.4668
10022TIP3   OH251480   4.213   4.394  11.492 -0.4529 -0.0262  0.0898
10022TIP3    H151481   4.175   4.430  11.572 -1.9830  0.1722 -0.6847
10022TIP3    H251482   4.289   4.345  11.522 -1.1628 -0.2218  1.7054
10023TIP3   OH251483   5.615   0.931  14.134  0.7486 -0.9417 -0.2297
10023TIP3    H151484   5.649   1.016  14.160  1.5826 -0.7896 -1.7321
10023TIP3    H251485   5.555   0.949  14.062  2.5434 -1.7168 -2.0403
10024TIP3   OH251486   4.851   1.159   2.401  0.2652  0.4633  0.5143
10024TIP3    H151487   4.826   1.093   2.466  0.1902  0.3382  0.3585
10024TIP3    H251488   4.776   1.164   2.341  0.9818 -0.6181 -0.5222
10025TIP3   OH251489   5.925   4.688   4.655 -0.0890 -0.6033  0.2618
10025TIP3    H151490   6.017   4.664   4.646  0.0806 -0.2192  0.8756
10025TIP3    H251491   5.917   4.716   4.746 -0.4173  0.9978 -0.2240
10026TIP3   OH251492   4.688   4.196  13.547 -0.4762 -0.4819  0.2458
10026TIP3    H151493   4.614   4.134  13.546  1.0911 -2.4461  0.2811
10026TIP3    H251494   4.663   4.262  13.612 -0.9569 -2.7234  2.4948
10027TIP3   OH251495   6.094   3.364  16.838  0.5275 -0.4081 -0.3265
10027TIP3    H151496   6.173   3.336  16.885  0.7138 -0.3125 -0.5795
10027TIP3    H251497   6.127   3.399  16.755  0.3922  1.5393  0.3845
10028TIP3   OH251498   1.239   0.207   4.058 -0.5567  0.7915 -0.1772
10028TIP3    H151499   1.289   0.242   4.132  2.6909  1.3544 -2.4106
10028TIP3    H251500   1.202   0.125   4.090  1.4407  0.5817  1.8548
10029TIP3   OH251501   2.986   4.269  15.841  0.8086  0.1702 -0.1770
10029TIP3    H151502   2.938   4.345  15.807  0.3922 -0.0014  0.0216
10029TIP3    H251503   2.964   4.199  15.780  0.6310  0.0373  0.0404
10030TIP3   OH251504   2.544   0.255   1.040 -0.4563 -0.0907 -0.2231
10030TIP3    H151505   2.487   0.244   0.964 -1.2246  0.2303  0.2926
10030TIP3    H251506   2.579   0.343   1.031 -1.4964  0.3989  0.4148
10031TIP3   OH251507   6.244   4.113   2.412  0.3373  0.5856 -0.2128
10031TIP3    H151508   6.204   4.055   2.348 -1.5327  1.2127  0.3315
10031TIP3    H251509   6.173   4.171   2.440  1.7718  2.1650  0.3573
10032TIP3   OH251510   5.018   1.821   5.357  0.2757 -0.3282 -0.0978
10032TIP3    H151511   5.081   1.779   5.298  1.6086  1.8173 -0.2976
10032TIP3    H251512   5.045   1.794   5.444 -0.0644 -1.3696 -0.2992
10033TIP3   OH251513   6.031   4.384  11.800  0.1885 -0.0720  0.3202
10033TIP3    H151514   6.078   4.325  11.858  2.1410  1.7802  0.7584
10033TIP3    H251515   6.029   4.467  11.848 -3.8132 -0.0207  0.4342
10034TIP3   OH251516   0.962   4.732   5.003 -0.2187 -0.2944 -0.4188
10034TIP3    H151517   1.005   4.707   4.921 -0.3501 -2.0647  0.0190
10034TIP3    H251518   0.930   4.650   5.040 -0.2290  0.4725  1.3841
10035TIP3   OH251519   1.235   3.766  13.775  0.0677 -0.2765 -0.0507
10035TIP3    H151520   1.150   3.761  13.818  0.4233 -0.0041  0.6926
10035TIP3    H251521   1.215   3.797  13.686 -0.6621 -0.8403 -0.0881
10036TIP3   OH251522   4.213   1.052  14.371 -0.4288 -0.5751  0.2927
10036TIP3    H151523   4.170   1.134  14.397 -0.4925 -0.3531 -0.4705
10036TIP3    H251524   4.265   1.076  14.294 -1.1263 -1.4243 -0.4634
10037TIP3   OH251525   0.248   6.329  13.163  0.1659  0.5786 -0.1112
10037TIP3    H151526   0.200   6.353  13.242 -2.4514  0.9034 -1.7091
10037TIP3    H251527   0.296   6.250  13.187 -3.1028 -1.2543  0.9992
10038TIP3   OH251528   4.935   3.768  13.829 -0.7214  0.3464  0.0560
10038TIP3    H151529   4.843   3.795  13.834 -1.5847 -2.4120  0.3724
10038TIP3    H251530   4.952   3.759  13.736 -1.2025 -0.4366  0.0363
10039TIP3   OH251531   1.350   3.964   2.915 -0.0106 -0.0294  0.0709
10039TIP3    H151532   1.285   3.902   2.949 -3.3329  2.1957 -1.8005
10039TIP3    H251533   1.375   3.929   2.830 -3.6449  2.0530 -2.0703
10040TIP3   OH251534   1.075   3.382  16.843  0.4075  0.2574  0.0688
10040TIP3    H151535   1.166   3.360  16.823  1.6987  2.0122  3.3209
10040TIP3    H251536   1.074   3.398  16.937 -3.2315  0.6599  0.0993
10041TIP3   OH251537   5.682   0.971   4.074  0.2431  0.4212 -0.1251
10041TIP3    H151538   5.644   0.888   4.103  0.8599 -0.2067 -1.0550
10041TIP3    H251539   5.632   0.994   3.996  0.2579  0.7902 -0.0289
10042TIP3   OH251540   5.477   5.302  16.374  0.1967  0.5573  0.1509
10042TIP3    H151541   5.435   5.229  16.420 -0.0358  0.8512  0.4146
10042TIP3    H251542   5.480   5.275  16.282 -2.1649  1.2292 -0.1883
10043TIP3   OH251543   4.583   6.427   4.673 -0.6044 -0.4203 -0.0687
10043TIP3    H151544   4.577   6.341   4.715  1.0166 -1.5593 -2.0192
10043TIP3    H251545   4.499   6.468   4.693 -1.5039 -2.5097  0.8109
10044TIP3   OH251546   3.919   5.586  15.383  0.6289  0.3393 -0.2529
10044TIP3    H151547   3.974   5.523  15.430 -2.5966 -2.1857  0.4247
10044TIP3    H251548   3.974   5.616  15.310  2.6796 -2.5199 -0.0422
10045TIP3   OH251549   6.316   0.751   3.881  0.3965  0.1543 -0.2646
10045TIP3    H151550   6.249   0.815   3.857  0.4146 -0.2001 -1.3221
10045TIP3    H251551   6.336   0.706   3.799  0.6426 -0.9597  0.3847
10046TIP3   OH251552   6.479   3.297  10.826  0.1626 -0.6793  0.2330
10046TIP3    H151553   6.560   3.319  10.872  0.4458 -2.8371  0.8719
10046TIP3    H251554   6.507   3.280  10.736  0.2781 -0.4596  0.2274
10047TIP3   OH251555   2.540   3.178  11.600  0.0451  0.4314  0.0469
10047TIP3    H151556   2.564   3.270  11.609  1.4282  0.2516 -1.3636
10047TIP3    H251557   2.571   3.154  11.513 -0.5231 -1.3127  0.2930
10048TIP3   OH251558   6.204   3.629   4.100 -0.5381  0.2204  0.0135
10048TIP3    H151559   6.231   3.599   4.187  0.6884 -0.7459 -0.6766
10048TIP3    H251560   6.166   3.716   4.116 -0.8022 -0.1421  1.5674
10049TIP3   OH251561   0.434   2.586   1.512 -0.1322 -0.3831 -0.4392
10049TIP3    H151562   0.510   2.644   1.519 -1.9296  2.1255 -0.4132
10049TIP3    H251563   0.400   2.601   1.423 -1.5764 -0.1056  0.1316
10050TIP3   OH251564   2.890   1.519   3.775  0.8890 -0.1809  0.0749
10050TIP3    H151565   2.827   1.456   3.743  2.4659 -1.3256 -0.9362
10050TIP3    H251566   2.897   1.501   3.868 -1.6348  1.2703  0.6377
10051TIP3   OH251567   6.166   6.102   1.552 -0.4182 -0.0410  0.1304
10051TIP3    H151568   6.212   6.083   1.470  0.6742 -1.2300  0.9725
10051TIP3    H251569   6.166   6.018   1.600 -0.9420  0.6426  1.3843
10052TIP3   OH251570   6.021   2.304  14.913 -0.0175 -0.1537  0.3820
10052TIP3    H151571   6.074   2.225  14.907 -1.1998 -1.0146  0.9980
10052TIP3    H251572   6.015   2.322  15.007  1.0756  1.2778  0.2222
10053TIP3   OH251573   5.062   5.834   1.928  0.5562  0.5688  0.0023
10053TIP3    H151574   5.130   5.781   1.969  1.1630  1.0866 -0.3375
10053TIP3    H251575   4.980   5.800   1.966  0.9284 -0.5974 -0.1854
10054TIP3   OH251576   4.509   3.706  14.721  0.1181 -0.2052 -0.0747
10054TIP3    H151577   4.561   3.696  14.642  1.2186 -0.3501  0.6460
10054TIP3    H251578   4.557   3.771  14.773 -0.8566  0.2676  0.2556
10055TIP3   OH251579   4.078   3.557  11.520  0.3490  0.0166  0.7892
10055TIP3    H151580   4.163   3.598  11.504 -0.3638  0.9452 -0.7987
10055TIP3    H251581   4.095   3.463  11.512  1.1097  0.2219 -0.2391
10056TIP3   OH251582   3.253   4.300   2.022  0.4348 -0.4839 -0.6304
10056TIP3    H151583   3.181   4.363   2.026 -1.0429 -2.1307 -0.1392
10056TIP3    H251584   3.234   4.247   1.944  1.1124 -0.9292 -0.4994
10057TIP3   OH251585   5.741   4.619   4.891 -0.1197 -0.6302 -0.0894
10057TIP3    H151586   5.794   4.698   4.902 -0.6439 -0.5187  2.1168
10057TIP3    H251587   5.800   4.547   4.913  0.8644 -1.1162 -3.7252
10058TIP3   OH251588   1.902   4.533  16.514 -0.4688  0.1515  0.0665
10058TIP3    H151589   1.978   4.569  16.561 -1.3194  0.1262  1.5243
10058TIP3    H251590   1.940   4.475  16.448  0.9064  2.6029 -1.4713
10059TIP3   OH251591   0.713   5.950   1.559  0.2386  0.0016  0.1356
10059TIP3    H151592   0.774   5.971   1.489 -1.3864 -1.5297 -1.8774
10059TIP3    H251593   0.647   6.019   1.555 -1.8112 -1.9200 -2.4085
10060TIP3   OH251594   0.367   6.559   4.754  0.1208 -0.3820 -0.7991
10060TIP3    H151595   0.303   6.542   4.685 -1.5353  0.5474  0.4427
10060TIP3    H251596   0.408   6.642   4.729  0.5913 -0.7888 -1.4029
10061TIP3   OH251597   3.183   4.579   3.455 -0.7644 -0.6960 -0.5900
10061TIP3    H151598   3.091   4.578   3.431 -1.3350  0.6913  1.3139
10061TIP3    H251599   3.217   4.660   3.416 -0.8662 -0.1837  0.3563
10062TIP3   OH251600   5.982   4.295  15.877  0.3893 -0.4038 -0.1960
10062TIP3    H151601   5.960   4.328  15.790 -0.2530  1.5767  0.6465
10062TIP3    H251602   6.008   4.204  15.863 -0.8449 -0.4888 -2.2797
10063TIP3   OH251603   4.615   3.056  16.176  0.5416 -0.0012 -0.0615
10063TIP3    H151604   4.661   3.037  16.094  0.1645  1.1393 -0.5520
10063TIP3    H251605   4.626   3.150  16.189 -0.7768  0.1175  0.3367
10064TIP3   OH251606   4.871   2.319  13.266  0.1855  0.0453  0.4549
10064TIP3    H151607   4.880   2.224  13.268 -2.1032 -0.2624 -0.1617
10064TIP3    H251608   4.812   2.338  13.339  0.5394  0.9699  0.5049
10065TIP3   OH251609   4.879   2.678   2.039 -0.5223  0.0033  0.0154
10065TIP3    H151610   4.924   2.593   2.042  1.0474  0.7321 -1.2508
10065TIP3    H251611   4.814   2.668   1.970 -0.4855 -0.2380  0.0145
10066TIP3   OH251612   4.701   1.801  14.533  0.1810  0.2570 -0.1740
10066TIP3    H151613   4.682   1.885  14.576 -0.9987  0.8318 -1.7287
10066TIP3    H251614   4.730   1.744  14.604 -2.0590  1.0318  1.4816
10067TIP3   OH251615   0.981   3.966  11.980 -0.0106  0.5566 -0.1040
10067TIP3    H151616   1.010   4.051  12.012 -1.3852  0.5315  1.3933
10067TIP3    H251617   1.025   3.954  11.896  0.1589  2.7587 -0.3723
10068TIP3   OH251618   5.159   4.650  10.584 -0.5865 -0.1864 -0.3629
10068TIP3    H151619   5.200   4.702  10.515  1.0688  1.5077  1.7166
10068TIP3    H251620   5.215   4.573  10.592 -0.6544 -0.2785 -0.8039
10069TIP3   OH251621   4.812   0.310   4.096 -0.0097  0.0499 -0.1076
10069TIP3    H151622   4.833   0.259   4.018 -1.5813 -0.6238 -0.1293
10069TIP3    H251623   4.875   0.281   4.161 -0.3511 -1.3329 -0.3638
10070TIP3   OH251624   1.851   2.501  13.782  0.3248  0.1788 -0.2084
10070TIP3    H151625   1.796   2.557  13.837 -0.1444  0.3781 -0.8656
10070TIP3    H251626   1.789   2.454  13.727  0.8147  0.5488 -1.1016
10071TIP3   OH251627   6.001   0.712  11.382  0.4084 -0.6892 -0.1529
10071TIP3    H151628   5.994   0.619  11.404  1.7493 -0.5756  0.8599
10071TIP3    H251629   6.068   0.715  11.313 -0.4224 -0.5623 -0.9802
10072TIP3   OH251630   4.974   1.234   2.700 -0.0080  0.5001  0.0796
10072TIP3    H151631   4.914   1.161   2.683  2.0544 -1.6925  1.4186
10072TIP3    H251632   4.990   1.272   2.614  0.2975 -1.9465 -1.0511
10073TIP3   OH251633   4.142   3.044  10.614 -0.1242 -0.3618 -0.0617
10073TIP3    H151634   4.192   3.075  10.690  0.2192  1.6113 -1.0220
10073TIP3    H251635   4.173   3.098  10.541 -3.4476  0.8305 -0.7741
10074TIP3   OH251636   4.030   0.393   1.371 -0.4657 -0.5432  0.0044
10074TIP3    H151637   3.938   0.388   1.397 -0.0254  0.6389  1.9633
10074TIP3    H251638   4.068   0.310   1.400 -1.1619 -1.7121 -2.1813
10075TIP3   OH251639   3.720   5.681  16.684  0.4619  0.1942  0.2929
10075TIP3    H151640   3.665   5.674  16.761 -0.7417 -0.8677 -0.6192
10075TIP3    H251641   3.701   5.602  16.633  1.6974  0.5490 -0.7822
10076TIP3   OH251642   3.913   3.543   0.164 -0.1508 -0.3887 -0.4162
10076TIP3    H151643   3.933   3.634   0.141 -2.5551 -0.2476 -2.4078
10076TIP3    H251644   3.941   3.535   0.255  0.2146  2.3241 -0.1833
10077TIP3   OH251645   4.565   0.145  16.639  0.2022 -0.0258  0.6233
10077TIP3    H151646   4.559   0.211  16.708  1.3742 -0.7815  1.4824
10077TIP3    H251647   4.494   0.084  16.657  1.6353 -1.2795  2.3682
10078TIP3   OH251648   5.027   4.691  15.167 -0.3215  0.1485 -0.1692
10078TIP3    H151649   4.964   4.714  15.235 -0.0788 -1.0709  0.4896
10078TIP3    H251650   5.064   4.775  15.140 -0.9667  0.7213  0.6625
10079TIP3   OH251651   3.457   1.371  11.919  0.3054 -0.1415  0.2415
10079TIP3    H151652   3.401   1.416  11.982 -1.3057  1.2322 -2.0029
10079TIP3    H251653   3.520   1.437  11.891  1.6730 -1.0364  1.0977
10080TIP3   OH251654   6.668   1.595  12.728  0.0698 -0.0341 -0.1059
10080TIP3    H151655   6.665   1.505  12.758 -0.5956  0.0131 -0.0187
10080TIP3    H251656   6.692   1.589  12.635 -3.5628 -0.6032 -1.2027
10081TIP3   OH251657   5.750   0.312   3.683  0.2798  0.1811 -0.1962
10081TIP3    H151658   5.816   0.344   3.622 -1.1207 -0.1017 -1.9535
10081TIP3    H251659   5.683   0.271   3.627 -1.9975  1.5299  1.3488
10082TIP3   OH251660   0.068   1.159  16.531  0.4197  0.0438  0.0230
10082TIP3    H151661   0.060   1.219  16.605 -0.1086 -0.0641  0.0604
10082TIP3    H251662   0.063   1.072  16.570 -0.1841 -0.0132 -0.1637
10083TIP3   OH251663   1.003   2.459   3.136  0.1245 -0.1407 -0.6435
10083TIP3    H151664   0.957   2.517   3.197 -0.2797 -2.2130  1.1655
10083TIP3    H251665   0.934   2.401   3.102  0.6740 -0.2623 -1.5812
10084TIP3   OH251666   1.372   1.115  14.054  0.2429 -0.0371  1.3180
10084TIP3    H151667   1.301   1.069  14.099 -1.9129  1.0551 -0.7297
10084TIP3    H251668   1.330   1.153  13.977  2.4788  2.9924  1.4267
10085TIP3   OH251669   3.549   2.941   3.194 -0.2120 -0.3231 -0.5708
10085TIP3    H151670   3.594   2.981   3.120  0.4702 -0.4397 -0.2217
10085TIP3    H251671   3.619   2.909   3.251 -0.7348 -0.6953 -0.1248
10086TIP3   OH251672   0.191   6.177   0.965  0.0121  0.2573  0.4718
10086TIP3    H151673   0.124   6.122   0.926  0.5126 -2.1941  2.7911
10086TIP3    H251674   0.154   6.265   0.962 -1.5050 -0.3667 -1.9801
10087TIP3   OH251675   2.882   2.967   4.536  0.6985  0.0630  0.3161
10087TIP3    H151676   2.852   2.953   4.626  2.5235 -0.2926  0.9094
10087TIP3    H251677   2.939   2.892   4.518  0.0489 -0.0758 -1.2907
10088TIP3   OH251678   2.695   0.427   0.076  0.1069  0.5384  0.5332
10088TIP3    H151679   2.708   0.410   0.170  2.1579  1.8805  0.5367
10088TIP3    H251680   2.629   0.496   0.073 -0.0308  0.4303  0.9654
10089TIP3   OH251681   0.296   3.803   4.860  0.2491  0.1263  0.2408
10089TIP3    H151682   0.373   3.753   4.834 -1.1635 -1.9042 -0.3315
10089TIP3    H251683   0.292   3.793   4.955  0.4033 -0.1975  0.2142
10090TIP3   OH251684   6.426   4.920   3.836  0.3489 -0.4244  0.4732
10090TIP3    H151685   6.459   4.831   3.824  0.2522 -0.2691 -1.1461
10090TIP3    H251686   6.469   4.971   3.768 -1.5597  0.2271 -0.3199
10091TIP3   OH251687   0.768   6.154  14.942  0.1519  0.0641 -0.0834
10091TIP3    H151688   0.831   6.086  14.964 -0.7184 -0.4302  0.9767
10091TIP3    H251689   0.764   6.209  15.020  0.4378  1.0266 -0.7289
10092TIP3   OH251690   6.807   5.856  13.784 -0.2286 -0.2494 -0.2455
10092TIP3    H151691   6.778   5.768  13.808 -1.2394  0.7191  2.3899
10092TIP3    H251692   6.746   5.884  13.716 -0.2577 -1.3402 -0.6841
10093TIP3   OH251693   5.571   4.529   5.125  0.6134 -0.5610 -0.4096
10093TIP3    H151694   5.543   4.478   5.049 -2.6478 -0.3513  0.5206
10093TIP3    H251695   5.581   4.618   5.092 -0.0922 -0.6042 -0.7573
10094TIP3   OH251696   0.243   1.588  14.264 -0.2319 -0.2579  0.4636
10094TIP3    H151697   0.300   1.538  14.206  1.7610  1.8316  0.4611
10094TIP3    H251698   0.259   1.551  14.351 -0.1718 -0.8068  0.2200
10095TIP3   OH251699   4.657   4.579  13.552 -0.2641 -0.1939  0.4027
10095TIP3    H151700   4.668   4.657  13.498 -0.9580  0.1755  0.7854
10095TIP3    H251701   4.682   4.606  13.640 -2.3884  0.1832  0.9475
10096TIP3   OH251702   1.822   0.867   0.430  0.5502 -0.1042 -0.6888
10096TIP3    H151703   1.815   0.773   0.444 -0.7937  0.0179 -0.4635
10096TIP3    H251704   1.903   0.892   0.476 -0.1317 -0.8367  1.0178
10097TIP3   OH251705   2.388   0.883  10.948 -0.1485  0.3863 -0.1671
10097TIP3    H151706   2.380   0.977  10.937  0.9597  0.3060 -1.8735
10097TIP3    H251707   2.448   0.872  11.022  0.8503  1.0236 -0.8765
10098TIP3   OH251708   3.284   2.503   1.363 -0.1940 -0.1960 -0.2225
10098TIP3    H151709   3.376   2.475   1.368 -0.1543  0.1356  1.1330
10098TIP3    H251710   3.277   2.547   1.278  0.8886 -0.2724 -0.3637
10099TIP3   OH251711   4.671   1.341  15.266 -0.0938  0.2240 -0.3867
10099TIP3    H151712   4.734   1.270  15.248 -0.8480 -0.8572  1.0720
10099TIP3    H251713   4.697   1.411  15.206  1.8234 -0.5950 -0.5954
10100TIP3   OH251714   2.800   2.583   4.813  0.7187  0.3670  0.2087
10100TIP3    H151715   2.742   2.618   4.746  1.2038 -1.3027 -1.1313
10100TIP3    H251716   2.820   2.658   4.869 -1.9782  1.1948  0.2096
10101TIP3   OH251717   3.353   2.832  13.988 -0.2397 -0.0886  0.5232
10101TIP3    H151718   3.421   2.899  13.984 -0.2460 -0.1245 -0.3009
10101TIP3    H251719   3.386   2.767  14.050  0.6350 -0.2727 -0.1195
10102TIP3   OH251720   1.094   6.019  15.233 -0.7435  0.5612  0.2975
10102TIP3    H151721   1.086   6.019  15.138  0.0920 -0.9862  0.1895
10102TIP3    H251722   1.006   6.039  15.265 -1.7496 -1.6870 -0.8224
10103TIP3   OH251723   1.715   2.827   0.889 -0.4512  0.9987 -0.3282
10103TIP3    H151724   1.775   2.847   0.817 -1.9836 -0.3898 -2.0952
10103TIP3    H251725   1.771   2.788   0.956  0.8076  0.9258 -1.3785
10104TIP3   OH251726   3.574   0.228  11.862 -0.8745 -0.3028  0.0399
10104TIP3    H151727   3.624   0.211  11.942 -0.1941  1.1287 -0.0493
10104TIP3    H251728   3.495   0.274  11.892  0.3151  2.0782 -0.1996
10105TIP3   OH251729   0.541   2.322  16.417  0.3149 -0.0404  0.4190
10105TIP3    H151730   0.623   2.329  16.368 -0.4371 -2.5831 -1.4663
10105TIP3    H251731   0.567   2.309  16.508  1.9941 -0.4161 -0.0926
10106TIP3   OH251732   3.653   1.275  12.824 -0.5376  0.1790  0.4510
10106TIP3    H151733   3.731   1.301  12.874 -0.8767  1.0154  0.5679
10106TIP3    H251734   3.581   1.287  12.886 -0.7026 -1.2767  0.5761
10107TIP3   OH251735   0.528   0.036   2.606 -1.1236 -0.4644  0.6739
10107TIP3    H151736   0.523   0.131   2.615 -1.9567 -0.0329 -2.8690
10107TIP3    H251737   0.613   0.013   2.644 -0.7281  1.7130  1.2538
10108TIP3   OH251738   1.198   2.791   1.942 -0.1901  0.0203  0.2684
10108TIP3    H151739   1.117   2.799   1.892 -0.7024 -0.3414  1.0115
10108TIP3    H251740   1.228   2.881   1.954  2.1871  0.0989 -4.1171
10109TIP3   OH251741   4.924   2.437  15.053 -0.1552  0.1081  1.0213
10109TIP3    H151742   4.882   2.508  15.102  0.8253  1.3654  0.1279
10109TIP3    H251743   4.871   2.360  15.071 -1.0339  0.9844  2.3458
10110TIP3   OH251744   2.939   6.124  14.332 -0.0397  0.4079  0.3368
10110TIP3    H151745   2.950   6.147  14.240 -0.9458  0.5570  0.2571
10110TIP3    H251746   2.880   6.191  14.366  0.3299  0.3831  1.0448
10111TIP3   OH251747   6.764   1.632   4.856 -0.5046 -0.5246  0.2109
10111TIP3    H151748   6.858   1.615   4.843 -0.0699  1.5583  0.3254
10111TIP3    H251749   6.761   1.720   4.894 -2.5753  0.0082 -1.0465
10112TIP3   OH251750   0.890   5.225  13.997  0.0831  0.4344 -0.3739
10112TIP3    H151751   0.943   5.148  14.020 -1.6915 -1.2563 -1.6103
10112TIP3    H251752   0.915   5.244  13.907  0.0406  0.9016 -0.2852
10113TIP3   OH251753   5.696   2.837  13.070  0.3552  0.4467 -0.3721
10113TIP3    H151754   5.720   2.896  12.998  0.2696  0.1486 -0.6423
10113TIP3    H251755   5.627   2.884  13.117 -0.7679 -0.0573 -1.4524
10114TIP3   OH251756   6.165   0.514   1.536  0.2757 -0.2210 -0.3328
10114TIP3    H151757   6.073   0.536   1.551 -0.0494 -1.4891 -0.3342
10114TIP3    H251758   6.206   0.597   1.513 -1.3551  0.0139 -2.7738
10115TIP3   OH251759   5.906   2.705  13.739  0.0040  0.6417  0.2511
10115TIP3    H151760   5.994   2.691  13.704  1.3222  0.1217  3.4442
10115TIP3    H251761   5.854   2.634  13.701  1.5127 -0.3784 -0.0007
10116TIP3   OH251762   6.638   5.474   5.873 -0.2843 -0.4619  0.7381
10116TIP3    H151763   6.566   5.479   5.936  0.8458 -0.4308  2.0597
10116TIP3    H251764   6.717   5.478   5.926  0.7150 -1.6518 -0.5841
10117TIP3   OH251765   6.577   0.865  16.854 -0.9124 -0.2008 -0.5899
10117TIP3    H151766   6.664   0.875  16.894 -0.5988  1.8212 -1.6669
10117TIP3    H251767   6.587   0.792  16.794 -0.1941 -0.5412 -0.0723
10118TIP3   OH251768   5.163   0.678  10.918 -0.6459 -0.7142 -0.2344
10118TIP3    H151769   5.245   0.687  10.967 -0.8661  0.7998 -0.1000
10118TIP3    H251770   5.185   0.620  10.845  0.9418  0.7673 -1.0145
10119TIP3   OH251771   0.732   2.694  11.879  0.0959  0.2046 -0.0213
10119TIP3    H151772   0.735   2.598  11.886 -0.2196  0.2735  1.2067
10119TIP3    H251773   0.663   2.710  11.815 -0.0041 -0.3829 -0.0727
10120TIP3   OH251774   1.242   3.405  16.075  0.4714  0.0671  1.1052
10120TIP3    H151775   1.302   3.335  16.049  2.6986  1.8930  1.0022
10120TIP3    H251776   1.159   3.381  16.035  0.7722 -3.1074  2.0861
10121TIP3   OH251777   5.516   6.218   1.590  0.6887 -0.2701 -0.1129
10121TIP3    H151778   5.441   6.162   1.573  1.4023 -1.6930  1.2378
10121TIP3    H251779   5.572   6.209   1.512  0.1743 -0.3553 -0.4740
10122TIP3   OH251780   3.891   5.886   3.340 -0.0273  0.3404 -0.1840
10122TIP3    H151781   3.971   5.859   3.295 -0.6995 -1.2755 -0.4937
10122TIP3    H251782   3.824   5.827   3.305 -0.9063  0.1734  1.6985
10123TIP3   OH251783   1.549   5.885   1.704 -0.0985 -0.0418 -0.6373
10123TIP3    H151784   1.534   5.876   1.798  1.3906 -1.0027 -0.4660
10123TIP3    H251785   1.594   5.804   1.679 -2.8881 -1.1110 -2.7287
10124TIP3   OH251786   1.724   0.463   2.949 -0.0284  0.2670 -0.0157
10124TIP3    H151787   1.782   0.515   2.894  1.0703 -1.4411 -0.5285
10124TIP3    H251788   1.692   0.394   2.891 -1.1272  0.1067  0.7571
10125TIP3   OH251789   3.514   2.841   0.216  0.2958 -0.5456  0.5592
10125TIP3    H151790   3.494   2.872   0.127  1.1293 -2.9863 -0.5409
10125TIP3    H251791   3.600   2.878   0.235  1.3805 -2.2072 -0.8262
10126TIP3   OH251792   6.634   2.817   2.487  0.1233 -0.5448 -0.4713
10126TIP3    H151793   6.662   2.866   2.410  3.1327 -0.3852  0.5941
10126TIP3    H251794   6.703   2.751   2.500 -0.9808 -1.4246  1.3170
10127TIP3   OH251795   4.000   2.209   2.183  0.1032  0.3973 -0.4517
10127TIP3    H151796   3.927   2.162   2.224  1.7460 -0.1434  2.1175
10127TIP3    H251797   3.960   2.262   2.114 -2.6438 -0.0877  0.6615
10128TIP3   OH251798   2.339   2.826   1.131 -0.2456 -0.1565 -0.0970
10128TIP3    H151799   2.288   2.828   1.050 -1.4494  0.1432  0.6556
10128TIP3    H251800   2.373   2.737   1.136  0.9536  0.1550 -1.5760
10129TIP3   OH251801   2.228   0.708  14.632 -0.1201 -0.3697  0.1806
10129TIP3    H151802   2.317   0.711  14.666  0.7379  0.7311 -1.9527
10129TIP3    H251803   2.196   0.798  14.642 -1.1237 -0.8272  1.2093
10130TIP3   OH251804   4.430   0.688  15.798 -0.4861  0.2199 -0.0435
10130TIP3    H151805   4.506   0.729  15.755 -0.1472 -0.9398 -0.6031
10130TIP3    H251806   4.375   0.658  15.725 -0.5955 -0.5183  0.3289
10131TIP3   OH251807   4.237   1.019   3.873  0.4638 -0.1212 -0.3856
10131TIP3    H151808   4.256   0.928   3.898 -0.7783 -0.2674  0.1162
10131TIP3    H251809   4.291   1.035   3.796  1.8856 -0.7713  0.4332
10132TIP3   OH251810   1.642   1.220  13.346  0.2550 -0.3925 -0.0696
10132TIP3    H151811   1.684   1.135  13.331 -0.3098 -1.0838  1.8945
10132TIP3    H251812   1.706   1.284  13.315  1.3543 -1.4959 -0.1937
10133TIP3   OH251813   5.461   2.722   4.422  0.0076 -0.5482 -0.1550
10133TIP3    H151814   5.470   2.636   4.380  1.1120 -0.6605  0.2765
10133TIP3    H251815   5.494   2.784   4.357 -0.2696 -0.4956 -0.2501
10134TIP3   OH251816   3.376   1.936   1.054 -0.6384  0.1432 -0.3294
10134TIP3    H151817   3.301   1.996   1.048 -2.0054 -1.2821  1.4371
10134TIP3    H251818   3.338   1.849   1.048  1.0403 -0.6188 -0.5157
10135TIP3   OH251819   2.465   1.129   0.440 -0.3961  0.4451  0.6979
10135TIP3    H151820   2.424   1.046   0.415  0.1563  0.3411  0.1034
10135TIP3    H251821   2.531   1.144   0.372  1.1824  0.1676  2.1125
10136TIP3   OH251822   4.649   2.574   1.355  0.1500 -0.2203  0.2385
10136TIP3    H151823   4.640   2.664   1.323  0.5133  0.5680  2.2275
10136TIP3    H251824   4.575   2.562   1.415  0.0356 -1.2980 -0.1015
10137TIP3   OH251825   3.643   3.066  11.751  0.1001 -0.1845  0.3393
10137TIP3    H151826   3.635   3.117  11.831  1.4149  0.2109  0.2421
10137TIP3    H251827   3.732   3.083  11.720 -0.9060  1.0565 -2.1505
10138TIP3   OH251828   6.782   0.225   3.349  0.0663 -0.0776  0.3850
10138TIP3    H151829   6.876   0.239   3.360  0.2973 -1.0927 -0.1751
10138TIP3    H251830   6.747   0.225   3.438  0.5574  0.4689  0.5895
10139TIP3   OH251831   1.921   2.314  13.387 -0.3688 -0.3261  0.2062
10139TIP3    H151832   1.833   2.300  13.351 -0.5134 -1.5529  0.9822
10139TIP3    H251833   1.942   2.404  13.364 -1.7943 -0.0401 -0.0753
10140TIP3   OH251834   5.827   3.835  15.128 -0.0226 -0.5064  0.5751
10140TIP3    H151835   5.782   3.845  15.212 -0.7456  1.0937  0.0533
10140TIP3    H251836   5.759   3.854  15.063  1.1757  1.0953 -0.2648
10141TIP3   OH251837   3.683   2.676  12.147  0.3781  0.3123  0.4121
10141TIP3    H151838   3.603   2.713  12.110  0.8429  1.1093  0.1746
10141TIP3    H251839   3.710   2.609  12.085 -0.5281 -0.5111  0.8933
10142TIP3   OH251840   4.241   3.060   4.627  0.0120 -0.0423 -0.4300
10142TIP3    H151841   4.231   3.155   4.622 -1.8434 -0.2285 -0.7658
10142TIP3    H251842   4.152   3.026   4.631  0.5964 -1.6447  2.5910
10143TIP3   OH251843   5.929   4.270   3.585  0.2414 -0.0358  0.4980
10143TIP3    H151844   5.853   4.305   3.537  1.0647  1.5112  0.2597
10143TIP3    H251845   5.974   4.348   3.618  2.2463 -0.8712 -0.1334
10144TIP3   OH251846   0.958   6.097  11.301  0.0955  0.0067  0.0874
10144TIP3    H151847   0.958   6.009  11.264  0.5893  0.7637 -1.8219
10144TIP3    H251848   0.878   6.138  11.267 -0.0763  0.3461  0.8753
10145TIP3   OH251849   5.608   2.202  14.223 -0.8460  0.9154 -0.1652
10145TIP3    H151850   5.646   2.256  14.153  0.3731  0.5664  0.2211
10145TIP3    H251851   5.633   2.246  14.304 -2.6978  1.6076  0.0860
10146TIP3   OH251852   1.730   1.129  12.933 -0.4693 -0.7876  0.1776
10146TIP3    H151853   1.813   1.151  12.974 -0.2791 -1.0928 -0.0342
10146TIP3    H251854   1.682   1.211  12.927 -0.3699 -0.6905  0.7218
10147TIP3   OH251855   4.942   4.314   2.723  0.4379 -0.1437  0.1828
10147TIP3    H151856   4.959   4.303   2.630  0.5155 -1.4131  0.3222
10147TIP3    H251857   4.906   4.229   2.751  1.2643 -0.0987  1.4822
10148TIP3   OH251858   4.804   2.554  10.714 -0.2413 -0.4523  0.3949
10148TIP3    H151859   4.897   2.550  10.692 -0.6469 -0.4093 -1.5423
10148TIP3    H251860   4.780   2.646  10.702  0.0113  0.1668  3.6697
10149TIP3   OH251861   2.908   5.174   4.606  0.4406 -0.7275 -0.1108
10149TIP3    H151862   2.850   5.250   4.612  0.9563 -0.3176 -0.2769
10149TIP3    H251863   2.909   5.152   4.513  0.6283 -0.6816 -0.1182
10150TIP3   OH251864   2.347   5.769   0.602  0.1627  0.1048  0.0417
10150TIP3    H151865   2.315   5.723   0.525 -0.9911 -2.5723  1.9654
10150TIP3    H251866   2.330   5.709   0.675  0.5946  2.7309  2.4962
10151TIP3   OH251867   6.464   1.349   1.017  0.1921  0.1516  0.1663
10151TIP3    H151868   6.537   1.289   1.031 -2.0600 -2.5633  1.2150
10151TIP3    H251869   6.413   1.345   1.098 -0.9893  2.1551 -0.4131
10152TIP3   OH251870   1.537   5.287  14.604  0.3798 -0.6153  0.1940
10152TIP3    H151871   1.465   5.315  14.660  0.1526 -0.1519 -0.3284
10152TIP3    H251872   1.567   5.205  14.643 -1.6907 -1.8556 -0.6940
10153TIP3   OH251873   5.609   3.062  10.431  0.1164 -0.2679 -0.0030
10153TIP3    H151874   5.665   3.001  10.382  0.2200 -0.5104  0.4068
10153TIP3    H251875   5.524   3.019  10.435  0.1355 -0.2952  0.1157
10154TIP3   OH251876   6.682   4.978  12.342  0.2990 -0.3774 -1.2366
10154TIP3    H151877   6.708   5.069  12.353  1.4781 -0.6703 -1.4191
10154TIP3    H251878   6.605   4.968  12.397  1.3932  0.2007  0.4647
10155TIP3   OH251879   3.456   5.027  16.991  0.5757  0.0739  0.2021
10155TIP3    H151880   3.461   5.107  17.043 -0.5095 -0.0504  0.5066
10155TIP3    H251881   3.540   5.024  16.945  1.1564  0.6999  1.1812
10156TIP3   OH251882   0.231   6.644   2.793  0.3965 -0.3162  0.3188
10156TIP3    H151883   0.224   6.635   2.698 -2.5154  0.1612  0.3948
10156TIP3    H251884   0.248   6.737   2.807 -2.5515  0.3181  0.2548
10157TIP3   OH251885   1.839   1.199  11.150  0.1448  0.1932 -0.1399
10157TIP3    H151886   1.763   1.200  11.093  0.1742  0.4063 -0.1767
10157TIP3    H251887   1.880   1.114  11.134 -1.3460 -0.9311  1.5670
10158TIP3   OH251888   0.069   5.932   2.002  0.2895  0.4995 -0.2254
10158TIP3    H151889   0.067   6.022   1.970  1.3889  0.6424  0.0618
10158TIP3    H251890   0.152   5.925   2.049  0.7851 -0.9800 -1.2258
10159TIP3   OH251891   0.859   3.961  12.575  0.4403 -0.0565  0.6026
10159TIP3    H151892   0.789   4.026  12.564  0.0601 -0.5229  0.1738
10159TIP3    H251893   0.928   4.007  12.622  0.2190  0.6852  0.2175
10160TIP3   OH251894   1.517   1.686   5.646 -0.1820  0.4050 -0.0844
10160TIP3    H151895   1.462   1.634   5.587 -0.0203 -0.4133  0.4656
10160TIP3    H251896   1.585   1.625   5.676 -0.0205  0.9162  0.6247
10161TIP3   OH251897   1.743   3.849   4.299 -0.5504 -0.1043  0.2429
10161TIP3    H151898   1.804   3.892   4.358 -1.4977  0.4130  0.8692
10161TIP3    H251899   1.767   3.757   4.302  1.5752  0.3432 -1.1979
10162TIP3   OH251900   3.081   2.180   2.554  0.3339  0.4739 -0.6073
10162TIP3    H151901   3.010   2.206   2.613  1.4102  3.7530 -0.5375
10162TIP3    H251902   3.036   2.143   2.478 -1.4503  1.9142 -0.3337
10163TIP3   OH251903   1.844   4.246   4.634 -0.0352  0.1065 -0.6315
10163TIP3    H151904   1.867   4.334   4.606  0.5218  0.1105 -0.1849
10163TIP3    H251905   1.912   4.222   4.697 -0.6033 -0.3400 -0.1636
10164TIP3   OH251906   4.002   3.239  12.194  0.0595 -0.3807  0.2435
10164TIP3    H151907   3.923   3.264  12.146  0.8471  2.1876  0.1786
10164TIP3    H251908   4.070   3.234  12.127  0.7208  1.1756  0.7580
10165TIP3   OH251909   4.755   1.002   1.075  0.2481 -0.1297  0.2513
10165TIP3    H151910   4.813   1.070   1.040 -0.1886  0.5336  0.7942
10165TIP3    H251911   4.780   0.923   1.028 -0.4798  0.7595 -1.7330
10166TIP3   OH251912   2.084   2.809  11.463  1.0765 -0.2629  0.2584
10166TIP3    H151913   2.038   2.725  11.459  1.1561 -0.3601  1.1135
10166TIP3    H251914   2.021   2.869  11.502  0.1639  0.7127 -2.4770
10167TIP3   OH251915   2.873   1.417  13.335  0.7107 -0.5679  0.1412
10167TIP3    H151916   2.814   1.365  13.280  0.5254 -0.0252 -0.1865
10167TIP3    H251917   2.827   1.501  13.346  1.0462 -0.4397  0.5803
10168TIP3   OH251918   2.585   2.485   1.548 -0.0463  0.1666 -0.3972
10168TIP3    H151919   2.632   2.562   1.581 -0.2469 -0.4301  1.4105
10168TIP3    H251920   2.498   2.518   1.524 -0.2756  0.4512  0.7721
10169TIP3   OH251921   4.392   0.519  11.980  0.4010  0.5506 -0.4787
10169TIP3    H151922   4.411   0.499  12.072  0.6047  1.3893 -0.3339
10169TIP3    H251923   4.385   0.433  11.938  2.5946  0.1469 -0.1366
10170TIP3   OH251924   4.116   3.391   0.020 -0.3413 -0.4116 -0.5060
10170TIP3    H151925   4.074   3.310  -0.010 -0.9330  0.2858 -1.5968
10170TIP3    H251926   4.045   3.454   0.029 -0.0371 -0.2797  1.4016
10171TIP3   OH251927   0.256   3.551   4.267 -0.2515  0.0929  0.4115
10171TIP3    H151928   0.303   3.542   4.184 -0.9374  1.4436 -0.1538
10171TIP3    H251929   0.166   3.529   4.246 -0.1971 -0.8860  1.1277
10172TIP3   OH251930   2.829   2.423  13.993 -0.3707  0.1301 -0.1468
10172TIP3    H151931   2.841   2.333  13.963  0.4315  0.4447 -0.8150
10172TIP3    H251932   2.892   2.474  13.942 -2.7444  1.5235 -1.9029
10173TIP3   OH251933   2.674   2.514  13.662  0.4454 -0.6575  0.0409
10173TIP3    H151934   2.761   2.475  13.677  0.2397 -1.6106 -1.0865
10173TIP3    H251935   2.628   2.502  13.745  1.4430  0.0333  0.7141
10174TIP3   OH251936   4.649   5.653   4.336  0.3573  0.7906  0.0511
10174TIP3    H151937   4.619   5.674   4.248  0.2557 -0.7221 -0.2923
10174TIP3    H251938   4.736   5.616   4.324  0.6889  1.3359  0.6780
10175TIP3   OH251939   3.451   1.050   1.600  0.1921  0.0160  0.1183
10175TIP3    H151940   3.357   1.040   1.586  0.1569  0.7418 -0.1996
10175TIP3    H251941   3.463   1.033   1.693 -0.1608 -0.7109  0.0403
10176TIP3   OH251942   5.459   0.544  11.941  0.4704 -0.1260 -0.2541
10176TIP3    H151943   5.433   0.491  11.867 -0.4460 -0.9942  0.6617
10176TIP3    H251944   5.401   0.621  11.937  1.1008  0.3249 -0.9890
10177TIP3   OH251945   6.738   0.316   0.930  0.2005  0.6709 -0.1617
10177TIP3    H151946   6.775   0.298   1.017  2.7688 -0.1383 -1.3004
10177TIP3    H251947   6.676   0.245   0.916  0.5425  0.2010  0.6148
10178TIP3   OH251948   6.733   0.952  13.642 -0.0309 -0.2602 -0.0123
10178TIP3    H151949   6.691   0.952  13.728 -0.5957  0.5709 -0.2785
10178TIP3    H251950   6.661   0.964  13.581  0.5790  1.2636 -0.4789
10179TIP3   OH251951   1.211   0.655   2.909  0.1080 -0.2387  0.1233
10179TIP3    H151952   1.275   0.683   2.844 -1.2236  0.3452 -0.9699
10179TIP3    H251953   1.220   0.559   2.911  0.1135 -0.2724 -0.9870
10180TIP3   OH251954   2.071   0.102  14.018 -0.1381  0.3976  0.1734
10180TIP3    H151955   2.007   0.173  14.012 -0.7889 -0.1700  0.2734
10180TIP3    H251956   2.022   0.029  14.055 -0.0680 -0.7874 -1.9217
10181TIP3   OH251957   2.893   2.303   3.106 -0.4681  0.4453 -0.0098
10181TIP3    H151958   2.875   2.385   3.059  0.7996  1.1381  0.6558
10181TIP3    H251959   2.988   2.303   3.119 -0.7259  0.1293  2.2544
10182TIP3   OH251960   1.382   2.074  13.301  0.5490 -0.0123  0.1884
10182TIP3    H151961   1.409   2.075  13.393  0.2691  0.5989  0.2735
10182TIP3    H251962   1.410   2.160  13.268  1.0948 -0.4202 -0.4352
10183TIP3   OH251963   4.301   4.407   1.187  0.4036  0.6012 -0.6023
10183TIP3    H151964   4.361   4.442   1.121  1.0796 -1.4596 -1.1731
10183TIP3    H251965   4.276   4.321   1.152 -2.9219  1.3696 -0.3890
10184TIP3   OH251966   2.681   0.600   5.264 -0.4341 -0.0411  0.0159
10184TIP3    H151967   2.595   0.559   5.274 -0.9708  0.6747 -1.3624
10184TIP3    H251968   2.712   0.613   5.354 -1.8090 -0.2431  0.5468
10185TIP3   OH251969   1.247   6.709   1.999 -0.2395  0.3318 -0.9806
10185TIP3    H151970   1.329   6.660   2.005 -0.9373 -0.9568 -1.6918
10185TIP3    H251971   1.203   6.674   1.922 -0.7529  2.1318 -1.5648
10186TIP3   OH251972   6.025   1.185  14.662  0.0867  0.1994 -0.1874
10186TIP3    H151973   6.052   1.204  14.752 -0.2545 -0.0527 -0.0278
10186TIP3    H251974   6.077   1.244  14.608  0.2858  0.3601  0.1767
10187TIP3   OH251975   2.912   2.023   1.188  0.2090  0.0470 -0.0990
10187TIP3    H151976   2.869   2.029   1.273  1.9620 -0.6274  0.8770
10187TIP3    H251977   2.981   1.958   1.200  1.2135  0.7531 -1.7220
10188TIP3   OH251978   3.876   2.252   4.342  0.1981 -0.3627 -0.5786
10188TIP3    H151979   3.884   2.318   4.411 -1.5707  1.8119 -2.2543
10188TIP3    H251980   3.793   2.208   4.359  0.7323 -1.2494 -0.2161
10189TIP3   OH251981   6.250   1.326   5.015 -0.8513  0.2023 -0.4944
10189TIP3    H151982   6.294   1.323   4.930  1.0067 -0.5985  0.4408
10189TIP3    H251983   6.280   1.407   5.055  2.5811 -1.7418  1.4401
10190TIP3   OH251984   6.330   0.452  10.834  0.2929 -0.4790 -0.2682
10190TIP3    H151985   6.305   0.470  10.924  1.3740 -0.1704 -0.0150
10190TIP3    H251986   6.425   0.439  10.837  0.2063 -1.5166 -1.1937
10191TIP3   OH251987   3.266   4.404  11.517  0.3613 -0.1032  0.1195
10191TIP3    H151988   3.175   4.382  11.536  0.4408  0.3097  1.0450
10191TIP3    H251989   3.272   4.403  11.421 -0.2491 -1.5504  0.0687
10192TIP3   OH251990   5.922   5.575  16.446  0.2408 -0.1647 -0.6714
10192TIP3    H151991   5.871   5.557  16.525  1.4415 -1.1286 -0.0930
10192TIP3    H251992   5.889   5.660  16.415 -1.0919 -0.3573  0.1604
10193TIP3   OH251993   0.382   1.702   4.053 -0.5615  0.1412  0.1213
10193TIP3    H151994   0.429   1.621   4.073 -1.0162  0.0895  1.0808
10193TIP3    H251995   0.449   1.764   4.026 -0.0137 -0.1009  0.9044
10194TIP3   OH251996   5.561   5.581   0.808  0.2963  0.3561 -0.0567
10194TIP3    H151997   5.502   5.519   0.765 -1.2544  1.6393  0.1134
10194TIP3    H251998   5.626   5.526   0.851 -0.1450 -1.0831 -1.1458
10195TIP3   OH251999   4.072   0.283  14.241  0.7570  0.1442 -0.1145
10195TIP3    H152000   4.117   0.333  14.309 -0.7173  2.3548 -0.6432
10195TIP3    H252001   4.087   0.333  14.161 -2.9906  1.4112 -0.2334
10196TIP3   OH252002   2.645   2.837   4.773 -0.1111  0.2530  0.5410
10196TIP3    H152003   2.693   2.920   4.785 -0.7867  0.6719  0.4018
10196TIP3    H252004   2.595   2.827   4.854 -0.4224  0.2424  0.3465
10197TIP3   OH252005   6.779   1.775   5.552  0.3540  0.3972  0.0472
10197TIP3    H152006   6.808   1.825   5.629 -1.0477 -0.8524  1.4754
10197TIP3    H252007   6.810   1.686   5.569 -0.8098 -0.1024 -0.3321
10198TIP3   OH252008   3.163   4.717  14.727 -0.1296  0.6905 -0.2967
10198TIP3    H152009   3.225   4.665  14.676  0.0388 -1.4394  1.9067
10198TIP3    H252010   3.214   4.790  14.761  0.8182 -0.1780  0.1940
10199TIP3   OH252011   4.290   2.230   3.938 -0.3431  0.2685 -0.1871
10199TIP3    H152012   4.371   2.263   3.975  0.0690 -0.1145 -0.7341
10199TIP3    H252013   4.232   2.306   3.935  0.5227  0.9208 -1.2418
10200TIP3   OH252014   1.229   6.020  14.789  0.1600 -0.4828 -0.2513
10200TIP3    H152015   1.236   6.092  14.726  0.8928 -1.5876 -1.4911
10200TIP3    H252016   1.300   5.961  14.765  1.1833 -0.4536  2.3266
10201TIP3   OH252017   5.842   6.497  12.483  0.7288 -0.3332 -0.2523
10201TIP3    H152018   5.902   6.422  12.483  2.3520  0.9058  0.6828
10201TIP3    H252019   5.886   6.562  12.428 -1.0885 -0.3396 -1.8086
10202TIP3   OH252020   4.109   3.977  15.917 -0.5270 -0.1112  0.1034
10202TIP3    H152021   4.030   3.935  15.950 -0.2931  1.4585  3.0171
10202TIP3    H252022   4.079   4.030  15.843 -1.8554 -0.9038  0.0472
10203TIP3   OH252023   1.070   3.798   2.979  0.2646 -0.0484 -0.1297
10203TIP3    H152024   1.149   3.786   3.033  0.8331 -1.7909 -1.2567
10203TIP3    H252025   1.066   3.719   2.926 -2.9193 -0.5372  0.6736
10204TIP3   OH252026   6.619   4.670  14.316 -0.5876 -0.0247  0.1951
10204TIP3    H152027   6.540   4.616  14.327 -0.0473 -1.2310 -1.4060
10204TIP3    H252028   6.691   4.606  14.315  0.1832  0.8399 -0.6919
10205TIP3   OH252029   0.297   5.717  10.448  0.3938  0.5579  0.3479
10205TIP3    H152030   0.294   5.627  10.416 -1.6242  0.4955  0.5873
10205TIP3    H252031   0.246   5.767  10.385 -0.4399  1.0968  1.4128
10206TIP3   OH252032   0.763   5.878  13.408  0.5335 -0.3013  0.0713
10206TIP3    H152033   0.766   5.800  13.463  1.1301 -0.5734 -0.3412
10206TIP3    H252034   0.854   5.897  13.387  0.2624 -1.8132 -3.0662
10207TIP3   OH252035   1.505   3.314   4.625 -0.1381 -0.2408  0.0418
10207TIP3    H152036   1.545   3.337   4.541  1.2313  0.0329  0.7366
10207TIP3    H252037   1.575   3.269   4.673 -0.5408  0.5487  1.4293
10208TIP3   OH252038   2.865   4.129  17.045 -0.3770 -0.0014  0.4640
10208TIP3    H152039   2.909   4.048  17.017 -0.8252 -0.7462  1.7941
10208TIP3    H252040   2.936   4.187  17.072  0.0103  0.4474 -1.4400
10209TIP3   OH252041   1.687   4.389   2.394 -0.4011  0.2067 -0.0708
10209TIP3    H152042   1.707   4.383   2.488  2.2065 -1.1284 -0.6365
10209TIP3    H252043   1.715   4.478   2.370 -2.6626  1.2013  0.6587
10210TIP3   OH252044   1.939   3.532  16.660 -0.2223  1.2114  0.4656
10210TIP3    H152045   1.923   3.524  16.755 -1.6243  1.5292  0.2824
10210TIP3    H252046   2.028   3.498  16.648 -1.0418 -1.5987  1.5049
10211TIP3   OH252047   6.684   1.821   1.394  0.1861  0.1180  0.6254
10211TIP3    H152048   6.773   1.848   1.374 -0.5797  1.7249 -0.8499
10211TIP3    H252049   6.630   1.866   1.330 -1.5538 -2.2072  0.3239
10212TIP3   OH252050   3.022   1.947   5.526 -0.2920  0.1016  0.4418
10212TIP3    H152051   2.940   1.981   5.564 -1.6124 -1.1316 -1.1338
10212TIP3    H252052   3.005   1.946   5.431  1.5905 -0.1314  0.0848
10213TIP3   OH252053   3.677   4.983  11.374  0.5431 -0.0268  0.1262
10213TIP3    H152054   3.757   5.025  11.405 -0.2111  1.4391  0.1718
10213TIP3    H252055   3.678   4.897  11.417  0.1581  1.4366  3.3927
10214TIP3   OH252056   5.271   4.017  13.066  0.2832 -0.3946  0.2268
10214TIP3    H152057   5.355   3.994  13.106 -0.3571 -1.0028  1.2838
10214TIP3    H252058   5.228   4.073  13.132  0.6558  1.6072 -1.1406
10215TIP3   OH252059   1.612   2.981  11.891  0.2270  0.4787  0.0842
10215TIP3    H152060   1.522   2.971  11.861  0.3897  0.7204 -0.5195
10215TIP3    H252061   1.637   2.894  11.924  0.2021  0.0387 -0.9899
10216TIP3   OH252062   0.852   1.211   0.335  0.7793 -0.4016  0.3636
10216TIP3    H152063   0.854   1.136   0.276  0.6636  0.2914 -0.5352
10216TIP3    H252064   0.885   1.176   0.418 -1.2360 -1.9796  0.5984
10217TIP3   OH252065   6.774   2.314  12.109  0.5280 -0.1204 -0.3629
10217TIP3    H152066   6.745   2.375  12.177  2.3420 -0.3090  0.6213
10217TIP3    H252067   6.730   2.346  12.029  0.7029  1.9272  0.2958
10218TIP3   OH252068   5.082   1.916   0.638  0.3271  0.3105  0.2656
10218TIP3    H152069   5.128   1.996   0.665  0.6426  1.3651 -2.9307
10218TIP3    H252070   5.106   1.906   0.546 -1.7400 -2.0819 -0.0864
10219TIP3   OH252071   1.863   1.034   1.110  0.3030  0.3029  0.5457
10219TIP3    H152072   1.880   1.013   1.018 -2.6800  0.2811 -0.0986
10219TIP3    H252073   1.886   1.126   1.118  1.4958  0.0704  0.0658
10220TIP3   OH252074   5.531   3.997  13.475 -0.1288  0.6580  0.0254
10220TIP3    H152075   5.462   4.009  13.540 -0.0666 -0.6788  0.3690
10220TIP3    H252076   5.569   3.912  13.496 -0.1172  0.1842 -1.7736
10221TIP3   OH252077   0.566   3.158   3.178 -0.7299  0.3854  0.2477
10221TIP3    H152078   0.479   3.126   3.200 -2.4335  3.6504 -1.1414
10221TIP3    H252079   0.570   3.153   3.082  0.5785  0.4325  0.2801
10222TIP3   OH252080   1.024   1.264   4.166  0.1395  0.3909  0.0790
10222TIP3    H152081   1.026   1.272   4.262  3.8963  0.2143  0.1853
10222TIP3    H252082   0.971   1.338   4.137 -2.2139 -0.2928  2.2611
10223TIP3   OH252083   1.859   0.074   4.797 -0.2390 -0.4280 -0.3272
10223TIP3    H152084   1.827  -0.011   4.765  0.5507 -1.2420  0.9892
10223TIP3    H252085   1.946   0.083   4.758 -0.4399 -0.0620 -0.7065
10224TIP3   OH252086   1.243   4.308  16.822  0.5077  0.4802  0.5673
10224TIP3    H152087   1.211   4.306  16.912 -1.3156 -0.0882 -0.0386
10224TIP3    H252088   1.198   4.382  16.782 -0.3663 -0.5461 -0.4100
10225TIP3   OH252089   4.845   0.675   1.080  0.4972 -0.0939  0.0695
10225TIP3    H152090   4.802   0.644   1.159  0.7056  0.3133  0.3430
10225TIP3    H252091   4.821   0.611   1.013  2.2451 -1.7951  0.9650
10226TIP3   OH252092   3.843   4.571  12.653  0.5007 -0.2449 -0.3845
10226TIP3    H152093   3.860   4.643  12.592  0.8827 -0.7045 -0.8367
10226TIP3    H252094   3.912   4.508  12.634 -0.4349 -1.1937 -0.7431
10227TIP3   OH252095   4.153   2.240   4.812  0.2147 -0.0924 -0.2588
10227TIP3    H152096   4.145   2.144   4.807  1.4580 -0.2704  0.7632
10227TIP3    H252097   4.089   2.265   4.878  0.9640 -0.3958  0.5932
10228TIP3   OH252098   2.187   1.320  14.466 -0.3973 -0.4092 -0.4214
10228TIP3    H152099   2.147   1.233  14.470 -2.3253  0.4532  1.3938
10228TIP3    H252100   2.112   1.380  14.461  0.8475  1.1927 -0.6022
10229TIP3   OH252101   1.427   4.518   2.382  0.2576 -0.0101 -0.2958
10229TIP3    H152102   1.470   4.548   2.461  0.4246  0.8178 -0.6899
10229TIP3    H252103   1.486   4.452   2.345  0.2864 -0.2285  0.1431
10230TIP3   OH252104   0.179   6.552  11.957 -0.3289 -0.1177 -0.0495
10230TIP3    H152105   0.138   6.602  12.027 -0.7406 -0.2360 -0.2068
10230TIP3    H252106   0.124   6.475  11.946 -0.0910 -0.2554 -0.2879
10231TIP3   OH252107   3.788   4.388  11.555 -0.1600  0.7271  0.0215
10231TIP3    H152108   3.835   4.313  11.592  0.6272  1.2630  0.1324
10231TIP3    H252109   3.721   4.349  11.499  0.8404 -0.0720 -0.6699
10232TIP3   OH252110   6.332   1.585   3.131  0.5469  0.1662  0.4269
10232TIP3    H152111   6.294   1.620   3.051  3.8004  0.1785 -1.3094
10232TIP3    H252112   6.261   1.538   3.173 -1.4292  0.5271 -2.2407
10233TIP3   OH252113   6.348   6.810  12.518 -0.2597 -0.3682 -0.2920
10233TIP3    H152114   6.310   6.722  12.513  1.7258 -1.3742  1.0041
10233TIP3    H252115   6.443   6.795  12.516  0.1305  1.7464  0.0922
10234TIP3   OH252116   4.524   4.738   1.149  0.2215 -0.1170  0.0748
10234TIP3    H152117   4.592   4.754   1.214 -0.3930 -1.3513  1.0526
10234TIP3    H252118   4.551   4.657   1.104  0.8972  0.9734 -1.5946
10235TIP3   OH252119   2.447   2.983  15.206  0.3326  0.2800  0.6346
10235TIP3    H152120   2.534   2.957  15.237 -0.0014 -0.3834  1.0352
10235TIP3    H252121   2.405   3.022  15.284 -0.0153 -0.1402  0.6632
10236TIP3   OH252122   3.737   0.280  11.364  0.0235  0.3775 -0.2114
10236TIP3    H152123   3.702   0.316  11.446 -0.6568 -1.5335  0.3944
10236TIP3    H252124   3.801   0.214  11.393  1.1101  0.9439 -1.2643
10237TIP3   OH252125   6.466   5.507  13.357 -0.0212 -0.1248 -0.0253
10237TIP3    H152126   6.426   5.594  13.357  1.1578  0.4362 -0.6416
10237TIP3    H252127   6.459   5.478  13.266  2.3949  0.6915 -0.5368
10238TIP3   OH252128   2.538   5.128   5.205  0.1465 -0.7026  0.4092
10238TIP3    H152129   2.572   5.100   5.120 -0.8943  1.2112 -0.6876
10238TIP3    H252130   2.577   5.066   5.267  3.4613 -0.2700 -1.0502
10239TIP3   OH252131   2.036   3.572   6.154  0.5374  0.9200  0.1612
10239TIP3    H152132   2.087   3.517   6.095  0.8242 -0.6942  1.8048
10239TIP3    H252133   2.086   3.653   6.161  1.1354  0.6485 -0.8413
10240TIP3   OH252134   1.166   2.333   3.309 -0.0891  0.1527  0.2194
10240TIP3    H152135   1.109   2.409   3.294  0.2054  0.2005 -0.7933
10240TIP3    H252136   1.110   2.268   3.349 -0.2909  0.9836  1.3486
10241TIP3   OH252137   4.591   5.435  11.931 -0.2081 -0.4929 -0.7370
10241TIP3    H152138   4.660   5.373  11.956 -0.6756 -1.1969 -1.1303
10241TIP3    H252139   4.530   5.432  12.005 -0.5243 -0.9615 -1.0075
10242TIP3   OH252140   0.559   6.305   4.762 -0.1380  0.2332  0.1455
10242TIP3    H152141   0.483   6.348   4.802  0.3773  0.7149  0.6272
10242TIP3    H252142   0.522   6.233   4.711 -0.7620 -1.5699  2.8982
10243TIP3   OH252143   5.079   2.913  14.251  0.4738  0.0613  0.4041
10243TIP3    H152144   5.067   2.935  14.159 -0.7944  0.5083  0.6507
10243TIP3    H252145   5.032   2.982  14.298  0.7768 -0.3751  1.3774
10244TIP3   OH252146   3.486   0.742   1.769  0.5825  0.4169 -0.6323
10244TIP3    H152147   3.561   0.701   1.727 -0.1108 -2.0538  0.3253
10244TIP3    H252148   3.425   0.670   1.786 -0.1500  1.5674  2.4952
10245TIP3   OH252149   6.718   0.449  13.931 -0.0137  0.1505  0.1353
10245TIP3    H152150   6.750   0.532  13.896  1.8095  0.7000  2.7910
10245TIP3    H252151   6.733   0.386  13.861 -1.7439  2.0162 -2.0750
10246TIP3   OH252152   5.396   6.075  16.550 -0.1394 -0.1123  0.0464
10246TIP3    H152153   5.457   6.009  16.515  1.5507  0.0754  2.4047
10246TIP3    H252154   5.436   6.159  16.526 -0.0836  0.0216  0.6065
10247TIP3   OH252155   1.422   3.746  14.524 -0.3716 -0.1286 -0.6219
10247TIP3    H152156   1.336   3.710  14.506 -1.0900  0.9553  0.4582
10247TIP3    H252157   1.405   3.828  14.571  1.2468 -0.7461  1.2069
10248TIP3   OH252158   1.708   6.596  11.169 -0.5877 -0.2720  0.2389
10248TIP3    H152159   1.686   6.530  11.235 -1.5236  0.5779  0.7853
10248TIP3    H252160   1.741   6.670  11.219 -1.7225  0.5535 -0.2114
10249TIP3   OH252161   0.943   2.716   4.353 -0.8514 -0.7832  0.5728
10249TIP3    H152162   1.006   2.728   4.282  0.1188  0.4805  1.6066
10249TIP3    H252163   0.959   2.627   4.384  0.3213 -0.5402  0.7073
10250TIP3   OH252164   4.143   5.766  13.674  0.2700  0.5810  0.1081
10250TIP3    H152165   4.087   5.688  13.672 -0.4300  1.0621  0.9243
10250TIP3    H252166   4.177   5.772  13.585  2.0446 -1.8905  0.5034
10251TIP3   OH252167   4.624   3.565   0.644 -0.0788 -0.0573 -0.2205
10251TIP3    H152168   4.567   3.541   0.571 -0.3934  0.8101 -0.2719
10251TIP3    H252169   4.637   3.483   0.692 -1.1573 -0.3306 -0.3590
10252TIP3   OH252170   5.709   0.003   4.471 -0.0843  0.0374 -0.0876
10252TIP3    H152171   5.655  -0.055   4.524  0.2015  0.0568  0.2328
10252TIP3    H252172   5.732  -0.049   4.394  3.9587 -2.0804  2.2066
10253TIP3   OH252173   1.121   6.704   3.358 -0.1451  0.6704  0.2409
10253TIP3    H152174   1.183   6.742   3.420  0.7840 -0.7184  0.2230
10253TIP3    H252175   1.116   6.767   3.286  2.5624  0.1228 -0.5322
10254TIP3   OH252176   3.003   6.678   2.448 -0.1264  0.4631 -0.1588
10254TIP3    H152177   3.078   6.618   2.455  0.6023  1.2688 -0.8510
10254TIP3    H252178   2.945   6.635   2.385 -0.4611 -0.3645  0.6878
10255TIP3   OH252179   0.393   1.809  13.440  0.5068  0.1843  0.8034
10255TIP3    H152180   0.477   1.784  13.479  0.9844  0.0523 -0.2630
10255TIP3    H252181   0.328   1.787  13.506  1.1676 -1.2842  0.9942
10256TIP3   OH252182   3.454   2.750   5.227  0.0323 -0.1388 -0.4636
10256TIP3    H152183   3.506   2.680   5.268 -0.2230 -0.0074  0.0913
10256TIP3    H252184   3.395   2.780   5.296 -0.3787  0.1181 -0.9197
10257TIP3   OH252185   1.819   0.324  16.744 -0.1293 -0.4427  0.6739
10257TIP3    H152186   1.871   0.391  16.698  0.3445 -1.6809 -0.6666
10257TIP3    H252187   1.861   0.317  16.830  2.9480 -2.3781 -0.8195
10258TIP3   OH252188   3.835   6.317  15.095 -0.4762 -0.2717 -0.1070
10258TIP3    H152189   3.793   6.246  15.144  0.8092 -0.4664  0.7677
10258TIP3    H252190   3.829   6.290  15.003  1.6716 -2.5304  0.3122
10259TIP3   OH252191   5.491   0.257  15.935 -0.2585 -0.2437 -0.1261
10259TIP3    H152192   5.460   0.188  15.994  3.7099  0.6107  3.4402
10259TIP3    H252193   5.492   0.216  15.848 -1.0880 -3.5774  1.2952
10260TIP3   OH252194   2.516   5.665   5.544 -0.1712 -0.0219  0.2019
10260TIP3    H152195   2.512   5.747   5.495  0.1992  0.3890  0.8447
10260TIP3    H252196   2.610   5.651   5.559 -0.2750 -0.1496  0.7638
10261TIP3   OH252197   0.258   2.621   5.487 -0.2026  1.0207 -0.2450
10261TIP3    H152198   0.242   2.715   5.480 -3.3355  0.8251  1.9585
10261TIP3    H252199   0.321   2.613   5.558 -0.7148  1.4416  0.2678
10262TIP3   OH252200   1.561   1.257  16.721  0.2594 -0.0752 -1.0046
10262TIP3    H152201   1.468   1.233  16.712  0.1607  0.3820 -1.2269
10262TIP3    H252202   1.576   1.254  16.816 -1.1276  3.9013 -0.4713
10263TIP3   OH252203   0.517   1.198  11.580 -0.0244  0.1865  0.0115
10263TIP3    H152204   0.436   1.223  11.535  1.0870  2.9798 -0.7208
10263TIP3    H252205   0.519   1.254  11.658  0.8843 -0.3151  0.3570
10264TIP3   OH252206   6.140   1.074  13.106 -0.0690 -0.4344  0.3150
10264TIP3    H152207   6.218   1.054  13.054  0.5337 -0.1400  1.0865
10264TIP3    H252208   6.097   0.989  13.117 -0.5568 -0.4037 -1.1916
10265TIP3   OH252209   4.952   5.405   1.303 -0.3826 -0.0488 -0.6258
10265TIP3    H152210   4.879   5.467   1.300 -1.8228 -1.5213  1.3111
10265TIP3    H252211   5.028   5.458   1.328 -1.8602  0.8090  2.5108
10266TIP3   OH252212   2.995   2.970  12.969  0.9011 -0.1477  0.3269
10266TIP3    H152213   2.948   3.048  13.000 -0.2938  0.2194 -2.1351
10266TIP3    H252214   2.937   2.897  12.992 -0.6553  0.2373 -1.9912
10267TIP3   OH252215   4.574   1.301  13.828 -0.7753  0.2957 -0.4312
10267TIP3    H152216   4.579   1.247  13.907 -0.2125  0.2161 -0.5138
10267TIP3    H252217   4.481   1.319  13.817 -0.8989 -0.0471  0.0113
10268TIP3   OH252218   1.213   3.722  11.463 -0.6333  0.0551 -0.5041
10268TIP3    H152219   1.243   3.639  11.426 -0.8650  0.0643 -0.7095
10268TIP3    H252220   1.126   3.735  11.426 -0.0495  1.0769 -1.5772
10269TIP3   OH252221   5.784   6.331  12.140 -0.3007 -0.2271 -0.0489
10269TIP3    H152222   5.793   6.387  12.063 -1.4966 -0.3216 -0.2811
10269TIP3    H252223   5.858   6.354  12.196  0.3529  0.1401 -1.0400
10270TIP3   OH252224   6.037   5.138   1.706  0.3518  0.2238  0.0216
10270TIP3    H152225   6.124   5.165   1.676  1.4089 -2.0730  0.7822
10270TIP3    H252226   6.039   5.043   1.703 -3.2910  0.0150 -2.9283
10271TIP3   OH252227   5.006   2.359   1.770 -0.2556  0.0893 -0.4639
10271TIP3    H152228   5.051   2.443   1.782 -1.1754  0.3475  1.7909
10271TIP3    H252229   4.933   2.380   1.711  0.3261  0.5361 -1.0436
10272TIP3   OH252230   6.439   5.092   4.198  0.8100 -0.2946 -0.2287
10272TIP3    H152231   6.442   5.045   4.281 -3.3911 -1.3497 -0.4344
10272TIP3    H252232   6.413   5.026   4.134  0.2621  1.2039 -1.6112
10273TIP3   OH252233   0.841   2.171   3.085 -0.0910 -0.4203  0.1626
10273TIP3    H152234   0.899   2.184   3.010 -0.1743  1.2486  0.3553
10273TIP3    H252235   0.765   2.125   3.050  1.4068 -2.9756 -0.0442
10274TIP3   OH252236   5.313   1.483  15.077  0.0033 -0.1383 -0.3674
10274TIP3    H152237   5.386   1.501  15.017 -0.6712  0.6907 -0.9595
10274TIP3    H252238   5.256   1.560  15.069 -0.2965 -0.1952  1.0503
10275TIP3   OH252239   1.023   5.099   0.674 -0.0400 -0.1673 -0.2284
10275TIP3    H152240   1.006   5.176   0.728 -1.3997 -0.7665  0.2239
10275TIP3    H252241   1.003   5.025   0.730 -0.1701 -0.8246 -1.1181
10276TIP3   OH252242   1.305   6.638  12.108  0.3233  0.2002 -0.2468
10276TIP3    H152243   1.292   6.729  12.137 -0.0338  0.3344 -0.8117
10276TIP3    H252244   1.361   6.645  12.031  0.4787 -0.0759 -0.1590
10277TIP3   OH252245   4.543   5.733   1.690  0.2209  0.4302 -0.2341
10277TIP3    H152246   4.576   5.691   1.610 -0.2766 -0.6628  0.1152
10277TIP3    H252247   4.550   5.665   1.756  0.3264  1.2314  0.5919
10278TIP3   OH252248   1.749   2.958  12.480 -0.3558  0.1200  0.5341
10278TIP3    H152249   1.727   3.025  12.416 -1.5999  0.4918  1.3171
10278TIP3    H252250   1.682   2.966  12.548 -0.3000 -1.6389  0.8609
10279TIP3   OH252251   5.182   6.239  15.725 -0.5469  0.2605  0.8893
10279TIP3    H152252   5.208   6.324  15.689 -0.2695 -0.2742 -0.2170
10279TIP3    H252253   5.234   6.229  15.805 -0.4487  1.0405  0.9293
10280TIP3   OH252254   2.675   5.395  14.832  0.3889 -0.4691  0.4441
10280TIP3    H152255   2.732   5.389  14.755 -0.0973  1.4503 -0.1243
10280TIP3    H252256   2.721   5.346  14.900  0.0274 -3.7778 -1.4500
10281TIP3   OH252257   2.467   4.792  13.272  0.3200 -0.0577  0.0133
10281TIP3    H152258   2.535   4.804  13.338 -0.0990 -0.7770  0.5870
10281TIP3    H252259   2.452   4.880  13.237  1.6409  0.0901 -0.2391
10282TIP3   OH252260   5.466   3.429  12.233  0.1733  0.6119  0.0005
10282TIP3    H152261   5.560   3.440  12.222  0.4551  0.1477  1.7828
10282TIP3    H252262   5.428   3.507  12.193  1.3541  1.2225  0.0345
10283TIP3   OH252263   0.740   4.275   4.483 -0.3735 -0.4292 -0.1171
10283TIP3    H152264   0.780   4.209   4.540 -0.5277 -0.6083 -0.2170
10283TIP3    H252265   0.736   4.354   4.537 -0.2532 -0.5204  0.0256
10284TIP3   OH252266   1.932   4.568   6.102  0.2083  0.1640 -0.1453
10284TIP3    H152267   1.989   4.591   6.175 -0.2139 -0.6383  0.4523
10284TIP3    H252268   1.860   4.630   6.106  0.7796  0.8718 -0.6076
10285TIP3   OH252269   0.170   6.527  13.558  0.5096 -0.1146 -0.3004
10285TIP3    H152270   0.265   6.527  13.571  0.7054  1.2644 -1.4862
10285TIP3    H252271   0.146   6.619  13.554 -0.5597 -0.4169 -2.0023
10286TIP3   OH252272   4.637   5.347  15.431  0.6152  0.2808 -0.2673
10286TIP3    H152273   4.605   5.371  15.518  1.8618 -0.3172  0.3640
10286TIP3    H252274   4.557   5.342  15.378 -0.1293  1.0132  0.7311
10287TIP3   OH252275   6.172   0.894   0.523  0.1017 -0.3284  0.4182
10287TIP3    H152276   6.115   0.970   0.518  0.5070 -0.0848 -0.7905
10287TIP3    H252277   6.256   0.924   0.488  1.3920 -0.3317  3.2459
10288TIP3   OH252278   3.243   1.113  15.197  0.4684  0.0243  0.6710
10288TIP3    H152279   3.276   1.033  15.237  0.3621  0.0709  0.8519
10288TIP3    H252280   3.295   1.183  15.237  0.1632  0.0976  0.9478
10289TIP3   OH252281   6.275   0.923  14.280  0.3109  0.0132  0.1414
10289TIP3    H152282   6.329   0.952  14.206  1.6749  0.3818  1.2343
10289TIP3    H252283   6.334   0.926  14.356 -0.8936 -0.8749  1.1623
10290TIP3   OH252284   5.781   2.009  11.049 -0.1328  0.0677 -0.4658
10290TIP3    H152285   5.853   2.017  10.986 -0.1505  1.3125 -0.3510
10290TIP3    H252286   5.707   1.979  10.996  0.2735 -0.4849 -0.7268
10291TIP3   OH252287   6.090   4.982   2.028  0.4036  0.3843  0.4404
10291TIP3    H152288   6.129   4.968   1.942 -1.2061 -1.2574 -0.0925
10291TIP3    H252289   6.004   5.021   2.009  0.8188  1.8999  1.4514
10292TIP3   OH252290   4.216   3.415  16.690  0.1446 -0.1958  0.3282
10292TIP3    H152291   4.224   3.464  16.772  1.3660  1.0114 -0.4715
10292TIP3    H252292   4.124   3.421  16.667  0.0999  0.8936  0.7612
10293TIP3   OH252293   0.190   1.321  16.352 -0.1939 -0.2551  0.5766
10293TIP3    H152294   0.132   1.280  16.416 -0.2252  0.0013  0.7144
10293TIP3    H252295   0.141   1.318  16.270 -0.2569 -0.3550  0.6179
10294TIP3   OH252296   3.081   4.704   3.744  0.0246  0.0405 -0.0847
10294TIP3    H152297   3.042   4.619   3.723  0.7150 -0.5296  0.8662
10294TIP3    H252298   3.175   4.691   3.732  0.0620  1.0070 -1.0097
10295TIP3   OH252299   4.619   5.958  13.141  0.7543  0.1307 -0.1382
10295TIP3    H152300   4.680   5.899  13.184 -0.3895 -0.2324  1.0658
10295TIP3    H252301   4.638   6.044  13.179  1.1452  0.1879 -0.4659
10296TIP3   OH252302   3.485   4.409   2.797 -0.4796 -0.1514 -0.0279
10296TIP3    H152303   3.501   4.483   2.738 -0.2417 -0.9475 -1.0044
10296TIP3    H252304   3.433   4.446   2.869 -1.3220  0.7274 -1.0434
10297TIP3   OH252305   5.486   3.907  16.127 -0.0388  0.3631 -0.7909
10297TIP3    H152306   5.520   3.988  16.090  1.5487 -0.9087 -2.3433
10297TIP3    H252307   5.443   3.863  16.053 -1.7319  0.1918  0.2453
10298TIP3   OH252308   2.193   6.167   2.511  0.4214 -0.0231 -0.3571
10298TIP3    H152309   2.113   6.204   2.474  0.3801  0.0942 -0.1533
10298TIP3    H252310   2.165   6.126   2.593  0.5091 -0.2970 -0.4623
10299TIP3   OH252311   5.236   0.113  16.777  0.7859  0.1687  0.7038
10299TIP3    H152312   5.278   0.190  16.815  0.4507  0.0734  1.2814
10299TIP3    H252313   5.234   0.049  16.849 -0.7116  0.3157  0.8222
10300TIP3   OH252314   6.004   4.238  12.844  0.2548 -0.2969  0.2678
10300TIP3    H152315   6.027   4.278  12.760 -0.7577 -0.7105 -0.2221
10300TIP3    H252316   5.978   4.312  12.899  1.2969  0.0207  0.3721
10301TIP3   OH252317   5.822   0.993  15.765 -0.1767  0.2910 -0.1018
10301TIP3    H152318   5.849   1.026  15.850 -0.5189  2.5787 -0.8194
10301TIP3    H252319   5.727   1.008  15.762 -0.0961  0.7263 -1.0663
10302TIP3   OH252320   5.791   2.320   2.255 -0.2463 -0.3222 -0.0423
10302TIP3    H152321   5.831   2.318   2.342 -1.1606  0.4573  0.4133
10302TIP3    H252322   5.852   2.371   2.202  0.8785 -1.7509 -0.1720
10303TIP3   OH252323   4.940   0.097  12.054 -0.5603 -0.4031  0.4256
10303TIP3    H152324   4.878   0.127  11.988 -1.0764 -0.7127  0.7580
10303TIP3    H252325   5.014   0.062  12.004 -0.3265  0.6282  0.0309
10304TIP3   OH252326   3.293   5.443  15.453 -0.0305 -0.0425 -0.3461
10304TIP3    H152327   3.246   5.390  15.517 -0.8156  1.3635  0.2760
10304TIP3    H252328   3.385   5.420  15.467 -0.0972  0.8146  1.8887
10305TIP3   OH252329   2.450   1.770   5.107 -0.0549 -0.0238  0.4130
10305TIP3    H152330   2.391   1.698   5.086 -0.3199  0.2275  0.2896
10305TIP3    H252331   2.429   1.838   5.042  1.9012 -0.7627 -1.1141
10306TIP3   OH252332   6.535   5.746   1.663 -0.8204  0.6847  0.4792
10306TIP3    H152333   6.612   5.799   1.684 -0.6796 -0.1607  2.2413
10306TIP3    H252334   6.569   5.677   1.607 -0.6963  1.4579 -0.4292
10307TIP3   OH252335   1.879   0.048  12.395  0.0563  0.1746 -0.3631
10307TIP3    H152336   1.855   0.111  12.463  0.9035 -0.3003  0.3923
10307TIP3    H252337   1.896   0.103  12.318 -0.1207  0.7980  0.0285
10308TIP3   OH252338   4.058   3.144   2.038 -0.8029 -0.3342  0.6559
10308TIP3    H152339   3.966   3.130   2.017 -1.0186  0.0452  1.3352
10308TIP3    H252340   4.059   3.168   2.131  0.0545 -1.1861  0.8936
10309TIP3   OH252341   1.843   2.330   5.067 -0.3392  0.3169  0.6688
10309TIP3    H152342   1.824   2.237   5.058 -1.3884  0.5417  0.4596
10309TIP3    H252343   1.838   2.347   5.162  0.3356  0.0718  0.7539
10310TIP3   OH252344   2.911   2.449  12.754  0.3308 -0.8248  0.0538
10310TIP3    H152345   2.932   2.473  12.844  1.3195 -1.8228  0.1072
10310TIP3    H252346   2.835   2.390  12.763  0.0344 -0.4308  0.1756
10311TIP3   OH252347   1.084   3.009   4.431  0.1165  0.3481 -0.6446
10311TIP3    H152348   1.081   2.942   4.500 -0.6864 -0.6842 -1.6266
10311TIP3    H252349   1.176   3.011   4.404 -0.1504 -1.9400 -2.0221
10312TIP3   OH252350   0.018   5.094   3.025  0.1292  0.0642  0.3543
10312TIP3    H152351   0.022   5.018   2.966  0.2533  0.7558 -0.5454
10312TIP3    H252352  -0.067   5.084   3.069  0.0735 -0.5117  0.1366
10313TIP3   OH252353   0.432   2.401   6.501  0.2164  0.0024  0.7359
10313TIP3    H152354   0.456   2.381   6.410  1.4945 -0.9484  1.2486
10313TIP3    H252355   0.501   2.461   6.531 -0.2768  0.4195  1.0332
10314TIP3   OH252356   1.088   2.088   0.105  0.7249 -0.1745  0.4662
10314TIP3    H152357   1.076   2.109   0.197  0.8035  0.0854  0.4182
10314TIP3    H252358   1.002   2.057   0.076  1.1696 -2.1007  1.0887
10315TIP3   OH252359   3.653   0.041   1.977  0.4866  0.2587 -0.3479
10315TIP3    H152360   3.674   0.066   2.067  0.2121  0.6397 -0.3861
10315TIP3    H252361   3.738   0.016   1.939  0.3788 -1.4220  0.4605
10316TIP3   OH252362   5.630   3.887   2.299  0.0228  0.1383  0.2971
10316TIP3    H152363   5.601   3.900   2.208 -0.4384  1.6991  0.6350
10316TIP3    H252364   5.567   3.824   2.335  0.1472 -0.4150 -0.4264
10317TIP3   OH252365   3.091   6.524   1.742 -0.2501 -0.3288 -0.3081
10317TIP3    H152366   3.037   6.456   1.783  0.7150 -1.2474 -0.5268
10317TIP3    H252367   3.165   6.476   1.704  1.5375  1.0225  1.2624
10318TIP3   OH252368   3.560   6.784   0.885  0.0407  0.2586  0.1227
10318TIP3    H152369   3.559   6.879   0.869  1.0337  0.2556 -0.0254
10318TIP3    H252370   3.478   6.753   0.847 -0.2714  1.0484  0.1166
10319TIP3   OH252371   3.382   1.304   4.291  0.3629  0.3445 -0.3276
10319TIP3    H152372   3.295   1.279   4.322 -0.0642  2.1128  0.0474
10319TIP3    H252373   3.419   1.224   4.254 -1.0810 -0.6425  0.2843
10320TIP3   OH252374   4.376   6.564   5.166  0.3662  0.5327  0.2767
10320TIP3    H152375   4.385   6.654   5.132  0.0260  0.0012 -1.3369
10320TIP3    H252376   4.340   6.575   5.253 -1.7375  1.9279 -0.6779
10321TIP3   OH252377   6.417   2.567  11.845 -0.0373 -0.0233 -0.3929
10321TIP3    H152378   6.467   2.555  11.926  0.6741 -0.3908 -0.8830
10321TIP3    H252379   6.326   2.574  11.875  0.1587 -0.6366  0.3986
10322TIP3   OH252380   4.030   0.631  15.931  0.0280  0.0610  0.3370
10322TIP3    H152381   4.006   0.545  15.896 -1.2316  0.1494  0.9144
10322TIP3    H252382   3.946   0.669  15.959  0.7493  0.8470  1.5029
10323TIP3   OH252383   1.854   3.623   4.386  0.1530  0.7502  0.3920
10323TIP3    H152384   1.938   3.663   4.411 -0.6026  1.3871  2.0405
10323TIP3    H252385   1.803   3.622   4.466 -1.4244  0.3179 -0.5722
10324TIP3   OH252386   4.305   2.121  14.845 -0.0804 -0.5672 -0.3951
10324TIP3    H152387   4.286   2.041  14.893  0.7346 -0.7543 -0.3633
10324TIP3    H252388   4.374   2.096  14.783  3.1953  0.9277  2.2729
10325TIP3   OH252389   5.409   4.353  10.917  0.3204  0.0546  0.0952
10325TIP3    H152390   5.479   4.348  10.852 -0.7500  0.0825 -1.0961
10325TIP3    H252391   5.428   4.281  10.978  1.5880  0.3077  0.0204
10326TIP3   OH252392   0.375   4.932   0.090 -0.2948  0.1952  0.2914
10326TIP3    H152393   0.295   4.903   0.134 -0.8107 -1.8526 -1.7722
10326TIP3    H252394   0.433   4.855   0.093  0.6440  0.8537 -0.3595
10327TIP3   OH252395   0.047   5.589   1.554  0.3634 -0.9376 -0.0166
10327TIP3    H152396   0.103   5.629   1.621  1.2299  0.2134 -1.3686
10327TIP3    H252397   0.087   5.503   1.538 -1.3102 -2.3319  2.6549
10328TIP3   OH252398   1.737   0.137   5.582 -0.1962  0.0598 -0.5616
10328TIP3    H152399   1.738   0.104   5.492 -0.8515 -1.0465 -0.1932
10328TIP3    H252400   1.647   0.124   5.610  0.9032 -4.4313  1.8835
10329TIP3   OH252401   3.418   5.580   3.754  0.1744 -0.2805 -0.2530
10329TIP3    H152402   3.328   5.607   3.770 -0.7781 -1.9765 -2.1657
10329TIP3    H252403   3.426   5.496   3.799  0.9724  0.0867  0.3060
10330TIP3   OH252404   4.947   1.792  15.901 -0.1720  0.5083 -1.1056
10330TIP3    H152405   4.865   1.830  15.932  0.0264 -1.2964  2.0523
10330TIP3    H252406   5.014   1.829  15.959  1.0059  0.4904 -2.3911
10331TIP3   OH252407   2.048   3.328  16.934 -0.2039 -0.1812  0.3473
10331TIP3    H152408   2.121   3.346  16.874 -0.4624  2.0686  0.6111
10331TIP3    H252409   2.049   3.402  16.995 -1.7727 -0.9059  1.2980
10332TIP3   OH252410   1.818   0.937   4.189 -1.2908 -0.0394  0.4768
10332TIP3    H152411   1.865   0.931   4.272 -0.2912 -0.3749 -0.0939
10332TIP3    H252412   1.796   1.029   4.181 -0.4355  0.1859  0.6119
10333TIP3   OH252413   6.086   0.004  14.367 -0.4980  0.3852  0.1980
10333TIP3    H152414   6.021  -0.034  14.308 -0.6060 -0.0077  0.5670
10333TIP3    H252415   6.035   0.038  14.440 -0.1816 -1.2818  1.2303
10334TIP3   OH252416   4.112   1.108   1.563 -0.1140  0.1737 -0.0963
10334TIP3    H152417   4.028   1.073   1.534  0.6752 -1.8397 -0.1550
10334TIP3    H252418   4.107   1.107   1.658 -0.2623  0.3365 -0.1021
10335TIP3   OH252419   2.666   2.171   1.087 -0.1229 -0.1755  0.2379
10335TIP3    H152420   2.594   2.108   1.089  1.1710 -1.7264  2.0172
10335TIP3    H252421   2.724   2.139   1.018 -0.4193  0.2450 -0.2139
10336TIP3   OH252422   0.695   2.958  12.744 -0.2951  0.0554 -0.2114
10336TIP3    H152423   0.628   2.986  12.805 -1.7762  2.5705 -2.7403
10336TIP3    H252424   0.770   3.015  12.762 -0.3421  0.0668 -0.0538
10337TIP3   OH252425   6.155   1.941  16.880 -0.1594  0.1940  0.2241
10337TIP3    H152426   6.171   2.012  16.943  1.6416  0.2529 -0.2406
10337TIP3    H252427   6.138   1.986  16.797  1.3398  0.1335 -0.1514
10338TIP3   OH252428   5.963   2.652   0.533 -0.0936 -0.1763 -0.1498
10338TIP3    H152429   5.968   2.741   0.568  0.0464 -0.4648  0.5790
10338TIP3    H252430   5.877   2.647   0.492  0.8374  1.1114 -2.4796
10339TIP3   OH252431   2.217   3.928   0.734  0.0506 -0.1283 -0.1228
10339TIP3    H152432   2.136   3.968   0.765 -0.6342 -1.0325 -0.6892
10339TIP3    H252433   2.210   3.931   0.639  1.7780  1.9314 -0.2624
10340TIP3   OH252434   2.701   4.248   4.754  0.4523 -0.2992  0.3665
10340TIP3    H152435   2.750   4.196   4.817 -1.8274 -0.8930  1.7765
10340TIP3    H252436   2.638   4.297   4.807 -0.7311  0.1253 -1.3371
10341TIP3   OH252437   6.347   5.090   0.991 -0.1689  0.0154  0.0915
10341TIP3    H152438   6.271   5.036   1.010 -0.4097  0.2561 -0.1768
10341TIP3    H252439   6.416   5.028   0.967 -1.1417 -0.1172 -2.7867
10342TIP3   OH252440   1.073   5.032   3.402  0.0219  0.6852  0.2767
10342TIP3    H152441   1.144   4.983   3.445  0.4920  1.5486  0.5074
10342TIP3    H252442   1.007   5.044   3.471  0.2851  1.1055  0.4604
10343TIP3   OH252443   4.948   0.882   3.670  0.0878 -0.3838 -0.0068
10343TIP3    H152444   4.950   0.921   3.758  0.0154 -2.1314  0.8320
10343TIP3    H252445   4.855   0.878   3.648  0.0189 -0.9325  0.3426
10344TIP3   OH252446   2.472   5.605  13.714  0.1309 -0.2967  0.1060
10344TIP3    H152447   2.439   5.516  13.727 -1.9358  0.2310 -1.1242
10344TIP3    H252448   2.405   5.662  13.753 -0.2816  0.8192 -2.0860
10345TIP3   OH252449   2.138   3.684   0.442 -0.1478  0.1250  0.6608
10345TIP3    H152450   2.048   3.672   0.472 -0.0829 -0.0496  0.7875
10345TIP3    H252451   2.177   3.597   0.449 -0.0516  0.1388  0.3345
10346TIP3   OH252452   6.595   5.595  15.647  0.4897  0.3141 -0.7752
10346TIP3    H152453   6.527   5.564  15.587  0.2064  0.0251 -0.3149
10346TIP3    H252454   6.558   5.580  15.734  1.0126  0.4659 -0.5240
10347TIP3   OH252455   3.839   4.657  15.769  0.1068 -0.3077  0.1212
10347TIP3    H152456   3.801   4.570  15.775 -0.9371 -0.1084 -2.3979
10347TIP3    H252457   3.767   4.717  15.789  0.8596  0.0581  2.0203
10348TIP3   OH252458   1.933   0.447   0.500 -0.0114 -0.1930 -0.1888
10348TIP3    H152459   1.904   0.356   0.489 -0.4863 -0.0477 -0.1805
10348TIP3    H252460   1.921   0.486   0.413 -1.4129  0.3012  0.1923
10349TIP3   OH252461   4.233   6.415  15.408  0.1034  0.0796  0.0865
10349TIP3    H152462   4.300   6.456  15.463 -0.5441  1.5839 -0.1838
10349TIP3    H252463   4.271   6.412  15.321 -0.2813  1.2862 -0.1465
10350TIP3   OH252464   0.170   6.368   0.557  0.0020 -0.0536  0.1671
10350TIP3    H152465   0.144   6.428   0.627 -0.6976  0.1554 -0.2579
10350TIP3    H252466   0.088   6.348   0.511  0.1072 -1.8849  0.7152
10351TIP3   OH252467   6.435   0.825   2.790 -0.2639  0.1620 -0.2064
10351TIP3    H152468   6.529   0.808   2.783 -0.3329  0.2999 -1.9467
10351TIP3    H252469   6.407   0.772   2.865  0.8146 -1.7070 -1.0341
10352TIP3   OH252470   2.648   1.825  15.173  0.1428 -0.2777 -0.1721
10352TIP3    H152471   2.718   1.760  15.181 -1.7819 -2.3246  1.3047
10352TIP3    H252472   2.570   1.780  15.205 -1.8973  1.8910 -1.7794
10353TIP3   OH252473   1.812   1.342  14.275  0.1219  0.4263  0.0358
10353TIP3    H152474   1.880   1.295  14.228  0.7605  0.3810  0.9678
10353TIP3    H252475   1.740   1.280  14.283 -0.6673  0.9666 -2.2881
10354TIP3   OH252476   0.312   0.771   5.047 -0.4645  0.3030  0.2046
10354TIP3    H152477   0.333   0.797   5.137 -0.7210 -1.3403  0.7713
10354TIP3    H252478   0.256   0.842   5.014 -0.1372  1.0583  1.2351
10355TIP3   OH252479   0.382   4.843  15.090 -0.3989  0.4467 -0.4225
10355TIP3    H152480   0.301   4.892  15.107 -0.3982  0.5089 -0.5955
10355TIP3    H252481   0.431   4.897  15.028  0.3315  0.9935  0.6037
10356TIP3   OH252482   0.994   1.992   5.274  0.4204 -0.6375  0.0373
10356TIP3    H152483   0.903   1.969   5.255  0.5203 -0.9225 -0.1009
10356TIP3    H252484   1.020   2.049   5.201  0.4973 -0.9325 -0.1664
10357TIP3   OH252485   6.594   2.887  16.461 -0.6501 -0.4362  0.6117
10357TIP3    H152486   6.527   2.932  16.513 -0.1623  1.1161 -0.0650
10357TIP3    H252487   6.627   2.818  16.520 -2.5935 -1.0496  1.0649
10358TIP3   OH252488   1.780   4.299  12.040  0.3249  0.3194  0.5504
10358TIP3    H152489   1.813   4.389  12.031  2.2208 -0.3536  0.1839
10358TIP3    H252490   1.815   4.269  12.124 -0.8163  0.1016  0.9678
10359TIP3   OH252491   5.401   2.355   3.698  0.1424  0.1991 -0.1904
10359TIP3    H152492   5.489   2.356   3.659  0.3519  0.6978  0.2901
10359TIP3    H252493   5.400   2.276   3.752  0.4479  0.4094  0.1326
10360TIP3   OH252494   3.520   3.729  14.579 -0.2012  0.5078  0.0358
10360TIP3    H152495   3.526   3.813  14.625 -1.3216  0.6793 -0.1069
10360TIP3    H252496   3.514   3.752  14.487  1.5388  0.1781 -0.1966
10361TIP3   OH252497   3.788   2.728  13.005 -0.2220  0.0825 -0.0807
10361TIP3    H152498   3.711   2.757  13.055  0.1747 -0.7537  1.0716
10361TIP3    H252499   3.861   2.739  13.066  0.3874 -0.2996 -0.7339
10362TIP3   OH252500   1.500   6.711   4.697 -0.6873 -0.5950 -0.0064
10362TIP3    H152501   1.490   6.798   4.657  0.5423 -0.2867  0.2967
10362TIP3    H252502   1.551   6.661   4.634  0.5026 -0.3794  0.7326
10363TIP3   OH252503   0.788   0.811   1.146 -0.6199 -0.1550 -0.1285
10363TIP3    H152504   0.768   0.750   1.075 -0.1851  1.7767 -2.0245
10363TIP3    H252505   0.727   0.884   1.134  1.6935  1.8355 -0.7645
10364TIP3   OH252506   6.782   1.423   1.036  0.1241 -0.0366 -0.3035
10364TIP3    H152507   6.752   1.333   1.045 -1.6756  0.5828  0.3588
10364TIP3    H252508   6.709   1.476   1.068  0.1581  1.7836 -2.9137
10365TIP3   OH252509   4.408   4.901   5.122 -0.1319 -0.2654  0.0124
10365TIP3    H152510   4.428   4.917   5.214  0.8330 -1.3703  0.0224
10365TIP3    H252511   4.336   4.961   5.102 -1.1632 -0.8411  1.7932
10366TIP3   OH252512   0.052   2.621  16.240  0.1148  0.1996  0.2526
10366TIP3    H152513   0.105   2.599  16.317  1.5967  0.7363 -0.5580
10366TIP3    H252514   0.083   2.562  16.172  0.5939  1.3803 -0.5798
10367TIP3   OH252515   0.195   4.209  11.859 -0.0528 -0.0811  0.3553
10367TIP3    H152516   0.287   4.201  11.887 -0.2761  0.0338  1.1387
10367TIP3    H252517   0.153   4.129  11.891 -0.5624  0.5695  1.3494
10368TIP3   OH252518   0.671   1.746  12.107  0.2416  0.3103 -0.4467
10368TIP3    H152519   0.696   1.837  12.095 -0.1726  0.5234  0.2556
10368TIP3    H252520   0.628   1.721  12.025 -0.2223  0.9380 -0.3954
10369TIP3   OH252521   5.559   0.501   1.021 -0.3901 -0.1971  0.2308
10369TIP3    H152522   5.478   0.538   1.057 -0.6155 -0.6729  0.2248
10369TIP3    H252523   5.540   0.407   1.012  0.4816 -0.4700  1.1006
10370TIP3   OH252524   1.638   0.101  14.168  0.3603  0.0906 -0.1879
10370TIP3    H152525   1.599   0.164  14.108 -0.2730  0.5588  0.6860
10370TIP3    H252526   1.575   0.094  14.240  0.5149 -1.3793 -0.1578
10371TIP3   OH252527   4.590   6.739  16.805 -0.4809  0.1214  0.3016
10371TIP3    H152528   4.616   6.654  16.769 -0.8460 -0.3768  1.1763
10371TIP3    H252529   4.616   6.802  16.738 -0.4201 -0.6978 -0.4706
10372TIP3   OH252530   5.043   1.303  14.413  0.5083  0.0812 -0.3450
10372TIP3    H152531   5.014   1.394  14.415 -0.1509 -0.1300  0.1970
10372TIP3    H252532   5.129   1.306  14.370 -0.2225  0.7465 -1.8068
10373TIP3   OH252533   5.758   4.641   5.925  0.0764 -0.5674  0.0219
10373TIP3    H152534   5.785   4.600   6.007 -2.9022 -0.6718  1.0846
10373TIP3    H252535   5.820   4.712   5.911  1.0133 -0.9380  2.0541
10374TIP3   OH252536   3.279   5.060   2.280  0.2013 -0.2072  0.4473
10374TIP3    H152537   3.231   5.002   2.340 -1.5707  0.5182 -0.2149
10374TIP3    H252538   3.332   5.115   2.338 -0.7474 -0.1586  1.3040
10375TIP3   OH252539   3.350   6.706   4.171  0.0942  0.1650 -0.0681
10375TIP3    H152540   3.269   6.655   4.168 -0.0478  0.4282 -0.9283
10375TIP3    H252541   3.322   6.797   4.181  0.2682  0.2893 -0.6808
10376TIP3   OH252542   4.182   5.526   2.146 -0.2262 -0.0541  0.0038
10376TIP3    H152543   4.228   5.474   2.212 -2.4831 -1.0891  0.8912
10376TIP3    H252544   4.169   5.611   2.188  0.6531  0.1711 -0.1677
10377TIP3   OH252545   5.795   6.522  16.666 -0.4513 -0.1624 -0.0738
10377TIP3    H152546   5.801   6.599  16.722  0.0118 -1.7820  2.2641
10377TIP3    H252547   5.788   6.448  16.727 -2.0906 -1.9232 -2.1893
10378TIP3   OH252548   4.931   0.889   4.011  0.1332 -0.2164  0.5138
10378TIP3    H152549   4.842   0.917   4.030 -0.2765 -1.6489  0.8022
10378TIP3    H252550   4.925   0.794   4.002  1.8503 -0.4972  1.8280
10379TIP3   OH252551   0.722   4.028   0.267  0.0018  0.1421 -0.1520
10379TIP3    H152552   0.804   4.071   0.243  1.1347 -0.8835  1.6659
10379TIP3    H252553   0.749   3.943   0.301 -1.9438 -0.7667 -0.7750
10380TIP3   OH252554   4.028   4.290   4.776 -0.1235  0.2833 -0.3832
10380TIP3    H152555   4.083   4.233   4.722 -1.8778 -0.2108 -1.7552
10380TIP3    H252556   3.989   4.351   4.713  0.1020  1.6846  0.7892
10381TIP3   OH252557   0.851   1.292  12.094 -0.2291  0.1930  0.1570
10381TIP3    H152558   0.914   1.358  12.064  0.1430  0.3062  1.1594
10381TIP3    H252559   0.809   1.331  12.170 -0.6057 -0.4033  0.2654
10382TIP3   OH252560   3.987   6.496  14.412 -0.0078  0.5147  0.6385
10382TIP3    H152561   3.983   6.432  14.483  1.0427  0.1100  0.3487
10382TIP3    H252562   4.070   6.542  14.426  0.0986  0.5857 -0.1915
10383TIP3   OH252563   4.898   0.053   4.792 -0.1585  0.1183  0.3933
10383TIP3    H152564   4.914   0.118   4.724 -2.8716 -0.8779 -1.3856
10383TIP3    H252565   4.804   0.035   4.786  0.2757 -3.1968  1.4638
10384TIP3   OH252566   2.404   3.181  15.850  0.1832 -0.1374  0.5540
10384TIP3    H152567   2.420   3.261  15.801  0.6835 -0.4772  0.1568
10384TIP3    H252568   2.470   3.119  15.819 -0.5179 -0.8730  0.4779
10385TIP3   OH252569   0.404   6.160   4.606 -0.2797 -0.2581  0.0063
10385TIP3    H152570   0.373   6.232   4.552  0.1865  0.4697  0.6810
10385TIP3    H252571   0.324   6.124   4.645 -0.4267  0.6482  0.5764
10386TIP3   OH252572   1.317   1.642   4.518 -0.1470 -0.0193  0.2333
10386TIP3    H152573   1.271   1.726   4.519 -2.5489 -1.1015 -2.7877
10386TIP3    H252574   1.327   1.622   4.425  2.6904 -1.9440  0.8473
10387TIP3   OH252575   4.471   2.853  14.962  0.3403 -0.0171  0.6420
10387TIP3    H152576   4.449   2.844  15.055  0.3804 -1.8318  0.5232
10387TIP3    H252577   4.397   2.813  14.916  0.1098  1.2834 -0.1446
10388TIP3   OH252578   5.967   2.839   5.282  0.1246 -0.4512 -0.0039
10388TIP3    H152579   5.923   2.809   5.203  0.8317 -2.0493  0.1556
10388TIP3    H252580   5.964   2.934   5.277 -1.3081 -0.5166 -1.1079
10389TIP3   OH252581   0.764   3.943   1.617  0.0799  0.0184 -0.8234
10389TIP3    H152582   0.678   3.902   1.619  0.5348 -0.9449  0.5553
10389TIP3    H252583   0.746   4.035   1.599 -1.5203  0.3425  1.8243
10390TIP3   OH252584   2.980   1.287   2.686  0.1799  0.3943 -0.3216
10390TIP3    H152585   2.936   1.305   2.603 -0.9386  0.6373  0.3124
10390TIP3    H252586   3.009   1.196   2.678  0.8971  0.6962 -1.3281
10391TIP3   OH252587   0.259   1.506  10.931  0.4093  0.4720  0.3222
10391TIP3    H152588   0.172   1.527  10.964 -1.5224 -2.9996 -1.8209
10391TIP3    H252589   0.271   1.564  10.856 -0.3785  0.6134  0.2957
10392TIP3   OH252590   2.542   6.655  13.139  0.0663  0.2236  0.5117
10392TIP3    H152591   2.586   6.683  13.220  0.0585  1.4037  0.1208
10392TIP3    H252592   2.573   6.716  13.073 -0.3242 -0.4225 -0.2776
10393TIP3   OH252593   5.069   4.144   4.608  0.2102  0.0045  0.6615
10393TIP3    H152594   5.146   4.100   4.644 -0.0744 -0.4332  0.7424
10393TIP3    H252595   5.105   4.208   4.546  0.5917 -1.0561 -0.2428
10394TIP3   OH252596   5.259   0.256  16.171  0.7940  0.5682 -0.5143
10394TIP3    H152597   5.354   0.246  16.177  0.8102  1.4064  1.1266
10394TIP3    H252598   5.224   0.183  16.222  0.5684  0.5674 -0.6712
10395TIP3   OH252599   0.726   4.388   5.838  0.6320  0.2807 -0.0659
10395TIP3    H152600   0.678   4.382   5.920  0.8515 -0.6499  0.0014
10395TIP3    H252601   0.777   4.469   5.846  1.6542 -0.4635  1.2770
10396TIP3   OH252602   2.198   0.250  13.094 -0.3685  0.2599  0.3210
10396TIP3    H152603   2.221   0.170  13.046  1.0303  0.4086  0.6937
10396TIP3    H252604   2.257   0.251  13.169 -1.8532  0.5417  1.5418
10397TIP3   OH252605   4.242   4.720   0.602 -0.1198 -0.5246 -0.1111
10397TIP3    H152606   4.224   4.697   0.511 -0.6224 -2.5872  0.4331
10397TIP3    H252607   4.158   4.706   0.646  0.8838 -3.0622  1.2277
10398TIP3   OH252608   3.422   6.400  16.760  0.7054 -0.3191  0.4040
10398TIP3    H152609   3.450   6.400  16.852  1.1293 -0.5521  0.2747
10398TIP3    H252610   3.417   6.307  16.737  0.6261 -0.2606  0.1798
10399TIP3   OH252611   2.858   1.092  14.135  0.0179 -0.1680  0.0869
10399TIP3    H152612   2.797   1.092  14.208 -0.8073 -0.3977 -0.5903
10399TIP3    H252613   2.908   1.011  14.145 -0.6297 -0.5889 -0.0363
10400TIP3   OH252614   4.828   3.514   4.527  0.6445  0.1512  0.1002
10400TIP3    H152615   4.881   3.469   4.461  0.6459  1.8087 -1.0777
10400TIP3    H252616   4.873   3.497   4.609  0.4666 -2.2524 -0.2048
10401TIP3   OH252617   1.963   2.079   0.089 -0.3096 -0.3284 -0.1499
10401TIP3    H152618   1.936   2.102   0.179 -0.8781 -1.0591 -0.1274
10401TIP3    H252619   1.881   2.069   0.041 -0.1154 -2.3515 -0.1454
10402TIP3   OH252620   1.919   1.245  16.809 -0.3051  0.0073 -0.2088
10402TIP3    H152621   1.966   1.168  16.776  2.0301  0.9379  0.7255
10402TIP3    H252622   1.967   1.319  16.772 -2.2878  1.0650 -0.7945
10403TIP3   OH252623   3.697   5.051  14.403 -1.3768  0.4807  0.4162
10403TIP3    H152624   3.770   5.022  14.349 -1.5066  0.9529 -0.0247
10403TIP3    H252625   3.662   4.971  14.442  0.9499  0.4505  2.6877
10404TIP3   OH252626   5.555   2.591   2.903 -0.1842  0.0535  0.0793
10404TIP3    H152627   5.461   2.609   2.899  0.3522  3.2808 -1.3842
10404TIP3    H252628   5.568   2.520   2.840 -1.5238  0.2709 -0.4753
10405TIP3   OH252629   3.364   2.494  10.676  0.0535 -0.3832  0.3691
10405TIP3    H152630   3.380   2.568  10.618  1.6314 -0.9977 -0.0336
10405TIP3    H252631   3.326   2.532  10.755  1.0100  0.8710  0.2445
10406TIP3   OH252632   4.267   2.304   5.798  0.1501 -0.0334 -0.4022
10406TIP3    H152633   4.179   2.269   5.780  1.4573 -2.5373 -2.6729
10406TIP3    H252634   4.310   2.234   5.847  1.7401 -0.1576 -1.8793
10407TIP3   OH252635   5.560   3.971  12.576  0.0307  0.7210  0.1026
10407TIP3    H152636   5.542   3.981  12.669 -0.0040  0.3961  0.1308
10407TIP3    H252637   5.635   3.913  12.572 -0.8569 -0.4511 -0.1082
10408TIP3   OH252638   6.616   3.489   6.407  0.5979  0.2987  0.2061
10408TIP3    H152639   6.543   3.487   6.346  0.5544  0.1685  0.2618
10408TIP3    H252640   6.693   3.502   6.352  0.3931  2.0630  0.2781
10409TIP3   OH252641   2.786   2.016   1.436  0.3150  0.3770  0.3845
10409TIP3    H152642   2.784   2.112   1.436  0.6954  0.4107 -0.8305
10409TIP3    H252643   2.748   1.991   1.520 -1.6092  1.5696 -0.0682
10410TIP3   OH252644   4.034   2.324  14.433 -0.2148  0.1456  0.5702
10410TIP3    H152645   4.109   2.343  14.489  0.8380 -0.4510 -0.6007
10410TIP3    H252646   3.982   2.261  14.483  0.6822 -0.3472  0.8951
10411TIP3   OH252647   6.754   2.718   5.152 -1.1362  0.0837  0.1162
10411TIP3    H152648   6.769   2.800   5.106  0.3940 -0.4464 -0.3613
10411TIP3    H252649   6.840   2.677   5.158 -1.5330 -0.5784  2.1091
10412TIP3   OH252650   4.072   2.602  12.396  0.2794 -0.4251  0.5778
10412TIP3    H152651   3.986   2.581  12.361 -0.2719 -0.3276  1.8224
10412TIP3    H252652   4.082   2.545  12.473  0.3950  1.0477  1.7037
10413TIP3   OH252653   2.719   5.325   3.926  0.2778  0.3096 -0.0395
10413TIP3    H152654   2.645   5.318   3.865  1.2047 -1.9939 -1.0243
10413TIP3    H252655   2.795   5.300   3.874  1.2825 -0.5177  1.7419
10414TIP3   OH252656   5.794   5.352   3.484 -0.3559 -0.1188  0.2595
10414TIP3    H152657   5.812   5.262   3.509  0.5632  0.1390  0.5683
10414TIP3    H252658   5.735   5.385   3.553  1.4985  0.3326  1.7236
10415TIP3   OH252659   1.743   0.625  15.436  0.2130 -0.1716  0.1460
10415TIP3    H152660   1.822   0.599  15.483 -0.1663  0.4404  1.1484
10415TIP3    H252661   1.724   0.713  15.467  0.1866  0.4407 -1.4872
10416TIP3   OH252662   4.082   5.180   1.397  0.4418 -0.0725 -0.1589
10416TIP3    H152663   4.147   5.248   1.415  0.8367 -0.7068  0.8871
10416TIP3    H252664   4.123   5.124   1.331  0.5329  0.0927 -0.2436
10417TIP3   OH252665   1.648   6.241  11.793  0.0900 -0.0314  0.3114
10417TIP3    H152666   1.646   6.255  11.698 -0.6429  0.4720  0.3909
10417TIP3    H252667   1.734   6.273  11.820  0.3868 -0.3749 -0.2063
10418TIP3   OH252668   2.282   0.223  12.390  0.5914 -0.1073  0.1410
10418TIP3    H152669   2.349   0.156  12.405  1.1644  0.5914  0.7971
10418TIP3    H252670   2.214   0.178  12.339  0.7537 -1.3060  0.9294
10419TIP3   OH252671   0.199   5.848  15.440  0.1120 -0.3913 -0.5770
10419TIP3    H152672   0.252   5.781  15.397  0.1875 -0.3576 -0.5378
10419TIP3    H252673   0.207   5.828  15.533 -0.5703 -0.8465 -0.6142
10420TIP3   OH252674   2.318   1.473   0.788  0.2158 -0.5303 -0.3670
10420TIP3    H152675   2.229   1.471   0.823  0.4372 -0.1623  0.2215
10420TIP3    H252676   2.311   1.429   0.703 -0.6374  0.0100 -0.5868
10421TIP3   OH252677   0.647   5.495  12.436 -0.1220  0.0574 -0.5518
10421TIP3    H152678   0.721   5.552  12.417 -1.9499  2.8075 -0.0682
10421TIP3    H252679   0.638   5.500  12.532  0.3962 -2.1013 -0.3479
10422TIP3   OH252680   1.261   6.189  14.563 -0.0711  0.4373  0.1723
10422TIP3    H152681   1.355   6.186  14.546 -0.3001  0.0461 -1.0933
10422TIP3    H252682   1.228   6.255  14.502 -0.8396 -0.5748 -0.5418
10423TIP3   OH252683   1.499   2.347   1.094 -0.1496 -0.4272  0.6671
10423TIP3    H152684   1.554   2.321   1.020  0.4711  0.6826  0.7331
10423TIP3    H252685   1.438   2.273   1.104  0.5096 -1.1177 -0.1934
10424TIP3   OH252686   3.503   2.579   3.228 -0.3365 -0.2347 -0.3088
10424TIP3    H152687   3.517   2.656   3.172  1.9034 -1.1744 -1.1485
10424TIP3    H252688   3.416   2.547   3.204 -0.3110  0.6405 -1.6744
10425TIP3   OH252689   0.922   1.031  13.355  0.2035  0.5864  0.0433
10425TIP3    H152690   0.988   0.968  13.325 -0.1329  0.5043 -0.5404
10425TIP3    H252691   0.917   1.017  13.449  1.0811  0.6583  0.1052
10426TIP3   OH252692   4.462   4.877  11.110  0.1448 -0.0409  0.5496
10426TIP3    H152693   4.457   4.968  11.081  1.8141 -0.3731 -0.9756
10426TIP3    H252694   4.427   4.826  11.036 -1.7620 -0.6272  1.7928
10427TIP3   OH252695   3.446   0.410   4.635 -0.0869 -0.6331  0.6293
10427TIP3    H152696   3.417   0.437   4.723  0.9381 -1.4808  1.2546
10427TIP3    H252697   3.541   0.401   4.644 -0.1104 -1.9423 -0.2314
10428TIP3   OH252698   3.050   1.025   2.680 -0.3078 -0.2380 -0.0683
10428TIP3    H152699   3.120   0.994   2.623  0.0723  0.5936 -0.0633
10428TIP3    H252700   3.086   1.020   2.768 -0.2497  0.2079 -0.0671
10429TIP3   OH252701   1.051   2.949   0.949 -0.2318 -0.5405  0.1928
10429TIP3    H152702   1.000   2.938   1.029 -1.8532 -1.1794 -0.8765
10429TIP3    H252703   1.142   2.938   0.977 -0.5500  1.4606  2.3093
10430TIP3   OH252704   2.732   3.046  14.998 -0.5261  0.2829 -0.3028
10430TIP3    H152705   2.721   3.076  15.088  1.0475  0.8397 -0.2710
10430TIP3    H252706   2.644   3.053  14.959 -1.6465 -1.6285  1.6378
10431TIP3   OH252707   1.810   3.683  12.756  0.1550  0.5348  0.5374
10431TIP3    H152708   1.754   3.607  12.746 -1.3815  1.4451  1.6542
10431TIP3    H252709   1.801   3.707  12.849  1.5098  1.3891  0.4767
10432TIP3   OH252710   0.533   6.754   1.590 -0.1594  1.2212  0.4183
10432TIP3    H152711   0.612   6.771   1.642  0.1031 -0.7950  0.7704
10432TIP3    H252712   0.562   6.764   1.499  1.5433 -2.6957  0.3174
10433TIP3   OH252713   3.454   2.733   1.033 -0.2065 -0.3971  0.0998
10433TIP3    H152714   3.501   2.650   1.028  0.3161 -0.2332  1.7189
10433TIP3    H252715   3.373   2.718   0.986 -0.1450 -1.8480  0.4256
10434TIP3   OH252716   4.454   1.817   0.868  0.7626 -0.1007  0.0685
10434TIP3    H152717   4.393   1.839   0.798  1.4780 -0.1356 -0.5894
10434TIP3    H252718   4.441   1.885   0.934 -1.4512 -1.2821  0.9141
10435TIP3   OH252719   2.007   3.516   3.827 -0.5904 -0.1023  0.2139
10435TIP3    H152720   1.946   3.495   3.898 -0.5462 -0.5226  0.1294
10435TIP3    H252721   1.975   3.599   3.793 -1.9429 -0.9534 -0.7000
10436TIP3   OH252722   4.036   3.822  12.934  0.7006 -0.3105 -0.3064
10436TIP3    H152723   4.044   3.740  12.983 -0.1478 -1.1026 -1.4517
10436TIP3    H252724   4.064   3.890  12.996  0.2423 -1.3434  1.0818
10437TIP3   OH252725   4.292   3.146   3.149  0.6019 -0.1318  0.8793
10437TIP3    H152726   4.306   3.149   3.055  2.2144 -1.2500  1.0468
10437TIP3    H252727   4.373   3.110   3.185  0.0962  0.4223  2.7192
10438TIP3   OH252728   2.943   4.375   1.151 -0.1072  0.2642  0.3678
10438TIP3    H152729   2.981   4.442   1.094 -2.1919  0.7762 -0.4868
10438TIP3    H252730   2.993   4.383   1.232  0.3176  2.2398 -0.0294
10439TIP3   OH252731   0.075   2.198   1.110 -0.0418  0.5222  0.4769
10439TIP3    H152732   0.025   2.117   1.126 -0.4837  0.8528  0.7795
10439TIP3    H252733   0.026   2.266   1.155 -0.9439  1.3744 -1.6407
10440TIP3   OH252734   1.882   3.756  13.011  0.1615  0.7535  0.3553
10440TIP3    H152735   1.813   3.822  13.002 -1.2592 -0.3308  2.3564
10440TIP3    H252736   1.949   3.799  13.064  0.6705  1.5389 -0.8901
10441TIP3   OH252737   4.812   2.553   6.057  0.7607  0.3155 -0.5827
10441TIP3    H152738   4.827   2.584   5.968  0.4384 -0.3132 -0.8683
10441TIP3    H252739   4.816   2.631   6.112  0.0058  0.8545 -1.2716
10442TIP3   OH252740   5.262   3.505  11.731  0.1198  0.3712  0.1375
10442TIP3    H152741   5.321   3.429  11.728  1.6484  1.4576  1.3334
10442TIP3    H252742   5.271   3.539  11.819 -0.9818  1.6407 -0.2019
10443TIP3   OH252743   1.381   2.209   4.960 -0.3053  0.0648  0.1806
10443TIP3    H152744   1.313   2.147   4.935 -0.4518 -0.0347  0.7965
10443TIP3    H252745   1.393   2.195   5.054  0.6040  0.0515  0.0717
10444TIP3   OH252746   6.300   1.961   0.221  0.0352 -0.1712  0.0652
10444TIP3    H152747   6.313   2.009   0.139 -1.5741  1.7889  0.8979
10444TIP3    H252748   6.207   1.971   0.240  0.5866  0.4648  2.7532
10445TIP3   OH252749   6.528   4.993  15.647  0.4685  0.5989 -0.4809
10445TIP3    H152750   6.582   5.072  15.637 -0.6642  1.3085 -1.3135
10445TIP3    H252751   6.503   4.970  15.557 -1.4148  0.8847 -0.0628
10446TIP3   OH252752   0.411   0.185  15.118 -0.4255 -0.0603  0.4046
10446TIP3    H152753   0.377   0.159  15.204 -1.1363 -1.2961 -0.2221
10446TIP3    H252754   0.491   0.134  15.108  1.2114  2.1530  1.4762
10447TIP3   OH252755   6.232   1.109   1.835 -0.0583 -0.2454  0.0691
10447TIP3    H152756   6.301   1.144   1.891  0.6674 -0.6765 -0.5351
10447TIP3    H252757   6.276   1.045   1.780 -1.0993 -1.1641  0.2495
10448TIP3   OH252758   5.840   0.226   4.313 -0.0700 -0.2814  0.6719
10448TIP3    H152759   5.840   0.161   4.383  1.4303  0.3590  1.3132
10448TIP3    H252760   5.908   0.196   4.252 -2.3657 -1.6652 -1.4016
10449TIP3   OH252761   3.154   4.957   4.066  0.0506 -0.7866 -0.8452
10449TIP3    H152762   3.115   4.937   3.981 -0.4411 -1.9847 -0.3665
10449TIP3    H252763   3.079   4.973   4.123  0.2925 -1.8309 -0.2142
10450TIP3   OH252764   2.463   2.612  11.295  0.1600  0.3938 -0.0181
10450TIP3    H152765   2.516   2.592  11.218  2.7079  0.5429  1.5811
10450TIP3    H252766   2.453   2.527  11.339  0.3352  0.6146  0.4487
10451TIP3   OH252767   2.216   3.169   2.378 -0.4953 -0.7355  0.0439
10451TIP3    H152768   2.272   3.225   2.433 -0.3958  0.5811 -1.3263
10451TIP3    H252769   2.232   3.080   2.411  2.9486 -0.5431 -0.6765
10452TIP3   OH252770   2.070   4.011  14.230  0.2592 -0.1121  0.0787
10452TIP3    H152771   2.159   3.976  14.227 -0.5378 -2.2324 -0.9463
10452TIP3    H252772   2.024   3.955  14.292 -0.1205  1.7025  1.5117
10453TIP3   OH252773   4.747   5.855   4.538 -0.0335 -0.7399  0.4913
10453TIP3    H152774   4.734   5.815   4.452 -0.4180 -1.6346  0.9489
10453TIP3    H252775   4.793   5.936   4.520  0.0920 -1.0235 -0.5420
10454TIP3   OH252776   2.011   6.678  17.084  0.2107  0.2282  0.0697
10454TIP3    H152777   2.020   6.584  17.097  1.8730  0.3608  0.0738
10454TIP3    H252778   1.938   6.687  17.022 -0.8674 -0.9612  1.1019
10455TIP3   OH252779   5.179   4.212   5.233 -0.0674  0.4280 -0.0647
10455TIP3    H152780   5.086   4.190   5.226 -0.0210  0.3540 -0.4833
10455TIP3    H252781   5.224   4.140   5.187  0.3071 -0.4327  1.5801
10456TIP3   OH252782   3.005   3.518  14.061 -0.4371 -0.2036  0.1716
10456TIP3    H152783   3.017   3.487  14.151 -0.4513  1.3123  0.7236
10456TIP3    H252784   2.915   3.494  14.039 -1.0678  1.0076  1.2582
10457TIP3   OH252785   3.909   2.730   4.861  0.1541 -0.5055  0.4163
10457TIP3    H152786   3.972   2.699   4.925 -0.3762  0.9952  1.7238
10457TIP3    H252787   3.865   2.650   4.831  2.2303 -1.5138 -0.1213
10458TIP3   OH252788   0.947   3.906  10.510  0.3091 -0.0653 -0.1502
10458TIP3    H152789   0.937   3.921  10.416  2.3355 -0.9461 -0.5617
10458TIP3    H252790   0.943   3.993  10.550 -1.1900  0.2571 -0.9607
10459TIP3   OH252791   5.380   5.643  14.812  0.4275 -0.0833 -0.7611
10459TIP3    H152792   5.413   5.580  14.875  1.2841 -0.2314 -1.3386
10459TIP3    H252793   5.351   5.717  14.865  1.2490 -0.1513 -0.1968
10460TIP3   OH252794   3.219   3.540   4.556 -0.5083 -0.0129 -0.5186
10460TIP3    H152795   3.190   3.456   4.520 -1.0830  0.8476 -2.1492
10460TIP3    H252796   3.149   3.601   4.534  0.0260  0.9601  0.4094
10461TIP3   OH252797   0.837   4.096  16.335 -0.1852 -0.0301  0.0429
10461TIP3    H152798   0.883   4.068  16.414 -0.4190  1.6110  0.8132
10461TIP3    H252799   0.899   4.080  16.264 -0.1313 -1.9374  0.4730
10462TIP3   OH252800   2.318   5.711  11.727  0.4475  0.2044 -0.4379
10462TIP3    H152801   2.400   5.699  11.680 -0.0157  1.0738 -1.5060
10462TIP3    H252802   2.342   5.766  11.802  1.0092 -0.3553 -0.2021
10463TIP3   OH252803   5.126   6.674  12.540 -0.2223 -0.0711 -0.2306
10463TIP3    H152804   5.047   6.685  12.488 -0.6487 -0.7726  0.2389
10463TIP3    H252805   5.198   6.687  12.479 -0.7126 -0.4052 -0.8856
10464TIP3   OH252806   1.911   3.595   1.965  0.1566  0.2562 -0.0161
10464TIP3    H152807   1.877   3.684   1.977 -0.2790  0.1628 -0.4695
10464TIP3    H252808   1.854   3.557   1.897  1.9015  0.4829 -1.7047
10465TIP3   OH252809   1.908   1.475  11.634  0.2104  0.4643  0.4286
10465TIP3    H152810   1.939   1.463  11.724  1.4412  0.5472  0.0392
10465TIP3    H252811   1.946   1.402  11.586  0.2328  0.8662 -0.1777
10466TIP3   OH252812   6.098   3.569  13.596 -0.3532  0.6873 -0.0489
10466TIP3    H152813   6.136   3.650  13.630  0.6458  0.9592 -1.7037
10466TIP3    H252814   6.162   3.536  13.534 -1.4011 -0.6058 -0.4995
10467TIP3   OH252815   5.910   0.169  13.410 -0.7690  0.1008 -0.3299
10467TIP3    H152816   5.971   0.107  13.370 -1.1259  0.3632 -1.3139
10467TIP3    H252817   5.930   0.166  13.504  1.0211  0.4799 -0.6632
10468TIP3   OH252818   0.491   2.388   6.213 -0.2423 -0.3783 -0.1754
10468TIP3    H152819   0.574   2.434   6.202  0.1217 -0.8337  0.5634
10468TIP3    H252820   0.494   2.317   6.149  1.4138 -2.3966  1.9347
10469TIP3   OH252821   1.653   3.114   1.133 -0.0789  0.2305  0.7163
10469TIP3    H152822   1.649   3.043   1.069  1.7535  1.2651 -0.6447
10469TIP3    H252823   1.561   3.132   1.154 -0.7087 -0.7521 -0.9458
10470TIP3   OH252824   4.047   0.604   2.351 -0.3600 -0.0904  0.1041
10470TIP3    H152825   3.957   0.633   2.365 -0.3654  0.2602 -0.6169
10470TIP3    H252826   4.094   0.631   2.430 -0.9439 -0.5149  0.5977
10471TIP3   OH252827   6.375   3.031   1.562  0.1171  0.0790  0.0338
10471TIP3    H152828   6.299   3.083   1.591 -0.4984  0.1398 -1.5957
10471TIP3    H252829   6.360   3.017   1.468  1.2114 -1.4804  0.0596
10472TIP3   OH252830   0.870   3.827  13.331 -0.2543  0.4031  0.0311
10472TIP3    H152831   0.937   3.792  13.389 -1.1335  0.4338  1.1168
10472TIP3    H252832   0.915   3.894  13.280  1.2689 -1.6778 -1.5221
10473TIP3   OH252833   1.553   2.688   1.555  0.1010 -0.0528 -0.4432
10473TIP3    H152834   1.621   2.747   1.586 -0.8051  0.1664  1.2544
10473TIP3    H252835   1.600   2.621   1.505  1.9794 -1.4406  2.9171
10474TIP3   OH252836   5.539   3.315  14.073 -0.8296 -0.0153 -0.3146
10474TIP3    H152837   5.490   3.285  13.997 -0.2174 -0.8729 -0.3815
10474TIP3    H252838   5.598   3.242  14.094 -0.8111  0.3142  0.8213
10475TIP3   OH252839   1.233   6.114  16.369  0.6592 -0.4274  0.0595
10475TIP3    H152840   1.227   6.197  16.417 -3.4383 -0.4579 -0.0534
10475TIP3    H252841   1.275   6.054  16.431 -0.9850  0.4981  2.2053
10476TIP3   OH252842   1.692   1.052   2.231 -0.0062  0.6613  0.3166
10476TIP3    H152843   1.695   1.139   2.271 -1.5253  2.5811 -3.3374
10476TIP3    H252844   1.783   1.024   2.229  0.6655  2.6354  0.6815
10477TIP3   OH252845   3.022   4.649   6.036  0.7472  0.6721  0.0169
10477TIP3    H152846   3.018   4.579   6.101 -3.7247  1.1878  0.6649
10477TIP3    H252847   3.037   4.604   5.953  0.9572 -0.6724  0.7566
10478TIP3   OH252848   4.261   3.999   1.775  0.3547  0.0899  0.1867
10478TIP3    H152849   4.243   4.081   1.821  0.8442  0.6675 -0.6300
10478TIP3    H252850   4.285   4.026   1.686  0.9634 -0.9137  0.0349
10479TIP3   OH252851   1.575   2.879   5.359 -0.1681 -0.2383 -0.8534
10479TIP3    H152852   1.645   2.904   5.419  0.2744 -1.4623 -0.8343
10479TIP3    H252853   1.546   2.792   5.389 -0.6546 -0.4124 -1.7719
10480TIP3   OH252854   0.142   6.155   4.414  0.5963  0.5995  0.1344
10480TIP3    H152855   0.096   6.239   4.406  0.5136  0.5369 -0.0357
10480TIP3    H252856   0.087   6.102   4.471 -1.6680 -0.9562 -3.2039
10481TIP3   OH252857   0.909   5.936  12.233  0.1879  0.2026 -0.3056
10481TIP3    H152858   0.925   5.894  12.149  0.7094 -0.2202  0.0033
10481TIP3    H252859   0.916   6.030  12.215  0.8029  0.0954 -0.6310
10482TIP3   OH252860   6.689   5.798  13.476  0.0369 -0.2073  0.6779
10482TIP3    H152861   6.711   5.710  13.448 -2.1275 -0.7932  0.6562
10482TIP3    H252862   6.726   5.855  13.408 -1.0807 -1.3051 -0.9156
10483TIP3   OH252863   1.223   0.980  15.671  0.2779 -0.4347  0.4407
10483TIP3    H152864   1.219   1.074  15.688  0.9417 -0.4809  0.9202
10483TIP3    H252865   1.176   0.968  15.588 -0.0558  0.2762  0.5223
10484TIP3   OH252866   3.553   3.624  12.440 -0.2700  0.0688 -0.3312
10484TIP3    H152867   3.583   3.542  12.401 -0.5040  0.8883 -2.3000
10484TIP3    H252868   3.463   3.606  12.467  0.6450 -1.2411  2.1802
10485TIP3   OH252869   1.807   3.365  16.082 -0.7671 -0.5117  0.3147
10485TIP3    H152870   1.753   3.297  16.122  0.1163 -2.0403 -0.9640
10485TIP3    H252871   1.864   3.395  16.152 -1.4736 -0.7542  1.0146
10486TIP3   OH252872   4.311   2.993  14.147 -0.4062 -0.3492  0.4639
10486TIP3    H152873   4.349   2.909  14.120  0.3730 -0.2971  1.3517
10486TIP3    H252874   4.217   2.976  14.151 -0.3748 -0.8221 -0.6013
10487TIP3   OH252875   0.149   0.139   3.896 -0.0938  0.1227 -0.3381
10487TIP3    H152876   0.088   0.211   3.879 -0.2309 -0.1287 -0.9416
10487TIP3    H252877   0.153   0.091   3.813 -0.1903 -0.7129  0.1302
10488TIP3   OH252878   2.443   4.561  14.064 -0.3151  0.0063 -0.4639
10488TIP3    H152879   2.447   4.529  13.974 -1.7454  0.0386 -0.5561
10488TIP3    H252880   2.445   4.482  14.118  0.4957 -0.0149 -0.5115
10489TIP3   OH252881   0.608   0.866   6.506 -0.3306 -0.4548 -0.0473
10489TIP3    H152882   0.556   0.831   6.434  0.7225 -0.8188 -0.6547
10489TIP3    H252883   0.688   0.812   6.506  1.1114  1.5911 -0.6651
10490TIP3   OH252884   3.136   5.662   6.365 -0.0461 -0.6138  0.4408
10490TIP3    H152885   3.165   5.731   6.305 -0.5763 -0.3199  0.5176
10490TIP3    H252886   3.206   5.656   6.431 -0.3476  0.3840  0.8655
10491TIP3   OH252887   4.587   2.927   1.957 -0.2040 -0.2423 -0.2013
10491TIP3    H152888   4.555   2.858   1.899 -0.0588  0.5012 -1.1905
10491TIP3    H252889   4.519   2.995   1.954 -0.2701 -0.2616  0.6316
10492TIP3   OH252890   0.047   5.496  14.163  0.1311 -0.1742 -0.1944
10492TIP3    H152891  -0.007   5.497  14.242  0.4670 -2.6388  0.1578
10492TIP3    H252892  -0.015   5.512  14.092 -0.2714  1.4719  0.4849
10493TIP3   OH252893   0.573   4.312  14.331  0.2401 -0.2346  0.9718
10493TIP3    H152894   0.645   4.252  14.311 -0.8245 -2.0339  2.2464
10493TIP3    H252895   0.550   4.350  14.246  1.6765 -0.7697  0.3006
10494TIP3   OH252896   3.337   5.885  11.119  0.0891  0.1024 -0.4533
10494TIP3    H152897   3.329   5.791  11.102 -0.0641  0.3176 -1.6963
10494TIP3    H252898   3.286   5.900  11.198  0.0750 -0.8534 -0.2717
10495TIP3   OH252899   5.796   0.956  16.793  0.4330 -0.0095  0.4658
10495TIP3    H152900   5.817   0.872  16.832 -0.9434  0.2069  1.7489
10495TIP3    H252901   5.785   0.937  16.700 -0.8144 -1.4490  0.8742
10496TIP3   OH252902   6.626   1.220   4.663 -0.3208  0.1432 -0.0861
10496TIP3    H152903   6.650   1.225   4.756 -1.0327  1.8466  0.0481
10496TIP3    H252904   6.692   1.164   4.624 -0.0646 -0.6915  1.4743
10497TIP3   OH252905   1.537   2.594   5.112 -0.3337  0.1988  0.6649
10497TIP3    H152906   1.591   2.602   5.191  1.0777  0.4646 -0.2753
10497TIP3    H252907   1.589   2.539   5.054 -0.6566  1.2146 -0.6321
10498TIP3   OH252908   5.960   6.200   5.834 -0.1362 -0.5429  0.6928
10498TIP3    H152909   5.939   6.121   5.883  0.3117 -0.9296  0.2700
10498TIP3    H252910   6.019   6.171   5.765  0.3024  0.2162  0.7366
10499TIP3   OH252911   6.270   4.586   1.290 -0.5823  0.1804  0.9936
10499TIP3    H152912   6.282   4.515   1.352 -0.0143  0.0545  0.7474
10499TIP3    H252913   6.250   4.543   1.207 -1.2573  0.3455  1.0621
10500TIP3   OH252914   1.828   4.553  15.369  0.2366 -0.0667  0.4654
10500TIP3    H152915   1.846   4.592  15.283  2.6534  0.3332  1.0749
10500TIP3    H252916   1.840   4.459  15.355 -0.0256 -0.0721  0.2464
10501TIP3   OH252917   5.521   5.962  16.258 -0.0098  0.3342  0.0421
10501TIP3    H152918   5.557   5.902  16.324  0.0481  1.0984  0.7250
10501TIP3    H252919   5.427   5.947  16.261  0.1273 -0.7829 -0.8595
10502TIP3   OH252920   2.242   2.306   3.453 -0.0299 -0.6026 -0.4771
10502TIP3    H152921   2.232   2.237   3.519  0.1084  0.6074  0.8751
10502TIP3    H252922   2.191   2.380   3.489 -0.8025 -0.2271 -2.2386
10503TIP3   OH252923   5.421   3.292  11.749  0.5823 -0.4015 -0.4404
10503TIP3    H152924   5.399   3.250  11.666  2.1501  0.2632 -1.2297
10503TIP3    H252925   5.499   3.246  11.780  2.8492  2.2589 -1.7346
10504TIP3   OH252926   6.374   6.492   0.200  0.0748  0.3076 -0.0648
10504TIP3    H152927   6.415   6.571   0.166 -0.2909  0.9448  0.9428
10504TIP3    H252928   6.311   6.467   0.133  0.1858  0.8714 -0.3851
10505TIP3   OH252929   0.412   1.981  10.903  0.2864 -0.5771 -0.2288
10505TIP3    H152930   0.419   2.070  10.868  0.2463 -0.5570 -0.1839
10505TIP3    H252931   0.407   1.926  10.825 -0.1069 -0.5102 -0.2536
10506TIP3   OH252932   1.006   3.077  14.128  0.3374  0.2380  0.0554
10506TIP3    H152933   0.968   3.086  14.215 -0.2772 -0.1061 -0.1645
10506TIP3    H252934   0.975   3.154  14.080  0.6464  0.4092  0.1289
10507TIP3   OH252935   2.983   4.952  13.483 -0.4014  0.0184 -0.3863
10507TIP3    H152936   2.973   4.887  13.414 -0.8728 -0.2050 -0.1125
10507TIP3    H252937   2.903   4.945  13.535 -0.4094  0.7455 -0.2905
10508TIP3   OH252938   4.361   2.100  14.532  0.1708 -0.0653 -0.1293
10508TIP3    H152939   4.453   2.109  14.556 -0.1585 -0.5454  1.3660
10508TIP3    H252940   4.320   2.182  14.559 -0.4592 -1.1069  2.3314
10509TIP3   OH252941   5.062   4.689  16.132 -0.3896 -0.4787 -0.7751
10509TIP3    H152942   5.000   4.656  16.068 -0.5090 -2.9080  0.4878
10509TIP3    H252943   5.009   4.742  16.192 -0.7936 -0.5433 -1.0729
10510TIP3   OH252944   4.623   1.213   2.258  0.5247 -0.4286 -0.6158
10510TIP3    H152945   4.559   1.143   2.249 -0.4054  0.4208 -0.8703
10510TIP3    H252946   4.576   1.283   2.303  0.8354  0.7351 -2.0084
10511TIP3   OH252947   0.397   5.673   4.142  0.0917 -0.6182  0.1173
10511TIP3    H152948   0.453   5.749   4.158 -1.2136  0.2962  0.5536
10511TIP3    H252949   0.329   5.680   4.209  0.3505 -2.6035  0.6366
10512TIP3   OH252950   6.640   1.867   0.571  0.4826  0.5270  0.0610
10512TIP3    H152951   6.669   1.848   0.481  1.0240  1.8141 -0.0709
10512TIP3    H252952   6.705   1.930   0.603  0.5726 -0.2874  1.5399
10513TIP3   OH252953   4.263   2.859   1.005  0.3191 -0.6942 -0.2575
10513TIP3    H152954   4.331   2.900   1.058  0.9494 -3.2474  1.0613
10513TIP3    H252955   4.181   2.879   1.051  0.4174  0.3221 -0.4969
10514TIP3   OH252956   2.846   6.214  16.217  0.0579  0.1641 -0.2287
10514TIP3    H152957   2.782   6.144  16.209 -0.7888  0.7448  1.1510
10514TIP3    H252958   2.813   6.284  16.161 -0.2650  0.2771  0.0988
10515TIP3   OH252959   0.604   6.288  16.576  0.2288 -0.3970  0.4484
10515TIP3    H152960   0.642   6.364  16.620 -0.8156  0.3621  0.0761
10515TIP3    H252961   0.675   6.224  16.572  0.5729 -0.2244  2.5759
10516TIP3   OH252962   6.566   3.395  12.095 -0.0424 -0.6889  0.1003
10516TIP3    H152963   6.603   3.458  12.033 -0.1359  0.5093  1.2376
10516TIP3    H252964   6.577   3.310  12.052 -0.7596  0.1650 -1.8757
10517TIP3   OH252965   2.654   6.365  10.732 -0.3035 -0.8074 -0.4970
10517TIP3    H152966   2.671   6.276  10.761  0.2878 -0.2596  0.9224
10517TIP3    H252967   2.681   6.366  10.640  0.7764 -1.7836 -0.2133
10518TIP3   OH252968   6.005   5.583   4.506 -0.2416  0.3904  0.2800
10518TIP3    H152969   5.913   5.609   4.498 -0.3621  0.7172  2.2445
10518TIP3    H252970   6.016   5.513   4.442 -0.6913  3.1967 -3.1615
10519TIP3   OH252971   3.886   0.492  12.554  0.2395 -0.0686 -0.1316
10519TIP3    H152972   3.903   0.564  12.493 -0.4193 -0.4294 -0.7595
10519TIP3    H252973   3.934   0.516  12.633  0.2934  0.8970 -0.4411
10520TIP3   OH252974   0.658   6.570   5.377 -0.2611 -0.5524 -0.2708
10520TIP3    H152975   0.668   6.650   5.429 -0.8651  0.0091 -0.9920
10520TIP3    H252976   0.566   6.572   5.348 -0.2932 -1.5284 -0.2709
10521TIP3   OH252977   3.629   1.803  10.086  0.5710 -0.8905  0.1029
10521TIP3    H152978   3.609   1.785  10.178  2.0543  0.4619  0.7441
10521TIP3    H252979   3.718   1.838  10.087  0.0452  0.6768 -1.6413
10522TIP3   OH252980   1.690   3.423  12.331 -0.1266  0.3127 -0.4136
10522TIP3    H152981   1.769   3.456  12.374  0.4873 -0.9361 -0.5169
10522TIP3    H252982   1.701   3.447  12.239 -0.2994  0.9093 -0.2828
10523TIP3   OH252983   1.980   0.340  12.809 -0.2294  0.1693 -0.1487
10523TIP3    H152984   1.980   0.331  12.714  0.9253 -0.5273 -0.0980
10523TIP3    H252985   1.903   0.291  12.837 -2.1675  2.6014 -0.8681
10524TIP3   OH252986   6.801   1.310  14.232 -0.0810  0.8245  0.0105
10524TIP3    H152987   6.837   1.352  14.154 -0.2244 -1.4467 -1.3388
10524TIP3    H252988   6.733   1.371  14.262 -0.0820  1.7154 -1.6661
10525TIP3   OH252989   0.484   2.627   1.787 -0.0484 -0.2226  0.0765
10525TIP3    H152990   0.414   2.685   1.816  0.9571  1.7262 -1.1758
10525TIP3    H252991   0.458   2.597   1.700 -0.5981 -1.8051  0.7412
10526TIP3   OH252992   1.934   2.057  13.519  0.3221 -0.3016 -0.2430
10526TIP3    H152993   2.029   2.056  13.518  0.6983  1.8369  4.8932
10526TIP3    H252994   1.910   2.132  13.464  1.6438 -0.2238 -0.7405
10527TIP3   OH252995   4.361   4.317   0.389 -0.8523  0.1211 -0.3352
10527TIP3    H152996   4.434   4.356   0.342 -0.2931 -1.1887 -0.6198
10527TIP3    H252997   4.348   4.372   0.466  1.0551 -0.1232  0.1998
10528TIP3   OH252998   2.079   5.062   3.936 -0.1519  0.1397  0.5324
10528TIP3    H152999   2.131   5.143   3.940 -0.6280  0.4386  0.7575
10528TIP3    H253000   2.023   5.066   4.013 -0.6660 -0.0752  0.1716
10529TIP3   OH253001   2.613   6.286  15.486 -0.0927 -0.2088 -0.0545
10529TIP3    H153002   2.547   6.228  15.525 -1.0817  1.3994  0.7453
10529TIP3    H253003   2.584   6.297  15.395 -0.0867 -0.6918 -0.1176
10530TIP3   OH253004   2.316   5.397   5.055  0.1404  0.5641 -0.4602
10530TIP3    H153005   2.377   5.423   5.124  0.3047  1.3025 -0.8709
10530TIP3    H253006   2.335   5.305   5.039  2.5938  1.2227 -1.9683
10531TIP3   OH253007   5.327   5.430  11.162 -0.1190  0.9064  0.0729
10531TIP3    H153008   5.358   5.520  11.158  0.3214  0.8734  1.7184
10531TIP3    H253009   5.348   5.393  11.077 -0.3970  2.3742 -0.6599
10532TIP3   OH253010   5.393   3.597  15.384 -0.2749 -0.2572 -0.0399
10532TIP3    H153011   5.426   3.522  15.433  0.0016 -0.5382 -0.6419
10532TIP3    H253012   5.340   3.558  15.314 -0.2916  0.1161 -0.2385
10533TIP3   OH253013   0.918   1.451   3.798  0.8667  0.4657 -0.3962
10533TIP3    H153014   1.006   1.488   3.791  0.2908  1.8862 -0.4807
10533TIP3    H253015   0.891   1.435   3.707  1.1289 -0.2174 -0.3580
10534TIP3   OH253016   3.309   2.008   2.356 -0.0158  0.3176 -0.7525
10534TIP3    H153017   3.255   2.047   2.425 -0.6464 -2.1912  0.2710
10534TIP3    H253018   3.267   2.036   2.274 -0.7737  1.2513 -0.0751
10535TIP3   OH253019   4.434   5.131  16.570  0.3895 -0.3242  0.6343
10535TIP3    H153020   4.441   5.055  16.513 -0.1552  1.1334 -1.5087
10535TIP3    H253021   4.521   5.170  16.569  0.3273 -0.1834  0.6262
10536TIP3   OH253022   6.520   3.543  15.321 -0.0227  0.4274 -0.3550
10536TIP3    H153023   6.502   3.533  15.415  0.4648  1.4192 -0.1367
10536TIP3    H253024   6.615   3.548  15.315 -0.0592  0.5758 -0.8811
10537TIP3   OH253025   4.166   6.600  16.505 -0.6364 -0.2219 -0.5168
10537TIP3    H153026   4.132   6.511  16.501 -0.3246 -0.4186  0.8204
10537TIP3    H253027   4.217   6.603  16.586  1.2454  0.5079 -1.6345
10538TIP3   OH253028   5.547   3.720   3.106  0.0845 -0.1642 -0.0496
10538TIP3    H153029   5.577   3.810   3.118  4.5989 -0.7147 -3.9125
10538TIP3    H253030   5.493   3.724   3.027 -0.6908 -0.7460  0.4384
10539TIP3   OH253031   6.449   0.996  13.179  0.0045  0.3156 -0.1565
10539TIP3    H153032   6.384   0.943  13.132  0.9894 -0.2700 -0.8796
10539TIP3    H253033   6.520   0.935  13.199 -0.3160  0.5754  2.0020
10540TIP3   OH253034   0.143   3.485   3.675 -0.2054  0.2419 -0.1402
10540TIP3    H153035   0.087   3.539   3.620 -0.0053 -1.0149 -1.6445
10540TIP3    H253036   0.083   3.425   3.720 -0.3108  0.8174  0.4888
10541TIP3   OH253037   0.650   0.763  16.587  0.8458  0.5091 -0.2311
10541TIP3    H153038   0.729   0.710  16.593  0.6399  0.1340 -0.7526
10541TIP3    H253039   0.671   0.843  16.634  0.4129 -0.8836  2.4857
10542TIP3   OH253040   0.450   0.208  16.389  0.3023 -0.4461  0.3222
10542TIP3    H153041   0.360   0.234  16.366  0.4206 -0.9864 -0.8543
10542TIP3    H253042   0.441   0.119  16.423  0.3537 -0.3715  0.5297
10543TIP3   OH253043   2.710   6.568  12.817 -0.7583  0.1008  0.5064
10543TIP3    H153044   2.630   6.611  12.849 -0.8771  0.9734 -0.9210
10543TIP3    H253045   2.773   6.579  12.889 -1.4554  0.7399  1.0376
10544TIP3   OH253046   1.471   3.357  10.917 -0.9087 -0.2532  0.5152
10544TIP3    H153047   1.430   3.302  10.984 -1.9605  0.2818  0.3387
10544TIP3    H253048   1.399   3.380  10.857 -0.3202  0.5859  0.0980
10545TIP3   OH253049   0.000   2.815  10.643 -0.0551  0.6131 -0.1365
10545TIP3    H153050  -0.035   2.794  10.557 -2.0593  2.2189  0.2289
10545TIP3    H253051  -0.033   2.903  10.663  1.1666  0.7044  1.8628
10546TIP3   OH253052   5.558   3.386   4.970  0.1506 -0.0887 -0.1303
10546TIP3    H153053   5.612   3.376   4.892  1.0881  0.5310  0.4229
10546TIP3    H253054   5.476   3.424   4.938  0.2804 -0.4128 -0.8824
10547TIP3   OH253055   4.007   2.334  13.540 -0.5665 -0.1179 -0.6289
10547TIP3    H153056   4.010   2.321  13.445  0.3882 -0.6209 -0.5414
10547TIP3    H253057   3.990   2.428  13.551  0.3816  0.1452 -1.3011
10548TIP3   OH253058   5.122   3.511   4.177 -0.1668  0.5001  0.1304
10548TIP3    H153059   5.148   3.480   4.090  1.2838 -0.0548  0.7311
10548TIP3    H253060   5.069   3.439   4.213  0.2101  0.2308  0.1502
10549TIP3   OH253061   2.873   1.709  16.195 -0.1192 -0.7228 -0.3493
10549TIP3    H153062   2.889   1.797  16.229 -0.7984 -0.9515  0.5959
10549TIP3    H253063   2.887   1.718  16.100  3.7866 -0.5296  0.0845
10550TIP3   OH253064   1.406   0.538   3.809  0.4670 -0.2931  0.0447
10550TIP3    H153065   1.350   0.594   3.863 -1.0579 -1.4717 -0.2452
10550TIP3    H253066   1.381   0.559   3.719  0.9721 -0.3463 -0.1065
10551TIP3   OH253067   0.259   1.496  12.571  0.0463 -0.5512  0.6512
10551TIP3    H153068   0.166   1.479  12.556  0.0987 -0.8924  0.6977
10551TIP3    H253069   0.280   1.568  12.511 -0.3305 -0.2177  0.9141
10552TIP3   OH253070   5.095   3.447   4.880 -0.0319  0.4407 -0.1886
10552TIP3    H153071   5.189   3.436   4.862  0.0451  2.1288 -1.0085
10552TIP3    H253072   5.054   3.369   4.841  1.0002 -0.2746  0.1057
10553TIP3   OH253073   4.698   3.771   4.666  0.0629 -0.1325 -0.1005
10553TIP3    H153074   4.762   3.841   4.679 -0.6657  0.7396 -1.1392
10553TIP3    H253075   4.737   3.716   4.598  0.0176  0.0087 -0.2396
10554TIP3   OH253076   4.368   3.593  14.350  0.4418 -0.0703  0.5309
10554TIP3    H153077   4.414   3.568  14.269 -0.4556  0.5429 -0.1879
10554TIP3    H253078   4.275   3.589  14.328  0.1914  0.6540  1.3603
10555TIP3   OH253079   5.919   2.773  11.214  0.2937  0.3158  0.3183
10555TIP3    H153080   5.968   2.735  11.141 -1.4796  0.4785 -0.9995
10555TIP3    H253081   5.864   2.840  11.174 -0.8075  0.3338  1.7928
10556TIP3   OH253082   0.928   3.100  12.793 -0.1224  0.6851 -0.0339
10556TIP3    H153083   0.947   3.124  12.883 -0.8223 -1.9295  0.9186
10556TIP3    H253084   1.011   3.069  12.758 -0.6195 -2.5922  1.3109
10557TIP3   OH253085   4.662   4.280  11.190 -0.9752 -0.0221 -0.4556
10557TIP3    H153086   4.690   4.280  11.098  0.1557 -0.2105 -0.1301
10557TIP3    H253087   4.654   4.373  11.213 -0.6625  0.0366 -0.5780
10558TIP3   OH253088   6.568   4.662  16.602 -0.3054  0.2738 -0.2786
10558TIP3    H153089   6.508   4.720  16.555 -0.5609  1.9663  1.9840
10558TIP3    H253090   6.594   4.712  16.679  0.1226 -2.3289  1.3715
10559TIP3   OH253091   6.176   0.950   3.685 -0.0526  0.2933  0.0479
10559TIP3    H153092   6.083   0.955   3.662 -0.5318 -1.6581  1.2876
10559TIP3    H253093   6.182   0.990   3.771  1.0299  3.9043 -1.5152
10560TIP3   OH253094   5.125   0.007   1.568  0.2517 -0.5472 -0.0679
10560TIP3    H153095   5.135  -0.077   1.522  0.5287  0.1863 -1.4067
10560TIP3    H253096   5.107  -0.018   1.658 -0.0765 -2.0585 -0.5066
10561TIP3   OH253097   3.737   0.730  15.933  0.2793  0.1333  0.0506
10561TIP3    H153098   3.707   0.776  16.012  1.3398 -0.4656  0.8342
10561TIP3    H253099   3.745   0.799  15.867  0.2903  0.8105  0.7393
10562TIP3   OH253100   1.720   6.438   0.466  0.0615  0.2079 -0.1251
10562TIP3    H153101   1.799   6.420   0.517  0.1205  0.4017 -0.1507
10562TIP3    H253102   1.751   6.477   0.385  0.0510 -1.1623 -0.8223
10563TIP3   OH253103   6.636   1.546   1.292  0.2464 -0.3067  0.1792
10563TIP3    H153104   6.656   1.629   1.335  1.4868  0.0405 -0.9648
10563TIP3    H253105   6.541   1.540   1.292  0.1899  0.3720  1.6292
10564TIP3   OH253106   2.625   0.679  11.611  0.6213 -0.3522 -0.3956
10564TIP3    H153107   2.614   0.672  11.516  2.5000 -0.2818 -0.6575
10564TIP3    H253108   2.592   0.596  11.645 -0.7697 -0.0787 -1.0191
10565TIP3   OH253109   3.739   4.593   0.154  0.0895  0.1356 -0.2511
10565TIP3    H153110   3.794   4.627   0.225  0.8898  1.3985 -1.4303
10565TIP3    H253111   3.724   4.669   0.097 -3.1348 -0.0970  0.1574
10566TIP3   OH253112   4.914   3.735   0.086  0.0243  0.4595 -0.3119
10566TIP3    H153113   4.936   3.811   0.032  0.3978  0.6627  0.1189
10566TIP3    H253114   4.886   3.772   0.169 -2.2536  0.2163 -0.9206
10567TIP3   OH253115   1.943   4.129   0.268  0.0363 -0.1855 -0.0597
10567TIP3    H153116   2.001   4.068   0.313 -1.1436 -1.5453 -0.3024
10567TIP3    H253117   1.947   4.103   0.176 -0.8392 -0.2128 -0.0983
10568TIP3   OH253118   2.087   5.888  14.557  0.2071 -0.6863  0.2879
10568TIP3    H153119   2.161   5.923  14.507 -0.0729 -0.0334  0.3145
10568TIP3    H253120   2.015   5.949  14.538 -0.1610 -0.9776  0.7308
10569TIP3   OH253121   4.841   5.831  11.203  0.6822  0.2722 -0.3108
10569TIP3    H153122   4.922   5.869  11.236  0.8735 -0.0690 -0.3792
10569TIP3    H253123   4.860   5.810  11.111  1.3640 -2.0713  0.2840
10570TIP3   OH253124   2.483   2.140   5.390 -0.3233  0.4493 -0.2165
10570TIP3    H153125   2.442   2.138   5.477  0.8493 -2.7125  0.4105
10570TIP3    H253126   2.576   2.130   5.407  0.3435  3.1043 -1.7965
10571TIP3   OH253127   4.685   6.451   2.276  0.5066 -0.4860 -0.2925
10571TIP3    H153128   4.754   6.386   2.289 -0.5446 -1.6193 -0.1765
10571TIP3    H253129   4.623   6.434   2.347 -0.4656 -0.2796 -1.0708
10572TIP3   OH253130   5.206   6.472   5.548  0.7921 -0.2844 -0.1506
10572TIP3    H153131   5.202   6.528   5.471  0.5479  0.3397  0.3052
10572TIP3    H253132   5.263   6.400   5.523  0.8086 -0.0272 -0.8719
10573TIP3   OH253133   2.845   0.065  12.990  0.2614 -0.2144 -0.2981
10573TIP3    H153134   2.838  -0.030  13.001 -1.5779  0.0265  1.1848
10573TIP3    H253135   2.755   0.095  12.981  0.7890  1.4281 -0.4639
10574TIP3   OH253136   3.139   5.417   1.931 -0.2801 -0.6727  0.3430
10574TIP3    H153137   3.075   5.418   2.002 -0.1025 -2.3789  0.5596
10574TIP3    H253138   3.151   5.324   1.910  1.4490 -0.3481 -0.2963
10575TIP3   OH253139   4.445   1.812  15.268 -0.0240 -0.0903 -0.3367
10575TIP3    H153140   4.535   1.837  15.287 -0.4317  0.6864  0.6984
10575TIP3    H253141   4.452   1.732  15.215  1.2496 -1.1580  1.3410
10576TIP3   OH253142   0.970   4.777   3.974 -0.4010  0.4693 -0.2859
10576TIP3    H153143   1.047   4.827   4.002 -0.4665  0.1165  0.5403
10576TIP3    H253144   0.973   4.782   3.878  1.3156 -0.5253 -0.3295
10577TIP3   OH253145   5.245   0.163  11.763  0.0614  0.3993 -0.2612
10577TIP3    H153146   5.199   0.083  11.786  2.2227 -1.5223 -2.1315
10577TIP3    H253147   5.333   0.152  11.801  0.0151  2.5696  0.6544
10578TIP3   OH253148   0.361   1.846   1.556  0.3785 -0.4857 -0.7059
10578TIP3    H153149   0.436   1.855   1.615  0.4297  0.4900 -0.9130
10578TIP3    H253150   0.355   1.752   1.540  0.8720 -0.6813  0.1949
10579TIP3   OH253151   0.919   3.448   4.648  0.1052  0.0604 -1.4934
10579TIP3    H153152   0.943   3.517   4.710 -0.3464 -0.0558 -1.1847
10579TIP3    H253153   0.828   3.467   4.625 -0.1413 -0.6487 -1.1125
10580TIP3   OH253154   0.373   0.064  16.759 -0.1409  0.2876  0.3352
10580TIP3    H153155   0.422   0.127  16.811 -0.7849  0.3157  0.9231
10580TIP3    H253156   0.425   0.052  16.679  1.2377 -0.3367  1.3064
10581TIP3   OH253157   3.374   6.634  16.660 -0.1811  0.3577  0.5300
10581TIP3    H153158   3.381   6.547  16.699 -0.7229  0.3707  0.6630
10581TIP3    H253159   3.388   6.619  16.566 -0.1797  0.1358  0.5639
10582TIP3   OH253160   4.627   5.031   0.480  0.2278 -0.1138 -0.0320
10582TIP3    H153161   4.649   4.965   0.414  0.8114 -2.1387  2.0661
10582TIP3    H253162   4.540   5.007   0.510  1.1317 -1.1044  1.9853
10583TIP3   OH253163   3.212   4.969  14.838 -0.6827  0.5149  0.9468
10583TIP3    H153164   3.128   4.993  14.799  0.6773  1.3495 -1.7187
10583TIP3    H253165   3.272   5.039  14.812  0.8178  0.0877  3.0114
10584TIP3   OH253166   3.851   2.348   1.226 -0.6252 -0.2902 -0.3821
10584TIP3    H153167   3.815   2.436   1.215  0.6415  0.0508 -2.3688
10584TIP3    H253168   3.926   2.359   1.285 -0.9453 -0.1959  0.0122
10585TIP3   OH253169   4.780   3.035   4.304 -0.5536  0.1549  0.6998
10585TIP3    H153170   4.843   2.976   4.346 -0.5133 -1.1211 -1.0510
10585TIP3    H253171   4.736   2.980   4.239 -2.0173  1.5577  0.4513
10586TIP3   OH253172   5.579   4.691   4.322 -0.6719 -0.6082 -0.2846
10586TIP3    H153173   5.661   4.737   4.307 -1.9615  2.0762  0.1916
10586TIP3    H253174   5.602   4.620   4.382  1.0211  1.4079  1.6504
10587TIP3   OH253175   6.783   4.626   4.397 -0.2529 -0.3536 -0.3101
10587TIP3    H153176   6.820   4.538   4.406 -1.6621 -0.9180  0.3560
10587TIP3    H253177   6.772   4.638   4.303  0.6562 -0.5747 -0.4510
10588TIP3   OH253178   1.679   3.651  16.881  0.3471 -0.3724 -0.3199
10588TIP3    H153179   1.589   3.664  16.910 -0.3790 -1.9674 -1.6679
10588TIP3    H253180   1.732   3.660  16.960 -1.1588 -0.9817  0.7983
10589TIP3   OH253181   1.015   3.081  11.419 -0.3912  0.7572  0.3508
10589TIP3    H153182   0.934   3.045  11.455  0.1465 -0.2475  0.6135
10589TIP3    H253183   1.062   3.117  11.494  0.9697 -1.8080  0.8545
10590TIP3   OH253184   2.476   3.206   4.919  0.3256  0.0270  0.3045
10590TIP3    H153185   2.403   3.146   4.930  1.5015 -1.6370 -0.4354
10590TIP3    H253186   2.512   3.217   5.007  0.0874 -0.3496  0.4508
10591TIP3   OH253187   2.908   6.673   3.696  0.0847 -0.1026 -0.5500
10591TIP3    H153188   2.919   6.590   3.649  2.1132 -0.0154 -0.3253
10591TIP3    H253189   2.937   6.654   3.785 -2.6286  0.0396  0.4467
10592TIP3   OH253190   3.349   1.732  15.177 -0.1645 -0.1503 -0.1830
10592TIP3    H153191   3.309   1.803  15.126  3.1570  1.2097 -1.1212
10592TIP3    H253192   3.352   1.658  15.117 -1.6134 -0.4458  0.0669
10593TIP3   OH253193   5.875   5.632  11.571  0.6678 -0.1438  0.1515
10593TIP3    H153194   5.834   5.709  11.611  0.5601 -0.2812  0.3053
10593TIP3    H253195   5.926   5.668  11.498  0.3782  0.0418  0.0361
10594TIP3   OH253196   5.528   2.114  11.798 -1.2016 -0.0004  0.3854
10594TIP3    H153197   5.529   2.030  11.753  1.2629  0.4801 -0.6094
10594TIP3    H253198   5.447   2.156  11.768 -1.2894 -1.0663 -0.9475
10595TIP3   OH253199   1.888   4.206   1.130 -0.4407  0.1662 -0.4456
10595TIP3    H153200   1.814   4.260   1.158  0.8804  2.5214 -1.2126
10595TIP3    H253201   1.965   4.261   1.145  0.8713 -0.8892 -2.7204
10596TIP3   OH253202   5.759   0.879  15.356  0.0639 -0.1386  0.3040
10596TIP3    H153203   5.810   0.859  15.278 -0.1949  0.7982 -0.1260
10596TIP3    H253204   5.791   0.818  15.422  1.3730  0.0861 -0.0934
10597TIP3   OH253205   1.252   2.767   3.961 -0.5851  0.1504 -0.1553
10597TIP3    H153206   1.316   2.705   3.926 -1.3751  0.5385 -2.4739
10597TIP3    H253207   1.290   2.797   4.044  0.5210 -2.2623  0.3131
10598TIP3   OH253208   0.187   6.466   1.977 -0.2215  0.2904 -0.1029
10598TIP3    H153209   0.174   6.543   2.032 -0.9420 -0.2848  0.5747
10598TIP3    H253210   0.277   6.438   1.994 -0.7298 -0.4516  1.5902
10599TIP3   OH253211   1.480   4.055   4.420  0.1258  0.5398 -0.1549
10599TIP3    H153212   1.431   4.136   4.434 -1.0359  0.1133 -1.5374
10599TIP3    H253213   1.450   4.023   4.335  1.7128 -0.5416 -0.3582
10600TIP3   OH253214   0.242   1.119   2.285 -0.1559  0.1297 -0.4947
10600TIP3    H153215   0.218   1.027   2.270  0.0704 -0.0331  0.0988
10600TIP3    H253216   0.158   1.162   2.305 -0.1201 -0.2119  0.4671
10601TIP3   OH253217   2.593   6.743  13.544 -0.3422  0.1738 -0.0273
10601TIP3    H153218   2.650   6.729  13.468  0.6245 -1.2548  0.9076
10601TIP3    H253219   2.642   6.705  13.617 -1.4547  1.1047  1.2311
10602TIP3   OH253220   4.633   1.464  13.500 -0.0289 -0.2767  0.0996
10602TIP3    H153221   4.688   1.514  13.439 -0.5388 -0.9636 -0.9407
10602TIP3    H253222   4.619   1.524  13.574  2.5307 -0.2403  0.6620
10603TIP3   OH253223   2.292   4.869   1.005 -0.3466  0.0307  0.0255
10603TIP3    H153224   2.322   4.928   0.936 -0.3328 -0.4855 -0.4159
10603TIP3    H253225   2.371   4.842   1.050 -0.4656  1.5453  1.2353
10604TIP3   OH253226   3.463   5.033  13.117  0.3113 -0.6908 -0.4639
10604TIP3    H153227   3.420   4.988  13.190 -2.2882  2.5863  0.2992
10604TIP3    H253228   3.548   5.059  13.153 -0.8017  0.6181  1.4457
10605TIP3   OH253229   2.342   3.049   6.029  0.7636  0.2817 -0.6105
10605TIP3    H153230   2.327   3.055   6.124 -0.4528  2.4866 -0.8677
10605TIP3    H253231   2.296   2.969   6.003 -1.4890  1.1905  0.2765
10606TIP3   OH253232   1.414   6.446   3.851 -0.1585  0.3147  0.5789
10606TIP3    H153233   1.418   6.416   3.942 -1.2583 -0.4111  0.4098
10606TIP3    H253234   1.345   6.393   3.812  0.6408  0.2707 -0.8166
10607TIP3   OH253235   1.837   3.501   4.093 -0.2054 -0.2990  0.2855
10607TIP3    H153236   1.857   3.501   4.186  1.1315 -0.7597  0.0215
10607TIP3    H253237   1.746   3.532   4.088 -0.3095 -0.2977  1.7258
10608TIP3   OH253238   2.982   3.414   4.943 -0.0176 -0.0595 -0.1427
10608TIP3    H153239   2.973   3.375   4.856 -1.7457  0.9748 -0.4890
10608TIP3    H253240   3.072   3.395   4.969  0.7622  0.1255 -2.4291
10609TIP3   OH253241   1.995   2.076  16.612 -0.2266  0.0139 -0.1092
10609TIP3    H153242   2.081   2.075  16.654 -0.7497 -1.6273  1.0381
10609TIP3    H253243   1.944   2.010  16.660 -2.0886  0.8354 -0.8408
10610TIP3   OH253244   5.133   4.755   4.167 -0.6258  0.6444  0.1449
10610TIP3    H153245   5.135   4.830   4.108  0.6247  0.1841 -0.4380
10610TIP3    H253246   5.065   4.776   4.232 -0.3621  2.2158 -0.0635
10611TIP3   OH253247   3.348   5.973   0.724  0.0208  0.2202  0.1334
10611TIP3    H153248   3.403   5.939   0.654 -0.9638 -0.2754 -0.4242
10611TIP3    H253249   3.319   5.895   0.772  1.7789  0.6252  1.9775
10612TIP3   OH253250   1.545   0.149  16.363 -0.4040  0.1362 -0.7009
10612TIP3    H153251   1.465   0.178  16.320 -0.3812 -0.2760 -1.0299
10612TIP3    H253252   1.586   0.090  16.299 -0.4601 -0.6218 -0.0470
10613TIP3   OH253253   4.593   6.112   2.254  0.8056 -0.3998  0.5222
10613TIP3    H153254   4.684   6.088   2.275  1.0153  0.5652  0.7457
10613TIP3    H253255   4.578   6.193   2.302 -0.4619 -0.9943  1.1733
10614TIP3   OH253256   0.709   1.464  11.785 -0.1340 -0.0160  0.1050
10614TIP3    H153257   0.627   1.445  11.830  0.8261 -0.4323  1.7603
10614TIP3    H253258   0.694   1.547  11.740 -1.1389  0.4063  1.2005
10615TIP3   OH253259   4.611   6.631  14.296 -0.7340  0.0225  0.4701
10615TIP3    H153260   4.633   6.572  14.225  0.5587 -0.6239  1.3634
10615TIP3    H253261   4.535   6.592  14.338 -1.0345  0.0071 -0.0810
10616TIP3   OH253262   0.639   4.861   5.745  0.1989  0.1771  0.0009
10616TIP3    H153263   0.556   4.832   5.707  1.1306 -1.7514 -0.6822
10616TIP3    H253264   0.657   4.798   5.815  0.7850  0.9711  0.5885
10617TIP3   OH253265   6.317   6.433  11.202  0.1321  0.0736  0.4600
10617TIP3    H153266   6.226   6.458  11.182  0.4291  1.6109  0.8939
10617TIP3    H253267   6.310   6.373  11.276 -0.6139 -1.0785 -0.5145
10618TIP3   OH253268   1.867   2.176  11.608 -0.4248  0.2600 -0.0844
10618TIP3    H153269   1.780   2.139  11.588  0.1790 -1.5192  0.4149
10618TIP3    H253270   1.869   2.258  11.559 -0.8717 -1.5485 -3.4291
10619TIP3   OH253271   5.432   2.866   2.280 -0.1080  0.1836  0.1696
10619TIP3    H153272   5.378   2.854   2.359 -0.9152 -2.0741 -0.6243
10619TIP3    H253273   5.513   2.819   2.299 -1.0139 -1.9632 -0.9153
10620TIP3   OH253274   1.750   5.025  13.375  0.0777 -0.4561  0.2651
10620TIP3    H153275   1.740   4.980  13.458  1.5107 -1.4179 -0.0514
10620TIP3    H253276   1.786   5.111  13.398  0.6704 -0.7946  0.6398
10621TIP3   OH253277   1.294   5.417  11.275 -0.7696 -0.2144  0.4775
10621TIP3    H153278   1.265   5.466  11.198 -0.5491 -1.0383 -0.1455
10621TIP3    H253279   1.279   5.476  11.348  1.0017  1.4552 -0.4000
10622TIP3   OH253280   3.098   3.626  15.074 -0.2192 -0.0975  0.6650
10622TIP3    H153281   3.123   3.613  14.982  1.3608 -1.0139  1.1938
10622TIP3    H253282   3.074   3.719  15.079  1.0877  0.3237 -0.3572
10623TIP3   OH253283   4.951   0.880  11.434  0.6174  0.8047 -0.4969
10623TIP3    H153284   4.927   0.795  11.397 -1.3256  1.8051 -1.6704
10623TIP3    H253285   5.043   0.869  11.460  0.6204 -1.4364 -1.2153
10624TIP3   OH253286   2.213   3.166   5.612 -0.3279  0.2249 -0.0354
10624TIP3    H153287   2.227   3.247   5.561 -3.2276  0.0582 -1.2762
10624TIP3    H253288   2.127   3.178   5.652 -0.1594 -1.6720  0.9559
10625TIP3   OH253289   4.875   6.219   1.733 -0.1524 -0.0568  0.2603
10625TIP3    H153290   4.884   6.181   1.820 -0.2191 -0.5854  0.0464
10625TIP3    H253291   4.812   6.162   1.689 -2.4287  1.8950  0.8111
10626TIP3   OH253292   3.054   1.961   3.663 -0.4762  0.3919  0.3836
10626TIP3    H153293   3.131   2.001   3.704  0.3495 -1.0991  0.3470
10626TIP3    H253294   3.000   1.932   3.736 -1.0707  1.4959  0.4102
10627TIP3   OH253295   3.176   3.471  13.641 -0.0736 -1.0264 -0.2988
10627TIP3    H153296   3.194   3.519  13.722 -0.2195  1.8274 -1.8407
10627TIP3    H253297   3.087   3.438  13.652 -0.6619  0.6365  0.1246
10628TIP3   OH253298   3.026   4.904  10.467 -0.0131  0.5035 -0.0211
10628TIP3    H153299   3.086   4.978  10.461 -0.2460  0.7564  0.6072
10628TIP3    H253300   2.954   4.936  10.522 -0.1198 -0.1828  0.2569
10629TIP3   OH253301   3.985   4.669  11.426 -0.1649  0.2102  0.2134
10629TIP3    H153302   4.034   4.725  11.366 -0.6169 -0.0017 -0.3715
10629TIP3    H253303   4.041   4.592  11.439  0.2036  0.5331  0.5596
10630TIP3   OH253304   0.040   5.873  11.008  0.0233 -0.3145 -0.1677
10630TIP3    H153305   0.010   5.938  10.943  1.4484  2.4302  1.7246
10630TIP3    H253306  -0.026   5.876  11.077  0.2073 -0.7321  0.0280
10631TIP3   OH253307   6.499   5.406   4.086  0.6129 -0.0377 -0.1716
10631TIP3    H153308   6.461   5.318   4.084 -0.3047  0.2441  2.0669
10631TIP3    H253309   6.485   5.436   4.176  1.9474  1.9563 -0.5741
10632TIP3   OH253310   5.166   4.876  14.167 -0.1383  1.0228  0.2573
10632TIP3    H153311   5.213   4.811  14.115  0.5233  0.6637  1.2817
10632TIP3    H253312   5.232   4.912  14.226 -0.6207  2.2311  0.0946
10633TIP3   OH253313   3.035   5.325   4.067  0.3331  0.4684  0.5773
10633TIP3    H153314   3.038   5.341   4.162  2.1158  0.4751  0.5434
10633TIP3    H253315   3.097   5.388   4.030 -0.2042  0.3414 -0.5935
10634TIP3   OH253316   3.643   3.011  13.211 -0.3281  0.0348  0.3588
10634TIP3    H153317   3.608   3.065  13.139 -1.0835  0.4718  1.0408
10634TIP3    H253318   3.610   2.923  13.192  1.1018 -0.2717 -0.8878
10635TIP3   OH253319   5.959   5.456   4.789  0.4179 -0.0367  0.5505
10635TIP3    H153320   5.974   5.485   4.699 -1.1978 -1.5049 -0.2598
10635TIP3    H253321   5.916   5.530   4.831 -0.2615  0.1142 -0.3691
10636TIP3   OH253322   1.498   5.067   1.943  0.2472  0.4533  0.2543
10636TIP3    H153323   1.501   5.153   1.902 -0.6871  0.6369  0.5503
10636TIP3    H253324   1.578   5.062   1.995  1.6087  0.1026 -1.7710
10637TIP3   OH253325   6.578   3.560   3.402  0.0039 -0.2865 -0.6755
10637TIP3    H153326   6.513   3.545   3.334 -0.7136  0.7473 -0.2552
10637TIP3    H253327   6.543   3.515   3.479 -1.0495  1.5065 -0.0224
10638TIP3   OH253328   3.573   4.576  12.549 -0.0118  0.0315  0.2002
10638TIP3    H153329   3.607   4.544  12.465 -0.9822  0.5686 -0.4169
10638TIP3    H253330   3.540   4.663  12.529 -2.8305 -0.8992  0.4566
10639TIP3   OH253331   1.546   2.981  10.990 -0.1998  0.0928  0.7709
10639TIP3    H153332   1.598   3.058  10.965  0.7077 -0.7603 -0.0186
10639TIP3    H253333   1.595   2.906  10.958 -1.8682 -0.7627  0.0563
10640TIP3   OH253334   2.693   2.068  10.914  0.1404  0.3138 -0.5713
10640TIP3    H153335   2.690   2.043  10.822  3.1744  0.0233 -0.6952
10640TIP3    H253336   2.768   2.019  10.949 -1.6292 -0.5425  2.3901
10641TIP3   OH253337   4.100   0.758   2.992  0.3812 -0.3000  0.1917
10641TIP3    H153338   4.137   0.723   3.073 -0.2536 -1.2648  0.0770
10641TIP3    H253339   4.019   0.801   3.020  1.3517  1.5288  0.3946
10642TIP3   OH253340   5.528   0.784  15.095  0.3891 -0.1683  0.5688
10642TIP3    H153341   5.615   0.750  15.075 -0.3422 -0.8758 -1.6828
10642TIP3    H253342   5.516   0.856  15.034 -1.1542 -1.0446 -0.2176
10643TIP3   OH253343   2.548   1.141   5.492  0.0106 -0.0667  0.0939
10643TIP3    H153344   2.639   1.155   5.517 -0.8913  0.0726  4.1129
10643TIP3    H253345   2.512   1.230   5.485 -0.0452 -0.1257 -0.3387
10644TIP3   OH253346   2.351   1.609  10.870 -0.5883 -0.9078 -0.0258
10644TIP3    H153347   2.318   1.590  10.958 -1.0725 -0.6661 -0.1533
10644TIP3    H253348   2.371   1.702  10.872  0.2165 -1.0744  0.0870
10645TIP3   OH253349   1.431   5.718  13.940  0.1706  0.3568 -0.5854
10645TIP3    H153350   1.427   5.736  14.034  2.3740 -0.3626 -0.2862
10645TIP3    H253351   1.428   5.805  13.900 -1.3299  0.6491  0.0773
10646TIP3   OH253352   5.501   5.308  15.803 -0.2341  0.4762 -0.0319
10646TIP3    H153353   5.557   5.255  15.746  0.0702 -1.2672  1.7666
10646TIP3    H253354   5.560   5.338  15.873 -0.6232  2.4614 -0.4986
10647TIP3   OH253355   4.397   1.613  12.469 -0.7507 -0.1226  0.1463
10647TIP3    H153356   4.351   1.627  12.552 -1.2366 -0.3802 -0.0718
10647TIP3    H253357   4.485   1.647  12.484 -0.5797 -0.9177  1.0298
10648TIP3   OH253358   3.972   0.160  12.837  0.8122 -0.2912 -0.4456
10648TIP3    H153359   3.953   0.105  12.762  3.3629  1.7334 -2.7837
10648TIP3    H253360   3.905   0.228  12.835 -0.1140 -1.1541  0.1982
10649TIP3   OH253361   2.604   1.391  12.478 -0.4862  0.3049  0.0453
10649TIP3    H153362   2.593   1.355  12.390 -1.9119  2.0673 -0.5502
10649TIP3    H253363   2.546   1.338  12.533 -0.4663 -0.0644 -0.2874
10650TIP3   OH253364   1.656   5.013   0.698 -0.3112 -0.0318  0.5155
10650TIP3    H153365   1.703   4.939   0.660 -0.9145  0.5056 -1.3407
10650TIP3    H253366   1.565   4.982   0.706 -0.5446  0.4696 -0.1755
10651TIP3   OH253367   3.481   2.188   5.718 -0.5987  0.0218  0.1021
10651TIP3    H153368   3.407   2.194   5.659  0.5106  0.5264 -1.3007
10651TIP3    H253369   3.508   2.279   5.732  2.2882 -0.1862 -2.8488
10652TIP3   OH253370   5.053   5.274   5.475  0.3222 -0.0470 -0.0127
10652TIP3    H153371   5.112   5.199   5.483 -1.2920 -1.6140 -1.7824
10652TIP3    H253372   4.970   5.244   5.511 -0.4960  0.6997 -1.2064
10653TIP3   OH253373   5.262   3.908  15.068 -0.1208  0.2323 -0.2479
10653TIP3    H153374   5.230   3.848  15.001 -1.2796 -2.1768  2.2831
10653TIP3    H253375   5.183   3.954  15.098  0.2973  0.8710 -0.1043
10654TIP3   OH253376   1.353   1.530  11.079 -0.1319 -0.2185 -0.9274
10654TIP3    H153377   1.437   1.565  11.108  0.0571  0.0686 -1.7915
10654TIP3    H253378   1.335   1.458  11.139  0.6801 -0.2189 -0.6719
10655TIP3   OH253379   5.639   4.057   5.103 -0.2036 -0.5118 -0.0552
10655TIP3    H153380   5.687   4.132   5.069 -1.0946  0.0848 -0.0165
10655TIP3    H253381   5.550   4.068   5.070 -0.7377 -0.6830  1.2643
10656TIP3   OH253382   4.309   6.319   4.014  0.2448 -0.0471 -0.3992
10656TIP3    H153383   4.402   6.341   4.013 -0.0117  1.0991  0.0523
10656TIP3    H253384   4.264   6.402   4.003 -0.7496 -0.4572  0.4307
10657TIP3   OH253385   0.952   2.943  14.527 -0.1621  0.5910  0.4601
10657TIP3    H153386   1.005   2.920  14.603 -1.7412 -1.4661  1.0421
10657TIP3    H253387   0.884   3.001  14.561  0.2085  1.1772  0.2206
10658TIP3   OH253388   1.599   5.962  11.948 -0.0940  0.1764  0.2768
10658TIP3    H153389   1.603   6.015  11.868  1.6029  0.0550  0.2449
10658TIP3    H253390   1.546   6.013  12.009 -1.6332  0.1591 -0.9921
10659TIP3   OH253391   6.107   4.040   2.866 -0.6594 -0.4121  0.6672
10659TIP3    H153392   6.132   4.129   2.890 -2.0945  0.4330 -0.7640
10659TIP3    H253393   6.121   3.988   2.945  0.4172  1.0273  1.4567
10660TIP3   OH253394   5.630   3.105   5.017  0.0567  0.3569 -0.1159
10660TIP3    H153395   5.652   3.071   4.930  1.3915  1.1068 -0.0998
10660TIP3    H253396   5.586   3.189   5.000 -0.5181  0.0628 -0.0868
10661TIP3   OH253397   6.455   4.840   2.457  0.4369 -0.2821 -0.1325
10661TIP3    H153398   6.455   4.906   2.525 -0.5921 -1.2452  0.8469
10661TIP3    H253399   6.484   4.760   2.501  4.3004 -0.0741 -1.8268
10662TIP3   OH253400   3.503   5.210   4.833  0.0417 -0.1352  0.3776
10662TIP3    H153401   3.516   5.129   4.882 -0.4960 -1.8441 -2.0748
10662TIP3    H253402   3.415   5.239   4.857 -0.6482 -1.5451 -0.3187
10663TIP3   OH253403   3.013   6.278  11.026  0.1149 -0.0661  0.0653
10663TIP3    H153404   2.972   6.192  11.020  2.5538 -1.2789 -0.2976
10663TIP3    H253405   3.085   6.266  11.088  0.8410  1.5544 -0.4197
10664TIP3   OH253406   5.548   0.597  16.781 -0.1547  0.5681  1.2431
10664TIP3    H153407   5.557   0.638  16.695 -1.6561  0.0428  0.8010
10664TIP3    H253408   5.523   0.669  16.839  0.0674  0.7879  1.0643
10665TIP3   OH253409   5.776   1.858   2.829  0.4600 -0.3025  0.5917
10665TIP3    H153410   5.756   1.765   2.826  1.0272 -0.4717  1.5470
10665TIP3    H253411   5.870   1.864   2.812  0.1322  0.2575 -1.2013
10666TIP3   OH253412   3.054   6.809  14.676  0.5246 -0.1445 -0.2215
10666TIP3    H153413   3.086   6.891  14.640  0.3351  0.4588  0.9426
10666TIP3    H253414   3.132   6.754  14.684  0.5218 -0.4139 -1.8080
10667TIP3   OH253415   4.977   5.640  14.264 -0.0254 -0.3678  0.4142
10667TIP3    H153416   5.021   5.680  14.339  1.4309 -1.1145 -0.0069
10667TIP3    H253417   4.885   5.664  14.274  0.1278 -0.5083  2.4643
10668TIP3   OH253418   4.467   3.420   3.658 -0.1110  0.4892  0.8956
10668TIP3    H153419   4.522   3.342   3.663  1.9250  1.7098 -1.0161
10668TIP3    H253420   4.499   3.477   3.727 -0.7125  0.1975  1.4268
10669TIP3   OH253421   6.271   2.659  13.392  0.1762 -0.1488 -0.7753
10669TIP3    H153422   6.362   2.637  13.371  0.3666  1.7048 -2.0831
10669TIP3    H253423   6.221   2.629  13.316 -0.0473  0.5319 -0.8979
10670TIP3   OH253424   0.757   0.876   5.278  0.0826  0.9181  0.4657
10670TIP3    H153425   0.727   0.785   5.274  2.4270  0.0780  0.5232
10670TIP3    H253426   0.756   0.897   5.372 -2.0687  1.5929  0.3462
10671TIP3   OH253427   1.215   6.728  14.702  0.0990 -0.1141 -0.0621
10671TIP3    H153428   1.244   6.637  14.693 -0.8814 -0.6020  1.4270
10671TIP3    H253429   1.143   6.724  14.765  1.0476  1.9001  1.2252
10672TIP3   OH253430   4.869   0.386   1.195 -0.7393 -0.2858  0.0041
10672TIP3    H153431   4.798   0.327   1.169 -1.1872  0.4544 -0.4912
10672TIP3    H253432   4.825   0.464   1.227 -0.1669  0.5173 -1.0976
10673TIP3   OH253433   5.449   1.926   5.847  0.4238 -0.2447  0.2791
10673TIP3    H153434   5.422   1.843   5.807  1.1970 -0.5892  0.4594
10673TIP3    H253435   5.515   1.901   5.912  0.7543  0.5222  0.2461
10674TIP3   OH253436   2.166   1.691   1.511 -0.0423  0.4631  0.0869
10674TIP3    H153437   2.096   1.697   1.577 -0.0238 -0.4746  0.2131
10674TIP3    H253438   2.247   1.700   1.560 -0.0702  2.1769 -0.1423
10675TIP3   OH253439   4.002   2.039   6.221  0.0551 -0.9924 -0.0376
10675TIP3    H153440   4.067   2.107   6.203 -1.4031  0.0918 -1.4365
10675TIP3    H253441   3.924   2.087   6.248 -0.4936 -2.2234  0.6501
10676TIP3   OH253442   1.352   3.468  16.323  0.1729  0.3631  0.3428
10676TIP3    H153443   1.348   3.455  16.228  3.5666  0.4633  0.0591
10676TIP3    H253444   1.353   3.563  16.335 -0.6215  0.3554  0.5469
10677TIP3   OH253445   2.737   5.049   1.247 -0.2404  0.4567 -0.0481
10677TIP3    H153446   2.694   5.104   1.181 -0.2105 -0.0034 -0.4625
10677TIP3    H253447   2.818   5.094   1.268 -1.0738  1.5308  1.0135
10678TIP3   OH253448   2.979   3.036   3.943  0.3925  0.4485 -0.2672
10678TIP3    H153449   3.056   3.063   3.994 -0.4576  1.7157  0.4166
10678TIP3    H253450   3.005   3.051   3.852  0.3082  2.9076  0.0254
10679TIP3   OH253451   3.208   4.003   0.786  0.2802  0.1287 -0.2660
10679TIP3    H153452   3.157   3.932   0.825  0.1430 -1.1149 -2.5932
10679TIP3    H253453   3.146   4.077   0.781 -0.0306 -0.0428  0.7255
10680TIP3   OH253454   5.764   2.270   2.995  0.4939  0.2779  0.1571
10680TIP3    H153455   5.709   2.191   2.991  0.4573  0.2843  0.4807
10680TIP3    H253456   5.847   2.239   3.031  0.7122  0.2651 -0.3481
10681TIP3   OH253457   0.813   2.008   3.746 -0.4484 -0.1793 -0.1265
10681TIP3    H153458   0.774   2.093   3.726  0.8408  0.4442 -0.0238
10681TIP3    H253459   0.833   1.970   3.660  0.2251  0.2155 -0.1482
10682TIP3   OH253460   2.549   5.686  16.239 -0.0827  0.4727  0.4379
10682TIP3    H153461   2.643   5.669  16.239 -0.2953 -0.8153 -0.3911
10682TIP3    H253462   2.526   5.695  16.331  0.8807  1.0203  0.6370
10683TIP3   OH253463   6.407   3.957   4.087 -0.0524  0.4621 -0.0487
10683TIP3    H153464   6.456   3.903   4.148 -1.6001  1.4767  2.2813
10683TIP3    H253465   6.471   3.986   4.023  1.2785 -2.2012 -0.0403
10684TIP3   OH253466   6.796   5.077  12.625  0.0956 -0.4354  0.2996
10684TIP3    H153467   6.855   5.138  12.580  2.8563 -1.2910  2.4862
10684TIP3    H253468   6.751   5.130  12.690  0.4186 -0.2335  0.3587
10685TIP3   OH253469   2.910   0.144   4.433  0.2639 -1.0188  0.2121
10685TIP3    H153470   2.888   0.059   4.394 -0.5255 -1.2808  1.2064
10685TIP3    H253471   2.825   0.188   4.445  0.7115  0.2536 -1.0208
10686TIP3   OH253472   2.571   2.555  16.368  0.1223  0.5782  0.1242
10686TIP3    H153473   2.488   2.516  16.394  0.9722 -3.0477 -1.9397
10686TIP3    H253474   2.605   2.594  16.449 -2.2506 -0.3854  1.7117
10687TIP3   OH253475   2.032   4.561  12.224  0.1011 -0.4650  0.8352
10687TIP3    H153476   1.978   4.539  12.149  0.8496  0.2168  0.0671
10687TIP3    H253477   2.114   4.513  12.210  0.8818  0.9276  0.3096
10688TIP3   OH253478   1.529   0.168   4.591  0.6031  0.6016  0.0279
10688TIP3    H153479   1.609   0.168   4.539 -1.4625 -0.7147 -3.4853
10688TIP3    H253480   1.487   0.252   4.572 -0.7114 -0.3429 -1.5142
10689TIP3   OH253481   5.339   1.106   4.241 -0.6809 -0.1357 -0.2608
10689TIP3    H153482   5.388   1.052   4.304  1.7168  2.9011  0.7229
10689TIP3    H253483   5.248   1.076   4.250  0.0122 -1.8497  2.4936
10690TIP3   OH253484   1.367   4.592   0.088  0.4159  0.1038  0.0031
10690TIP3    H153485   1.448   4.541   0.096  0.2900  0.0824  1.6568
10690TIP3    H253486   1.396   4.682   0.079  0.6578  0.1372  0.9434
10691TIP3   OH253487   4.438   3.285   2.514 -0.3144  0.1049  0.0207
10691TIP3    H153488   4.348   3.262   2.490 -0.0930 -1.2406  0.3961
10691TIP3    H253489   4.470   3.208   2.562  0.8895  0.7495  0.2761
10692TIP3   OH253490   5.870   4.235   2.877 -0.1612 -0.0170  0.0036
10692TIP3    H153491   5.890   4.324   2.904 -0.9848  0.7073 -1.6215
10692TIP3    H253492   5.946   4.184   2.904  1.1900  1.5286 -0.7470
10693TIP3   OH253493   0.405   1.653   5.317 -0.3600 -0.2912  0.9355
10693TIP3    H153494   0.411   1.748   5.307  3.5380 -0.3829  0.8240
10693TIP3    H253495   0.410   1.619   5.227  1.2964 -0.5595  1.0876
10694TIP3   OH253496   4.065   6.395   1.093 -0.3570 -0.2623  0.8362
10694TIP3    H153497   4.032   6.326   1.035  2.4590  0.1995 -1.5244
10694TIP3    H253498   4.079   6.351   1.176 -1.0940 -1.8908  0.1501
10695TIP3   OH253499   5.130   5.032  12.124 -0.0012 -0.2185  0.9066
10695TIP3    H153500   5.101   5.045  12.215 -0.9947  3.9553  0.2080
10695TIP3    H253501   5.051   5.005  12.077  0.0290 -0.3756  0.9459
10696TIP3   OH253502   1.702   1.979  11.864 -0.5519  0.2003  0.7452
10696TIP3    H153503   1.687   1.942  11.951  0.3769 -1.1200  0.3739
10696TIP3    H253504   1.729   1.905  11.811 -0.1287  1.1678 -0.4372
10697TIP3   OH253505   3.603   5.923  11.137  0.7978 -0.1700 -0.2981
10697TIP3    H153506   3.646   5.839  11.123  1.8748  0.4727 -1.0082
10697TIP3    H253507   3.510   5.901  11.146  1.3774 -1.8168  3.3524
10698TIP3   OH253508   1.587   6.379   1.547 -0.1424 -0.1383  0.1916
10698TIP3    H153509   1.541   6.296   1.554  0.0643 -0.3434 -0.8454
10698TIP3    H253510   1.657   6.363   1.484 -0.9051  1.1744 -1.0382
10699TIP3   OH253511   4.841   6.460   2.810  0.0854 -0.1320  0.3474
10699TIP3    H153512   4.782   6.446   2.885 -0.3763 -1.0963 -0.1704
10699TIP3    H253513   4.852   6.372   2.772 -0.4062  0.4562 -1.2401
10700TIP3   OH253514   5.885   0.697   5.106 -0.3441  0.3646  0.8244
10700TIP3    H153515   5.941   0.643   5.162 -1.0506 -0.5799  0.6374
10700TIP3    H253516   5.864   0.773   5.160  2.2187  1.4659  0.4396
10701TIP3   OH253517   3.229   4.165   1.764  0.5216 -0.0226 -0.0210
10701TIP3    H153518   3.306   4.193   1.715  2.6851 -0.7634  2.6711
10701TIP3    H253519   3.245   4.072   1.782 -1.0406 -0.1990  0.5536
10702TIP3   OH253520   6.032   3.497  11.822 -0.2063 -0.1652 -0.2289
10702TIP3    H153521   6.119   3.484  11.861 -0.8187  0.7878  1.5511
10702TIP3    H253522   5.986   3.415  11.837 -0.9776  0.6887  2.6563
10703TIP3   OH253523   1.888   3.078   0.169 -0.3148  0.2238 -0.1955
10703TIP3    H153524   1.947   3.062   0.096 -0.6726 -0.0102 -0.4344
10703TIP3    H253525   1.833   3.000   0.173 -2.0748  1.3332 -1.3571
10704TIP3   OH253526   3.425   2.676  14.547 -0.8322  0.0008 -0.2636
10704TIP3    H153527   3.409   2.611  14.616  1.5783 -0.7244 -0.2831
10704TIP3    H253528   3.482   2.741  14.588 -0.8154  0.5125 -1.0719
10705TIP3   OH253529   4.829   1.170   5.497  0.2797 -0.5545  0.2260
10705TIP3    H153530   4.895   1.222   5.544  0.2574  0.3222 -0.6804
10705TIP3    H253531   4.847   1.080   5.524  1.4950 -0.2738  0.4304
10706TIP3   OH253532   4.272   4.257  13.630  0.0614 -0.3922 -0.4194
10706TIP3    H153533   4.320   4.174  13.629 -0.2610 -0.5830 -1.2873
10706TIP3    H253534   4.301   4.302  13.551 -1.4406 -0.6764 -1.1762
10707TIP3   OH253535   5.638   3.303   3.704  0.2199 -0.4584  0.3569
10707TIP3    H153536   5.705   3.259   3.757  1.5880  0.8902 -0.1662
10707TIP3    H253537   5.674   3.391   3.689 -0.7227 -0.3703 -1.7038
10708TIP3   OH253538   6.669   5.097   1.784 -0.4520  0.2751  0.0529
10708TIP3    H153539   6.700   5.179   1.824  0.0765  0.8120 -1.3991
10708TIP3    H253540   6.582   5.120   1.750 -1.1014 -0.3115  1.2396
10709TIP3   OH253541   5.454   0.622   2.791  0.8598  0.9514 -0.5902
10709TIP3    H153542   5.395   0.687   2.751  1.4940  1.0793 -1.3480
10709TIP3    H253543   5.462   0.650   2.882 -1.7086 -0.1322  0.0487
10710TIP3   OH253544   5.384   1.253  16.432  0.1460 -0.1110 -0.2715
10710TIP3    H153545   5.341   1.311  16.369 -1.0858 -0.8280 -0.1270
10710TIP3    H253546   5.444   1.200  16.379  0.1821  0.2729 -0.6189
10711TIP3   OH253547   3.715   3.057   0.600  0.9912  0.4326 -0.4965
10711TIP3    H153548   3.660   3.112   0.655  0.6603  0.9327 -1.3175
10711TIP3    H253549   3.794   3.041   0.653 -0.2283 -0.9306  1.0054
10712TIP3   OH253550   0.558   4.437  14.101 -0.1165  0.2534  0.1160
10712TIP3    H153551   0.537   4.383  14.025 -0.3104  2.2522 -1.3267
10712TIP3    H253552   0.653   4.451  14.095  0.0919 -0.5988  1.0037
10713TIP3   OH253553   1.222   3.903  15.906  0.1973  0.3314  0.7306
10713TIP3    H153554   1.221   3.812  15.935  1.7977  0.7646  2.3654
10713TIP3    H253555   1.145   3.943  15.947  0.0515 -0.0515  0.8279
10714TIP3   OH253556   1.211   1.840  11.368  0.5636 -0.1644  0.2920
10714TIP3    H153557   1.196   1.798  11.283 -1.3588  0.4403  0.2708
10714TIP3    H253558   1.303   1.824  11.387  0.5237 -2.2263 -0.8716
10715TIP3   OH253559   4.503   4.413  10.956  0.2926 -0.2741  0.4604
10715TIP3    H153560   4.594   4.423  10.983  0.5989  0.4716 -0.8086
10715TIP3    H253561   4.486   4.319  10.965  1.8383 -0.7756 -1.2595
10716TIP3   OH253562   5.540   2.033  16.140  0.1400 -0.0644  0.2377
10716TIP3    H153563   5.554   1.945  16.174  1.1865  0.0198  0.0719
10716TIP3    H253564   5.518   2.085  16.218  1.4479 -0.0928  0.6500
10717TIP3   OH253565   2.590   6.065  12.006 -1.0162  0.1091  0.0728
10717TIP3    H153566   2.661   6.030  12.059 -1.3530 -1.2769 -0.3468
10717TIP3    H253567   2.518   6.079  12.068 -1.1735 -0.8217  0.1090
10718TIP3   OH253568   1.392   3.176  11.541 -0.1813  0.2157  0.0348
10718TIP3    H153569   1.451   3.194  11.468  0.1121  2.1748  0.6898
10718TIP3    H253570   1.398   3.082  11.554  1.2456  0.0894 -1.2205
10719TIP3   OH253571   2.822   0.785  11.756  0.4149  0.4442  0.0660
10719TIP3    H153572   2.892   0.777  11.690  1.3346  2.5659  0.7082
10719TIP3    H253573   2.746   0.744  11.715  1.5502 -0.3154 -1.3919
10720TIP3   OH253574   0.911   5.508  16.047  1.2459 -0.4297 -0.2478
10720TIP3    H153575   0.984   5.559  16.012  0.6357  1.7380  1.3773
10720TIP3    H253576   0.836   5.566  16.040  0.0762 -1.8622 -0.0498
10721TIP3   OH253577   5.290   4.967   2.880 -0.2688 -0.2677  0.3655
10721TIP3    H153578   5.298   4.927   2.793 -3.6661  2.9939 -1.7398
10721TIP3    H253579   5.368   5.022   2.888  0.0861 -0.5922 -0.6406
10722TIP3   OH253580   5.109   1.856  12.136  0.2650 -0.0632  0.1965
10722TIP3    H153581   5.121   1.849  12.231 -1.1199 -2.2331  0.2685
10722TIP3    H253582   5.054   1.933  12.125  0.7611  0.4436  1.0965
10723TIP3   OH253583   4.863   2.044  13.312  0.1878  0.0418 -0.9047
10723TIP3    H153584   4.820   1.986  13.249 -0.1729  0.2193 -0.8277
10723TIP3    H253585   4.830   2.014  13.397  0.3467  0.0731 -0.8326
10724TIP3   OH253586   2.077   4.499   4.045  0.4912  0.3902 -0.5159
10724TIP3    H153587   2.009   4.543   3.995 -0.0462 -0.1715 -0.2926
10724TIP3    H253588   2.031   4.464   4.122  1.3280  1.3827  0.4617
10725TIP3   OH253589   1.434   4.070  15.025 -0.1941  0.0071 -0.0481
10725TIP3    H153590   1.347   4.038  15.050 -0.9488  1.8082 -0.2275
10725TIP3    H253591   1.421   4.109  14.939  1.4224 -2.1185 -1.3806
10726TIP3   OH253592   2.323   1.733   2.245  0.3048 -0.2776  0.1938
10726TIP3    H153593   2.395   1.679   2.214  0.5727  0.0543  0.2293
10726TIP3    H253594   2.359   1.780   2.320 -0.4202 -1.2851  1.2011
10727TIP3   OH253595   0.360   1.577   2.445 -0.7002 -0.3523 -0.2632
10727TIP3    H153596   0.411   1.500   2.472 -0.3176  0.0354  0.1468
10727TIP3    H253597   0.270   1.556   2.470 -0.4033 -0.1339  1.0739
10728TIP3   OH253598   2.186   1.265  11.404 -0.2073  0.1600 -0.1577
10728TIP3    H153599   2.115   1.207  11.430 -0.6695  1.2361  1.0810
10728TIP3    H253600   2.182   1.266  11.308 -1.7634  0.0968 -0.1120
10729TIP3   OH253601   5.639   2.330  16.960 -0.4309  0.3711  0.2359
10729TIP3    H153602   5.685   2.261  16.912 -1.8040  0.5848 -1.4665
10729TIP3    H253603   5.657   2.310  17.052  2.6141  0.1701 -0.2903
10730TIP3   OH253604   0.571   5.758  13.191 -0.2029 -0.1115 -0.3109
10730TIP3    H153605   0.543   5.677  13.234 -0.2447  0.8131  1.4959
10730TIP3    H253606   0.637   5.795  13.249  0.6503  0.6111 -1.6700
10731TIP3   OH253607   5.058   6.154   5.477  0.2948 -0.7155 -0.2295
10731TIP3    H153608   5.136   6.122   5.432  1.2946  0.9519  0.2341
10731TIP3    H253609   5.006   6.195   5.408  1.6555  1.5202 -0.0086
10732TIP3   OH253610   0.529   0.363  14.275  0.0997 -0.0833 -0.5401
10732TIP3    H153611   0.599   0.386  14.336 -0.5324 -1.1254  0.6404
10732TIP3    H253612   0.458   0.332  14.332 -1.2389  0.7244 -1.7146
10733TIP3   OH253613   3.986   0.411   4.449 -0.3031 -0.2901  0.7035
10733TIP3    H153614   4.074   0.416   4.487 -0.6280 -1.4397  1.6568
10733TIP3    H253615   3.991   0.339   4.386 -0.5548 -0.3266  0.7255
10734TIP3   OH253616   1.234   4.889   0.980  0.2551 -0.2943  0.1506
10734TIP3    H153617   1.224   4.971   1.029  1.1691 -0.2742  0.3227
10734TIP3    H253618   1.148   4.874   0.940 -0.3935 -0.1115  1.4440
10735TIP3   OH253619   3.746   1.540  14.547 -0.4040 -0.6905 -0.2227
10735TIP3    H153620   3.794   1.548  14.464 -1.3399 -0.9426 -0.8090
10735TIP3    H253621   3.693   1.620  14.552 -0.3021 -0.6450  0.1687
10736TIP3   OH253622   1.775   3.575  12.103 -0.4367  0.0348 -0.0282
10736TIP3    H153623   1.748   3.571  12.012 -1.4554  0.8485  0.2308
10736TIP3    H253624   1.866   3.606  12.100 -0.8252  1.1581 -0.7214
10737TIP3   OH253625   3.909   3.863   0.468  0.7238  0.2304  0.2245
10737TIP3    H153626   3.844   3.820   0.412  2.4578  0.1647 -1.8918
10737TIP3    H253627   3.968   3.793   0.494  0.3405  0.3947  1.6265
10738TIP3   OH253628   4.920   3.431  16.916 -0.4463  0.4989 -0.1269
10738TIP3    H153629   4.867   3.511  16.920 -0.4283  0.4641  0.9018
10738TIP3    H253630   4.859   3.360  16.938 -0.8548  0.0042 -2.5469
10739TIP3   OH253631   2.860   5.545  12.083  0.5991 -0.0765  0.0452
10739TIP3    H153632   2.853   5.634  12.051  0.8124 -0.1600 -0.2426
10739TIP3    H253633   2.952   5.521  12.068  0.5250 -0.3708  0.0448
10740TIP3   OH253634   5.202   6.053   2.776  0.3133  0.7053 -0.4502
10740TIP3    H153635   5.240   6.026   2.859  0.3570  1.5833 -0.1738
10740TIP3    H253636   5.264   6.024   2.709  0.3683  0.1658 -0.1657
10741TIP3   OH253637   4.760   6.151  12.442  0.1867  0.4548 -0.1569
10741TIP3    H153638   4.695   6.113  12.500  0.1681 -0.1380 -0.5530
10741TIP3    H253639   4.825   6.190  12.500  2.0604 -3.1298  0.4632
10742TIP3   OH253640   3.484   0.258  14.118  0.0963  1.0391 -0.2143
10742TIP3    H153641   3.450   0.173  14.088 -0.6481  1.2307  0.0632
10742TIP3    H253642   3.547   0.235  14.186  1.9227  0.5897 -1.9425
10743TIP3   OH253643   6.463   1.867   4.901  0.1410 -0.3772  0.1917
10743TIP3    H153644   6.558   1.873   4.896  0.1225 -1.0580 -2.5038
10743TIP3    H253645   6.432   1.950   4.865 -0.3846  0.6440  2.7556
10744TIP3   OH253646   5.909   3.385   1.617  0.0283 -0.0579  0.2043
10744TIP3    H153647   5.936   3.294   1.607 -0.0371  0.0552 -1.1594
10744TIP3    H253648   5.990   3.431   1.640  1.1745  0.2481 -3.6524
10745TIP3   OH253649   5.448   2.329   0.730 -0.1612  0.1558 -0.2619
10745TIP3    H153650   5.510   2.318   0.657  1.1828 -0.0507  0.8725
10745TIP3    H253651   5.393   2.402   0.703 -0.3017 -0.5044 -1.8922
10746TIP3   OH253652   2.505   2.273   5.659  0.0741 -0.2772  0.8253
10746TIP3    H153653   2.426   2.285   5.712 -0.0062  1.5453  0.3754
10746TIP3    H253654   2.564   2.225   5.716 -0.7133 -0.0750  1.8555
10747TIP3   OH253655   2.739   4.867   5.123 -0.5314 -0.0502  0.5411
10747TIP3    H153656   2.817   4.816   5.141 -1.4189 -1.2896  1.0092
10747TIP3    H253657   2.689   4.813   5.062 -0.9796  0.7793  0.1521
10748TIP3   OH253658   5.932   3.133  15.873  0.2848  0.2821  0.0277
10748TIP3    H153659   5.932   3.058  15.932 -0.0823  1.0971  1.0801
10748TIP3    H253660   5.904   3.096  15.789 -1.4370 -0.5078  0.8872
10749TIP3   OH253661   6.433   6.085  16.336  0.6656  0.0620  0.5814
10749TIP3    H153662   6.397   6.173  16.329  0.1865 -0.0062  1.8931
10749TIP3    H253663   6.359   6.027  16.319  1.0750 -0.1040 -0.7108
10750TIP3   OH253664   4.194   1.393   0.859 -0.2901 -0.3433 -0.8605
10750TIP3    H153665   4.226   1.482   0.872 -2.0303  0.3675 -1.2205
10750TIP3    H253666   4.233   1.343   0.931 -0.4187  1.0183  0.1947
10751TIP3   OH253667   1.114   6.501  13.247 -0.3377  0.4007 -0.1235
10751TIP3    H153668   1.052   6.546  13.189  0.2245 -0.6420 -1.5835
10751TIP3    H253669   1.094   6.408  13.236  0.3717  0.1430  0.6855
10752TIP3   OH253670   4.282   5.453  13.894  0.6940  0.4380 -0.6892
10752TIP3    H153671   4.237   5.413  13.820 -1.6227  0.7006  0.4759
10752TIP3    H253672   4.265   5.394  13.968  1.1282  1.2383  0.0740
10753TIP3   OH253673   5.008   2.143   5.765  0.0274  0.4894  0.2218
10753TIP3    H153674   4.914   2.146   5.747  0.2480 -0.2169 -1.1712
10753TIP3    H253675   5.044   2.215   5.714  0.2780  0.6346  0.6002
10754TIP3   OH253676   3.937   3.173  13.967  0.0977 -0.5036  0.0686
10754TIP3    H153677   3.945   3.106  14.035  1.2454 -0.4453  0.0186
10754TIP3    H253678   4.025   3.210  13.960 -0.8778  2.4632  1.5597
10755TIP3   OH253679   4.613   3.824  10.810 -0.5541  0.0654 -0.1464
10755TIP3    H153680   4.633   3.802  10.901 -0.8199 -0.6368 -0.2467
10755TIP3    H253681   4.615   3.919  10.807 -1.0858  0.1128  0.7179
10756TIP3   OH253682   0.360   4.593   4.808 -0.0052 -0.5242  0.4561
10756TIP3    H153683   0.364   4.586   4.903 -0.3042 -1.2942  0.4194
10756TIP3    H253684   0.365   4.687   4.790 -0.0588 -0.3707  1.2346
10757TIP3   OH253685   0.173   4.877   3.733 -0.6123 -0.1409  0.3491
10757TIP3    H153686   0.197   4.969   3.744  0.7503 -0.0789 -2.3761
10757TIP3    H253687   0.234   4.829   3.790  1.7943  0.4700 -1.5075
10758TIP3   OH253688   4.292   6.080   2.513 -0.0507 -0.6871  0.2074
10758TIP3    H153689   4.272   6.166   2.477 -0.6373 -1.2875 -0.9519
10758TIP3    H253690   4.367   6.095   2.570  0.3133  0.4616 -0.5310
10759TIP3   OH253691   0.152   5.690   1.327 -0.1878  0.2213 -0.9830
10759TIP3    H153692   0.136   5.660   1.417 -0.6080  1.6512 -0.5527
10759TIP3    H253693   0.125   5.617   1.272 -2.9521  0.4391 -0.0537
10760TIP3   OH253694   6.135   2.806  14.155  0.4847 -0.2945  0.1637
10760TIP3    H153695   6.188   2.745  14.206 -0.7984 -0.7914  0.9526
10760TIP3    H253696   6.054   2.815  14.205  0.2792  1.3783 -0.3924
10761TIP3   OH253697   3.407   1.838   1.696  0.1874  0.3260  0.1820
10761TIP3    H153698   3.415   1.760   1.642  2.3500  0.8342 -0.2997
10761TIP3    H253699   3.337   1.889   1.655 -0.8429 -1.0391  0.1614
10762TIP3   OH253700   3.682   6.348   5.296 -0.2218 -0.3871 -0.3648
10762TIP3    H153701   3.762   6.330   5.246  1.6848 -0.0200  2.3583
10762TIP3    H253702   3.658   6.437   5.270  1.1292  0.0624 -0.1663
10763TIP3   OH253703   0.210   2.525  16.460 -0.1648  0.6245  0.2107
10763TIP3    H153704   0.167   2.445  16.491 -0.3805  0.8514  0.5153
10763TIP3    H253705   0.211   2.582  16.537 -2.7788  2.0982 -0.7186
10764TIP3   OH253706   2.098   6.281  16.854  0.4047  0.7893 -0.2152
10764TIP3    H153707   2.156   6.220  16.807  0.6459  1.1595 -0.4013
10764TIP3    H253708   2.138   6.367  16.842 -0.5727  1.1662 -0.9849
10765TIP3   OH253709   4.514   1.635   3.257  0.0837  0.1973  0.4562
10765TIP3    H153710   4.450   1.706   3.261 -0.8216 -0.6353  0.9139
10765TIP3    H253711   4.524   1.607   3.348 -0.7494 -1.3080  0.1097
10766TIP3   OH253712   5.027   5.124  15.905 -0.1029 -0.3677 -0.1851
10766TIP3    H153713   5.114   5.160  15.887  0.1097 -0.4622  0.5977
10766TIP3    H253714   4.991   5.103  15.819  0.1257  0.8825 -0.6115
10767TIP3   OH253715   3.151   5.697  16.263 -0.6050 -0.1172 -0.3170
10767TIP3    H153716   3.125   5.622  16.317  0.5559  0.0147  0.4451
10767TIP3    H253717   3.198   5.755  16.323 -1.1411  1.0546 -0.9877
10768TIP3   OH253718   3.921   4.937   3.089 -0.0728  0.0245 -0.4727
10768TIP3    H153719   3.931   5.029   3.064 -0.8474  0.2199 -0.0843
10768TIP3    H253720   4.011   4.903   3.088 -0.0345 -0.1684 -4.0605
10769TIP3   OH253721   5.072   4.611   0.682  0.0690  0.2334  0.4643
10769TIP3    H153722   5.018   4.634   0.607  1.7831  1.0513 -0.5902
10769TIP3    H253723   5.138   4.551   0.647 -1.0729 -2.1197  2.0597
10770TIP3   OH253724   6.033   4.819  12.388 -0.0908  0.2585 -0.1978
10770TIP3    H153725   6.118   4.853  12.418 -1.0781  1.4669  1.4395
10770TIP3    H253726   5.971   4.847  12.456 -2.1440  1.1309 -2.2874
10771TIP3   OH253727   3.564   4.789  15.723  0.2964  0.2106  0.3453
10771TIP3    H153728   3.537   4.869  15.677  1.3276  0.3686 -0.0146
10771TIP3    H253729   3.521   4.718  15.675 -1.6644  0.5801  1.4246
10772TIP3   OH253730   3.599   1.885   2.070  0.1185  0.0053 -0.4189
10772TIP3    H153731   3.656   1.835   2.129 -0.0793  1.0932  0.7547
10772TIP3    H253732   3.643   1.884   1.986  0.2020 -1.9633 -0.3845
10773TIP3   OH253733   0.775   6.107  13.202  0.2326 -0.6935 -0.1742
10773TIP3    H153734   0.754   6.031  13.256 -1.9241 -0.2094 -0.2346
10773TIP3    H253735   0.799   6.176  13.264  0.2023 -0.8462  0.0042
10774TIP3   OH253736   0.143   1.678   4.238  0.3896  0.2706 -0.6420
10774TIP3    H153737   0.104   1.615   4.298  2.1368  0.2106  0.4879
10774TIP3    H253738   0.217   1.632   4.200  2.9797  2.1464  1.7252
10775TIP3   OH253739   3.217   0.192  14.574  0.2710  0.1307 -0.2940
10775TIP3    H153740   3.303   0.153  14.590 -1.1079 -2.1158  2.8493
10775TIP3    H253741   3.219   0.274  14.623  0.5506 -0.0869  0.0710
10776TIP3   OH253742   1.975   4.069   2.388 -0.0446  0.4769  0.3814
10776TIP3    H153743   2.000   3.981   2.360 -0.7814  0.4241 -0.1423
10776TIP3    H253744   1.903   4.055   2.449 -2.1641  0.7867 -1.9104
10777TIP3   OH253745   6.232   2.631  12.052  0.2497  0.2277 -0.2797
10777TIP3    H153746   6.169   2.622  11.980  1.4925 -0.3551 -1.3410
10777TIP3    H253747   6.195   2.579  12.123 -1.2121  1.1624 -0.3255
10778TIP3   OH253748   0.487   6.781  16.519  0.2078 -0.2214 -0.3441
10778TIP3    H153749   0.559   6.793  16.458 -0.4216 -0.5874 -1.1785
10778TIP3    H253750   0.485   6.687  16.537  1.0165  0.0027  1.0448
10779TIP3   OH253751   4.576   6.380  11.574  0.2777  0.7787  0.6868
10779TIP3    H153752   4.485   6.364  11.598  0.6937  0.8840  2.4754
10779TIP3    H253753   4.625   6.306  11.611  0.9253  0.6894 -0.3012
10780TIP3   OH253754   0.989   6.461  10.451 -0.5311 -0.1065  0.7209
10780TIP3    H153755   0.918   6.486  10.511 -0.0354  0.0183  1.2614
10780TIP3    H253756   1.000   6.537  10.393 -0.4686  0.0898  0.9892
10781TIP3   OH253757   1.717   3.790  12.256 -0.5364  0.3090 -0.1132
10781TIP3    H153758   1.729   3.863  12.196 -2.8428 -0.1543 -1.2557
10781TIP3    H253759   1.714   3.713  12.200 -0.2425 -0.4347  0.8622
10782TIP3   OH253760   4.922   2.194   3.838  0.8193 -0.6506 -0.2332
10782TIP3    H153761   4.872   2.275   3.824  1.9609 -0.1488 -1.6037
10782TIP3    H253762   4.855   2.125   3.842 -0.1114  0.2419  0.0824
10783TIP3   OH253763   6.780   3.915   4.894 -0.4787  0.6461  0.4048
10783TIP3    H153764   6.726   3.969   4.835 -0.2852  0.4800  0.0771
10783TIP3    H253765   6.846   3.876   4.837 -2.1846 -2.0577  0.1312
10784TIP3   OH253766   4.769   5.133   3.640  0.1632  0.0423 -0.3049
10784TIP3    H153767   4.770   5.082   3.559 -0.3355 -0.0449 -0.2536
10784TIP3    H253768   4.753   5.223   3.611  1.2817  0.2296 -0.4187
10785TIP3   OH253769   2.980   4.936   0.108 -0.1006  0.0162 -0.4885
10785TIP3    H153770   3.024   5.020   0.122 -0.3469  0.5015 -2.3620
10785TIP3    H253771   3.051   4.872   0.106  0.1015  0.1799  0.8106
10786TIP3   OH253772   6.479   6.421  15.052 -0.0765  0.2559 -0.6339
10786TIP3    H153773   6.546   6.465  15.104 -0.2614 -1.2815  0.9864
10786TIP3    H253774   6.524   6.349  15.009 -0.0769  1.0930 -2.1151
10787TIP3   OH253775   5.920   3.438  15.643  0.1218 -0.1217 -0.1228
10787TIP3    H153776   5.902   3.496  15.570 -1.0232  0.1116  0.3143
10787TIP3    H253777   6.013   3.448  15.660  0.2223  0.4815 -0.9852
10788TIP3   OH253778   6.191   5.369   2.260  0.0327 -0.4387  0.1497
10788TIP3    H153779   6.105   5.342   2.292 -0.7018  1.6794  0.0935
10788TIP3    H253780   6.213   5.445   2.312  1.4734 -0.4109 -0.4662
10789TIP3   OH253781   6.059   5.283   6.314 -0.1734  0.2428 -0.0368
10789TIP3    H153782   5.969   5.312   6.296 -0.4899 -0.7855 -0.1924
10789TIP3    H253783   6.055   5.188   6.304  0.7375  0.1060  0.8289
10790TIP3   OH253784   4.979   2.895  16.630  0.4173 -0.1364 -0.2371
10790TIP3    H153785   4.947   2.967  16.683  0.8931 -0.6603  0.7948
10790TIP3    H253786   5.067   2.922  16.603  0.3959 -0.1063 -0.2763
10791TIP3   OH253787   2.751   3.129   5.672 -0.0744 -0.3708 -0.4094
10791TIP3    H153788   2.682   3.071   5.704 -2.3542  2.0758 -0.4897
10791TIP3    H253789   2.724   3.151   5.583  0.6473  0.8723 -0.3365
10792TIP3   OH253790   1.444   5.659  13.523  0.0770  0.5270 -0.3380
10792TIP3    H153791   1.512   5.640  13.588  0.5384 -1.8285 -1.4278
10792TIP3    H253792   1.368   5.608  13.552  0.4834 -1.0496 -1.9070
10793TIP3   OH253793   5.348   3.439   0.278 -0.2661  0.1257 -0.0549
10793TIP3    H153794   5.269   3.395   0.245 -0.6656  1.1295 -0.4776
10793TIP3    H253795   5.321   3.475   0.362 -0.0584 -0.0869  0.1037
10794TIP3   OH253796   3.316   3.109   6.431 -0.4799 -0.4340  0.4717
10794TIP3    H153797   3.346   3.199   6.415  1.0999 -1.2038 -1.2288
10794TIP3    H253798   3.309   3.103   6.526  1.7630  0.8022  0.7817
10795TIP3   OH253799   0.079   6.749   5.568  0.0825  0.8579  0.2719
10795TIP3    H153800   0.026   6.733   5.489  0.9173 -0.9116  0.0174
10795TIP3    H253801   0.026   6.715   5.640  0.9630 -1.3244 -0.0306
10796TIP3   OH253802   3.969   0.409  13.574  0.0285 -0.1644 -0.0110
10796TIP3    H153803   4.007   0.460  13.646 -1.8715  1.1257  0.1555
10796TIP3    H253804   4.039   0.403  13.510  0.6557  1.8268  0.4111
10797TIP3   OH253805   6.106   6.734  16.847  0.6108  0.5493  0.6910
10797TIP3    H153806   6.029   6.788  16.865  1.0440  0.9205  1.4939
10797TIP3    H253807   6.140   6.767  16.763 -2.2188 -2.0945 -1.7268
10798TIP3   OH253808   2.027   0.210  12.202 -0.1374 -0.5820  0.1499
10798TIP3    H153809   2.007   0.281  12.140  1.1574  0.2145  0.6066
10798TIP3    H253810   2.054   0.137  12.146  2.2852  0.5390 -0.2413
10799TIP3   OH253811   6.351   6.459   5.800  0.1440  0.3860 -0.4954
10799TIP3    H153812   6.288   6.530   5.815 -1.1798 -0.8172 -0.0547
10799TIP3    H253813   6.335   6.432   5.709  0.7614  0.7548 -0.7155
10800TIP3   OH253814   4.402   0.120   2.443  0.3788  0.9580  0.1805
10800TIP3    H153815   4.377   0.172   2.367 -0.7447 -0.2210 -0.3013
10800TIP3    H253816   4.498   0.117   2.439  0.3371 -1.5712 -3.0424
10801TIP3   OH253817   5.350   0.092   0.332  1.4014 -0.0338  0.0257
10801TIP3    H153818   5.328   0.164   0.393 -1.0241 -0.1687 -0.5763
10801TIP3    H253819   5.328   0.013   0.381  0.5184 -0.1886 -0.6095
10802TIP3   OH253820   2.210   0.837   2.446 -0.2069 -0.1182  0.3085
10802TIP3    H153821   2.284   0.808   2.499  0.2916 -1.5254 -1.0640
10802TIP3    H253822   2.135   0.789   2.482 -0.3508  0.8069  1.2794
10803TIP3   OH253823   6.226   2.736   4.613  0.6614 -0.3731  0.0739
10803TIP3    H153824   6.207   2.814   4.666  0.8423 -1.2304  1.4457
10803TIP3    H253825   6.148   2.726   4.557  0.0697  0.0605  0.7975
10804TIP3   OH253826   3.551   4.392   1.310  0.3661 -0.2839  0.0833
10804TIP3    H153827   3.502   4.467   1.344  0.6070 -0.3554  0.5945
10804TIP3    H253828   3.621   4.432   1.257  0.0629 -0.1708 -0.2368
10805TIP3   OH253829   3.186   0.202  11.214 -0.1893 -0.1315 -0.0925
10805TIP3    H153830   3.276   0.219  11.242 -0.4262  0.2318  0.4650
10805TIP3    H253831   3.170   0.110  11.238  0.6373 -0.7731 -1.8661
10806TIP3   OH253832   6.552   4.745  16.881  0.1339  0.0313  0.0347
10806TIP3    H153833   6.625   4.804  16.901  1.5951 -1.2511 -1.2342
10806TIP3    H253834   6.533   4.702  16.964  1.8445 -0.6555  0.1250
10807TIP3   OH253835   1.734   1.425  12.394 -0.1073  0.4845  0.3011
10807TIP3    H153836   1.824   1.402  12.370 -0.4203 -0.2457 -0.2246
10807TIP3    H253837   1.684   1.345  12.377 -0.8584  0.8945  0.5571
10808TIP3   OH253838   5.260   5.489   5.179  0.2480  0.2914  0.1400
10808TIP3    H153839   5.216   5.412   5.144 -0.0430  0.2806  0.5209
10808TIP3    H253840   5.216   5.506   5.263  0.7513  0.4738  0.3739
10809TIP3   OH253841   1.659   3.353   4.372 -0.2333 -0.5116 -0.0337
10809TIP3    H153842   1.669   3.284   4.306  0.8087 -1.6578  1.2553
10809TIP3    H253843   1.735   3.341   4.430 -1.2300  0.3059  1.4941
10810TIP3   OH253844   2.614   4.250  12.986 -0.3144 -0.0408 -0.7706
10810TIP3    H153845   2.550   4.241  12.915 -0.5221  1.7008 -0.8394
10810TIP3    H253846   2.583   4.189  13.053 -3.2256  2.0577 -0.0001
10811TIP3   OH253847   6.478   3.990  13.808 -0.5449  0.4226 -0.4817
10811TIP3    H153848   6.490   3.938  13.728 -1.6267  0.5206 -0.7172
10811TIP3    H253849   6.421   4.062  13.782 -0.0948  1.0238  0.1518
10812TIP3   OH253850   5.793   1.716   1.055 -0.6032  0.5209  0.4965
10812TIP3    H153851   5.782   1.811   1.050 -1.5311  0.4399  0.8081
10812TIP3    H253852   5.785   1.696   1.148  1.0194  0.2781  0.6208
10813TIP3   OH253853   4.273   3.145   1.712 -0.4679 -0.1867 -0.2424
10813TIP3    H153854   4.182   3.115   1.712 -0.1685 -1.1371 -0.6113
10813TIP3    H253855   4.269   3.235   1.679 -1.1113 -0.8333 -2.0575
10814TIP3   OH253856   2.088   0.875   3.070 -0.2130  0.2288 -0.8931
10814TIP3    H153857   2.118   0.818   3.000  0.8203 -2.8357  1.8298
10814TIP3    H253858   1.992   0.870   3.066 -0.1614 -2.4660 -0.2639
10815TIP3   OH253859   2.661   6.262  16.825 -0.3333 -0.3043  0.4969
10815TIP3    H153860   2.756   6.259  16.814 -0.1687  1.1399  1.3107
10815TIP3    H253861   2.627   6.222  16.745  0.9480 -0.7684  0.1499
10816TIP3   OH253862   5.553   2.898   0.197  0.1924  0.5859  0.3393
10816TIP3    H153863   5.625   2.885   0.135  0.8410 -0.8631  1.3542
10816TIP3    H253864   5.583   2.969   0.254 -0.7067  2.4359 -1.3597
10817TIP3   OH253865   3.925   2.522  15.095  0.4798 -0.7862 -0.0755
10817TIP3    H153866   3.964   2.443  15.131 -0.6125 -1.3009  0.0246
10817TIP3    H253867   3.833   2.518  15.122  0.3895  0.4979 -0.0983
10818TIP3   OH253868   3.284   0.053  13.038 -0.1174 -0.5384 -0.2147
10818TIP3    H153869   3.206   0.011  13.074  0.5573 -1.0997  0.6348
10818TIP3    H253870   3.259   0.145  13.026 -1.0121 -0.7875 -0.2932
10819TIP3   OH253871   5.037   0.281   1.819 -0.2507  0.0100 -0.0201
10819TIP3    H153872   5.120   0.319   1.848  0.1095 -0.1161 -0.8410
10819TIP3    H253873   5.002   0.236   1.897  1.1947 -1.2307 -0.0272
10820TIP3   OH253874   3.215   4.677  13.298  0.6644  0.4786  0.0341
10820TIP3    H153875   3.168   4.736  13.239  1.2054  0.2648 -0.6213
10820TIP3    H253876   3.189   4.590  13.270  0.7965  0.3780  0.2257
10821TIP3   OH253877   5.859   1.219  13.672  0.0330  0.9754  0.2176
10821TIP3    H153878   5.863   1.280  13.746  0.0759  0.0988  0.9533
10821TIP3    H253879   5.862   1.275  13.595 -0.1625  1.9195  0.8795
10822TIP3   OH253880   4.812   4.653  14.909  0.8452 -0.5319 -0.1789
10822TIP3    H153881   4.766   4.591  14.965  0.8029  0.8786  1.4161
10822TIP3    H253882   4.896   4.611  14.891  0.4123 -1.4973 -0.0045
10823TIP3   OH253883   3.532   4.728   1.843  0.1246  0.1676  0.4941
10823TIP3    H153884   3.495   4.660   1.899  1.8555 -0.1544  1.2953
10823TIP3    H253885   3.552   4.684   1.761  0.6028 -0.1415  0.7730
10824TIP3   OH253886   4.475   0.735   1.201  0.0765 -0.0303  0.4751
10824TIP3    H153887   4.470   0.730   1.105 -0.7855  1.2299  0.4277
10824TIP3    H253888   4.436   0.654   1.231 -0.1982 -0.1745 -0.2365
10825TIP3   OH253889   5.000   5.310  15.308  0.5470 -0.0359 -0.4625
10825TIP3    H153890   4.998   5.313  15.212 -1.3033  3.1937 -0.4750
10825TIP3    H253891   4.943   5.382  15.335  0.7874 -1.0135  3.1035
10826TIP3   OH253892   4.295   2.369   1.224  0.4940  0.0521 -0.3483
10826TIP3    H153893   4.351   2.310   1.274  1.4934  0.7850 -0.5722
10826TIP3    H253894   4.356   2.425   1.176 -0.4371  0.2800 -1.3087
10827TIP3   OH253895   5.488   4.952   5.337  0.1504 -0.3840  0.1865
10827TIP3    H153896   5.510   4.953   5.243 -0.1159  0.1749  0.1209
10827TIP3    H253897   5.456   5.041   5.354 -0.8612 -0.8113  0.5600
10828TIP3   OH253898   6.697   1.445  15.682  0.1701  0.0447 -0.1704
10828TIP3    H153899   6.622   1.433  15.624 -0.2028 -0.2036  0.3512
10828TIP3    H253900   6.694   1.538  15.706 -1.0142 -0.2968  1.2075
10829TIP3   OH253901   0.642   5.983   3.836 -0.0644 -0.6226 -0.1518
10829TIP3    H153902   0.591   5.907   3.808 -1.3178  0.5561 -1.2289
10829TIP3    H253903   0.726   5.975   3.790 -0.5322 -0.8947 -0.9713
10830TIP3   OH253904   5.434   2.282  13.227 -0.6583  0.1214 -1.1886
10830TIP3    H153905   5.381   2.297  13.306  0.1027  3.8846 -1.1973
10830TIP3    H253906   5.454   2.188  13.229 -3.6777 -0.6438  1.0935
10831TIP3   OH253907   4.579   5.548   0.022  0.2862  0.4918 -0.5005
10831TIP3    H153908   4.531   5.570   0.102 -2.4822 -2.5481 -1.0979
10831TIP3    H253909   4.605   5.633  -0.014 -2.0022  2.2167  1.5015
10832TIP3   OH253910   6.373   3.004   1.301  0.2757  0.4161  0.2218
10832TIP3    H153911   6.457   3.032   1.266  0.0385 -0.7938 -1.4331
10832TIP3    H253912   6.308   3.048   1.246 -0.1117 -1.0228 -0.5409
10833TIP3   OH253913   4.496   3.167   6.127  0.9125 -0.7242  0.2119
10833TIP3    H153914   4.545   3.143   6.048  2.8202  0.8980  0.8212
10833TIP3    H253915   4.481   3.261   6.119 -2.5252 -1.1469 -0.0686
10834TIP3   OH253916   5.586   5.669   3.120 -0.7736  0.4870  0.1181
10834TIP3    H153917   5.495   5.695   3.128 -0.8194  0.3512  0.0562
10834TIP3    H253918   5.629   5.743   3.077 -0.9822  0.3030 -0.4140
10835TIP3   OH253919   5.023   5.154   1.392  0.0043  0.0836 -0.3467
10835TIP3    H153920   5.070   5.114   1.319  0.1509 -0.2279 -0.0848
10835TIP3    H253921   5.011   5.245   1.366  2.1115  0.5824  0.2236
10836TIP3   OH253922   6.029   4.935  15.892 -0.0693  0.2280  0.2869
10836TIP3    H153923   6.093   4.982  15.945 -0.1874  0.3718  0.3055
10836TIP3    H253924   6.070   4.926  15.806  0.6641 -1.1836  0.7646
10837TIP3   OH253925   6.590   0.310   1.320  0.1921 -0.0805 -0.0654
10837TIP3    H153926   6.617   0.226   1.356 -2.3084 -0.6416  0.7128
10837TIP3    H253927   6.509   0.331   1.367  0.4079  2.4726 -0.6779
10838TIP3   OH253928   6.646   6.680   2.619 -0.7887  0.1508  0.0992
10838TIP3    H153929   6.682   6.724   2.696 -0.2175  2.2360 -1.2492
10838TIP3    H253930   6.556   6.711   2.613 -0.4160  1.1221 -0.8011
10839TIP3   OH253931   6.323   1.297  16.619  0.1278  0.6806  0.5260
10839TIP3    H153932   6.388   1.294  16.548 -0.1291 -0.0592  0.3133
10839TIP3    H253933   6.340   1.218  16.671 -2.1182 -0.8846 -0.9267
10840TIP3   OH253934   3.850   6.542  15.606  0.1287 -0.1878  0.2992
10840TIP3    H153935   3.910   6.534  15.532 -0.3879 -0.1399 -0.1318
10840TIP3    H253936   3.770   6.579  15.569 -0.7131 -1.6769  0.5678
10841TIP3   OH253937   6.628   5.291  16.683  0.2797 -0.0762  0.3858
10841TIP3    H153938   6.590   5.206  16.705 -1.7080  0.6492 -0.0892
10841TIP3    H253939   6.626   5.294  16.587  1.4848  0.0436  0.3419
10842TIP3   OH253940   1.465   0.494   5.727  0.7562  0.0642  0.1469
10842TIP3    H153941   1.414   0.538   5.660  0.9904 -0.6617 -0.5320
10842TIP3    H253942   1.551   0.537   5.724  0.8297 -0.0994 -0.1682
10843TIP3   OH253943   4.979   4.142  15.727 -0.0693  0.2736 -0.4772
10843TIP3    H153944   5.066   4.107  15.710 -0.2359 -0.6984  0.5965
10843TIP3    H253945   4.989   4.237  15.716  1.2449  0.2284  0.1377
10844TIP3   OH253946   2.980   0.540   2.051 -0.3999 -1.0175 -0.3039
10844TIP3    H153947   3.031   0.587   2.116 -2.5919 -1.0631  1.5603
10844TIP3    H253948   2.973   0.451   2.086 -2.1855 -0.8703 -0.2006
10845TIP3   OH253949   3.327   1.820   1.977  0.1902  0.2509  0.3826
10845TIP3    H153950   3.389   1.882   2.014  1.0569 -0.3005 -0.0908
10845TIP3    H253951   3.350   1.815   1.884  0.1762 -0.7929  0.4147
10846TIP3   OH253952   0.781   3.216   4.768  0.2694 -0.2635  0.4052
10846TIP3    H153953   0.825   3.297   4.744 -0.3623  0.1521  0.6337
10846TIP3    H253954   0.725   3.195   4.693 -0.9109  0.4756  1.0565
10847TIP3   OH253955   2.686   1.991  10.643 -1.1561 -0.3455 -0.4437
10847TIP3    H153956   2.605   1.955  10.607 -0.2052 -1.1373 -1.9152
10847TIP3    H253957   2.745   1.915  10.647  0.2390  0.6144 -1.6429
10848TIP3   OH253958   3.001   5.976   5.727  0.2221 -0.4351 -0.1040
10848TIP3    H153959   2.994   5.972   5.822  0.4587  0.6044 -0.0319
10848TIP3    H253960   3.060   6.050   5.710  0.7872 -1.0691 -1.0384
10849TIP3   OH253961   1.680   3.557  16.333  0.2336 -0.2894  0.0362
10849TIP3    H153962   1.737   3.480  16.341 -0.5420 -0.7273  1.7427
10849TIP3    H253963   1.698   3.609  16.411  1.1422  1.5891 -1.3497
10850TIP3   OH253964   5.439   0.557  12.279  0.2091  0.7670 -0.2302
10850TIP3    H153965   5.465   0.515  12.196  1.1907  0.1657  0.3600
10850TIP3    H253966   5.427   0.484  12.340  0.2578  1.2478  0.3590
10851TIP3   OH253967   6.277   3.342  12.975 -0.1220 -0.0801  0.5237
10851TIP3    H153968   6.263   3.361  12.883  1.0965  0.9720  0.5279
10851TIP3    H253969   6.195   3.368  13.018 -1.5967 -2.7520 -0.4894
10852TIP3   OH253970   1.967   1.606   3.781  0.2799  0.1904  0.1685
10852TIP3    H153971   1.965   1.650   3.866  1.6428  1.6540 -0.5065
10852TIP3    H253972   1.901   1.653   3.729 -0.5542 -0.7042  0.3847
10853TIP3   OH253973   2.443   1.711  15.291 -0.3940  0.1150  0.3624
10853TIP3    H153974   2.460   1.653  15.366 -1.7337 -2.2951 -1.0721
10853TIP3    H253975   2.349   1.704  15.277 -0.1734  0.5252 -1.5304
10854TIP3   OH253976   6.288   1.054  12.730  0.1909 -0.1061 -0.1977
10854TIP3    H153977   6.265   0.963  12.711 -1.6390  0.2837 -0.1010
10854TIP3    H253978   6.211   1.104  12.702  0.2916  1.2049  1.6532
10855TIP3   OH253979   1.683   3.443  15.082  0.3221  0.5611 -0.0986
10855TIP3    H153980   1.636   3.474  15.159  0.4029 -0.4311  0.3583
10855TIP3    H253981   1.640   3.488  15.009  0.4913  1.8033  0.5353
10856TIP3   OH253982   1.311   6.476  10.958  0.3723  0.0701  0.6042
10856TIP3    H153983   1.254   6.498  11.031  1.4828  1.7122  1.0388
10856TIP3    H253984   1.299   6.548  10.895 -0.5193 -1.2740 -0.8348
10857TIP3   OH253985   2.212   5.185  10.329  0.4143  0.5449 -0.6144
10857TIP3    H153986   2.305   5.191  10.354  0.3143 -2.8366  1.1697
10857TIP3    H253987   2.170   5.258  10.374  1.6880 -0.1049  1.7676
10858TIP3   OH253988   5.218   5.328  15.764  0.2054 -0.1184  0.4187
10858TIP3    H153989   5.314   5.330  15.764  0.2013  1.3165  1.4037
10858TIP3    H253990   5.196   5.313  15.672  1.3985  2.2603 -0.3664
10859TIP3   OH253991   2.590   6.531   1.960  0.1074  0.7427 -0.0812
10859TIP3    H153992   2.613   6.624   1.950  0.2375  0.6499 -0.6745
10859TIP3    H253993   2.523   6.531   2.028  0.5337  1.2101  0.3544
10860TIP3   OH253994   2.755   6.571  15.377 -0.2927 -0.2363 -0.4136
10860TIP3    H153995   2.768   6.480  15.350 -1.6131 -0.5860  0.0499
10860TIP3    H253996   2.781   6.623  15.300  2.2016 -0.8661 -0.0786
10861TIP3   OH253997   2.094   0.382   4.266  0.3512  0.5136 -0.7105
10861TIP3    H153998   2.062   0.298   4.299 -1.0169  0.7093 -1.4740
10861TIP3    H253999   2.054   0.447   4.324  1.7869  0.6526  0.1798
10862TIP3   OH254000   4.457   5.083  12.517  0.0113 -0.0723 -0.1210
10862TIP3    H154001   4.426   5.043  12.436 -0.2258  2.6260 -1.4923
10862TIP3    H254002   4.434   5.176  12.508 -0.5616  0.2690  3.3277
10863TIP3   OH254003   6.758   6.749  15.367  0.1286 -0.4395  0.3352
10863TIP3    H154004   6.838   6.702  15.341 -1.1575 -1.9584 -1.0765
10863TIP3    H254005   6.762   6.832  15.319  0.0259 -1.2598 -1.1331
10864TIP3   OH254006   5.131   6.512   2.370 -0.0521 -0.2445 -0.4835
10864TIP3    H154007   5.212   6.508   2.321  1.7343 -1.5843  2.2967
10864TIP3    H254008   5.149   6.573   2.442 -1.8171  0.0977 -0.2746
10865TIP3   OH254009   4.964   1.858  13.789  0.2649 -0.3717 -0.0968
10865TIP3    H154010   4.874   1.831  13.807  0.3675 -0.7853 -0.1940
10865TIP3    H254011   4.973   1.943  13.832 -0.3332 -0.0881 -0.5328
10866TIP3   OH254012   3.440   3.731   1.997 -0.1518  0.1448  0.6460
10866TIP3    H154013   3.459   3.765   2.085  2.5762  1.4757 -0.3786
10866TIP3    H254014   3.377   3.793   1.961  0.3978  0.8497  0.8797
10867TIP3   OH254015   0.686   5.249  14.565 -0.0634  0.6371 -0.6307
10867TIP3    H154016   0.763   5.281  14.612 -0.6563  0.9776  0.1225
10867TIP3    H254017   0.617   5.246  14.631 -0.3846 -0.8589 -0.9987
10868TIP3   OH254018   1.238   6.475  16.248  0.3646 -0.5261  0.0032
10868TIP3    H154019   1.264   6.556  16.291  0.1748 -0.3744 -0.1663
10868TIP3    H254020   1.268   6.406  16.307  1.5587 -0.3761 -0.3909
10869TIP3   OH254021   4.209   1.348   1.579  0.0010  0.2710 -0.5961
10869TIP3    H154022   4.160   1.265   1.581  0.1549  0.1427  2.2772
10869TIP3    H254023   4.299   1.322   1.598  0.0980  1.0710  0.0533
10870TIP3   OH254024   6.157   2.684   1.968 -0.0931 -0.7647  0.8541
10870TIP3    H154025   6.205   2.601   1.965  1.0638 -0.1334  1.0483
10870TIP3    H254026   6.162   2.717   1.878  0.4048 -0.3956  1.0136
10871TIP3   OH254027   2.357   6.583  11.396 -0.3096 -0.0744  0.5272
10871TIP3    H154028   2.431   6.541  11.353  0.8271  1.5134  0.8442
10871TIP3    H254029   2.357   6.546  11.484 -0.3695 -0.6423  0.2892
10872TIP3   OH254030   2.629   3.289  13.288  0.6246  0.2380  0.1354
10872TIP3    H154031   2.681   3.220  13.329  0.0085 -0.6551 -0.5459
10872TIP3    H254032   2.657   3.290  13.197 -0.2018  0.0850 -0.1245
10873TIP3   OH254033   1.410   0.964  14.473 -0.1956 -0.3610 -0.2308
10873TIP3    H154034   1.469   0.920  14.411  0.1104  0.3184 -0.4352
10873TIP3    H254035   1.433   0.927  14.558 -0.7877 -1.4900 -0.5406
10874TIP3   OH254036   0.646   5.393   3.212 -0.5312  0.5134 -0.2898
10874TIP3    H154037   0.658   5.299   3.226 -0.8197  0.6453  0.9647
10874TIP3    H254038   0.697   5.412   3.133 -2.8759 -1.2092 -2.3669
10875TIP3   OH254039   1.571   5.912   1.989  0.5276  0.1611  0.4132
10875TIP3    H154040   1.564   5.823   2.025  0.9178 -0.3775 -0.7703
10875TIP3    H254041   1.492   5.956   2.018  0.5964 -0.3922  1.4932
10876TIP3   OH254042   0.099   3.067   0.237  0.1797 -0.5613 -0.3702
10876TIP3    H154043   0.147   2.991   0.202 -1.3053 -0.7907 -2.0589
10876TIP3    H254044   0.114   3.136   0.173 -1.0369 -0.3964 -0.5011
10877TIP3   OH254045   3.476   2.407  16.660  0.4297  0.4206 -0.4301
10877TIP3    H154046   3.484   2.363  16.744 -1.1390  1.1452  0.1366
10877TIP3    H254047   3.399   2.366  16.619 -1.5687  3.0399  0.4504
10878TIP3   OH254048   0.843   2.994   1.137 -0.0189 -0.4845  0.2576
10878TIP3    H154049   0.875   2.942   1.212 -2.3245  0.1434  1.7696
10878TIP3    H254050   0.749   2.976   1.134 -0.1847  0.4882 -1.7603
10879TIP3   OH254051   2.677   2.806  16.265 -0.6207 -0.4307  0.0692
10879TIP3    H154052   2.639   2.719  16.280 -0.0828 -1.0520 -1.9380
10879TIP3    H254053   2.608   2.854  16.219  0.0457 -0.6906 -1.2182
10880TIP3   OH254054   3.607   0.343  10.701  0.0767 -0.1519  0.1209
10880TIP3    H154055   3.524   0.327  10.657  0.4956  1.6245 -1.4338
10880TIP3    H254056   3.673   0.336  10.632  1.1133 -0.4196  1.1034
10881TIP3   OH254057   3.315   2.760   5.475 -0.2735  0.7415  0.5904
10881TIP3    H154058   3.394   2.790   5.520  0.5564 -0.5801  0.0679
10881TIP3    H254059   3.298   2.673   5.512  0.2023 -0.2075 -1.3160
10882TIP3   OH254060   5.783   0.138  14.935 -0.1322 -0.0583 -0.0786
10882TIP3    H154061   5.745   0.178  15.013  1.5304  2.2035 -0.3329
10882TIP3    H254062   5.794   0.210  14.873  0.4586 -1.4263 -1.6483
10883TIP3   OH254063   3.750   0.951  13.451 -0.4217 -0.1609  0.0249
10883TIP3    H154064   3.692   1.021  13.421 -0.0705  0.2164  0.2269
10883TIP3    H254065   3.773   0.904  13.371 -1.1260 -0.4123 -0.0441
10884TIP3   OH254066   1.832   2.675  14.177  0.0718 -0.1344  0.4059
10884TIP3    H154067   1.753   2.693  14.126 -0.1044  0.5050  0.8851
10884TIP3    H254068   1.892   2.634  14.115 -0.8005 -1.0543  0.1505
10885TIP3   OH254069   0.289   5.757   6.377  0.0492 -0.3904  0.9314
10885TIP3    H154070   0.244   5.674   6.359 -1.2365  0.3682  0.5250
10885TIP3    H254071   0.235   5.800   6.443  0.8562  0.0152  1.3370
10886TIP3   OH254072   6.225   1.660   2.887  0.0838 -0.6056 -0.0092
10886TIP3    H154073   6.177   1.708   2.819 -0.2405  0.6875  1.0903
10886TIP3    H254074   6.264   1.586   2.840 -0.7948 -0.2147 -1.4423
10887TIP3   OH254075   4.468   1.813  16.471 -0.2009  0.4994 -0.4145
10887TIP3    H154076   4.538   1.876  16.451 -0.1816  0.4608 -0.4705
10887TIP3    H254077   4.448   1.773  16.386 -1.0540  1.2850 -0.5871
10888TIP3   OH254078   4.136   5.397  15.115  0.2148  0.3961  0.3074
10888TIP3    H154079   4.189   5.332  15.069  0.1551  0.0538  0.7181
10888TIP3    H254080   4.148   5.478  15.065  1.4978  0.4448  0.6736
10889TIP3   OH254081   4.303   6.474  15.157 -0.0431 -0.0189  0.0356
10889TIP3    H154082   4.212   6.456  15.135  0.1597 -1.8706  0.5740
10889TIP3    H254083   4.333   6.533  15.087 -0.9740 -1.3102 -1.5271
10890TIP3   OH254084   6.807   4.764   5.004  0.0028  0.4419  0.3822
10890TIP3    H154085   6.741   4.697   4.984 -0.5386  1.2814 -0.7332
10890TIP3    H254086   6.856   4.727   5.077 -0.6746 -0.9091  0.1945
10891TIP3   OH254087   5.163   3.562  11.986 -0.2134 -0.8168 -0.5964
10891TIP3    H154088   5.246   3.579  12.031 -1.2561  0.6726  0.8604
10891TIP3    H254089   5.122   3.492  12.036 -1.3748  0.8431  0.8924
10892TIP3   OH254090   1.239   4.826   0.534 -0.2996 -0.1962 -0.0798
10892TIP3    H154091   1.164   4.779   0.498 -1.0756 -0.0429  1.2681
10892TIP3    H254092   1.314   4.794   0.484 -1.4704  1.2785 -3.0397
10893TIP3   OH254093   0.932   1.144  15.887 -0.1078  0.1813 -0.4798
10893TIP3    H154094   1.012   1.181  15.852 -0.3141 -0.8825 -2.1815
10893TIP3    H254095   0.961   1.072  15.943  0.1300 -0.9980 -2.0657
10894TIP3   OH254096   1.537   3.966  10.984  0.3221  0.3573 -0.8091
10894TIP3    H154097   1.484   4.026  11.037  0.8344 -0.6656  0.9537
10894TIP3    H254098   1.627   3.994  11.000  0.5365 -0.5651 -0.3511
10895TIP3   OH254099   4.408   4.228  10.314  0.4363  0.4351  0.7277
10895TIP3    H154100   4.399   4.194  10.403 -1.9604 -0.2958  0.2890
10895TIP3    H254101   4.358   4.310  10.314  0.8442  0.6924  0.1917
10896TIP3   OH254102   0.339   4.536   0.155 -0.0598 -0.4854 -0.0884
10896TIP3    H154103   0.290   4.614   0.180 -0.5785 -1.0869  0.8104
10896TIP3    H254104   0.339   4.537   0.059  0.1625  0.7436 -0.0985
10897TIP3   OH254105   3.706   6.265   5.617 -0.5702  0.0515  0.3501
10897TIP3    H154106   3.759   6.314   5.681 -1.3052 -0.6890  1.5713
10897TIP3    H254107   3.746   6.284   5.533  2.0372 -0.9398  1.2662
10898TIP3   OH254108   2.289   1.427  15.271 -0.0960 -0.2322 -0.0203
10898TIP3    H154109   2.230   1.355  15.248  0.0966 -0.0588 -1.1431
10898TIP3    H254110   2.357   1.387  15.325 -0.5647 -0.6819  0.2373
10899TIP3   OH254111   2.734   4.930   0.327  0.4324 -0.2549  0.0801
10899TIP3    H154112   2.669   4.996   0.302  0.1170 -0.2939  0.7522
10899TIP3    H254113   2.792   4.923   0.252 -0.4039 -0.2949 -0.5719
10900TIP3   OH254114   1.161   4.083  14.819 -0.0833  0.1900 -0.2053
10900TIP3    H154115   1.075   4.049  14.794  0.0247  0.7632 -1.4148
10900TIP3    H254116   1.182   4.037  14.900 -1.4699 -0.0611  0.0438
10901TIP3   OH254117   4.341   5.353   1.472  0.9459 -0.0791 -0.2042
10901TIP3    H154118   4.410   5.350   1.405 -0.4955 -0.1910 -1.7443
10901TIP3    H254119   4.328   5.446   1.488  0.9498 -0.0326 -0.4613
10902TIP3   OH254120   5.755   4.566  11.993 -0.0333  0.2803  0.1263
10902TIP3    H154121   5.660   4.560  12.006 -0.2207  1.8516 -0.2514
10902TIP3    H254122   5.789   4.595  12.078  0.1535 -0.5644  0.3455
10903TIP3   OH254123   6.388   5.611  15.474 -0.5325 -0.1807 -0.4768
10903TIP3    H154124   6.299   5.586  15.497  0.2315 -1.9377  0.7447
10903TIP3    H254125   6.401   5.576  15.386 -0.7711 -0.6610 -0.3233
10904TIP3   OH254126   2.786   4.919  15.308 -0.2014  0.5117 -0.0439
10904TIP3    H154127   2.813   4.863  15.235 -1.4498  0.0852 -0.2167
10904TIP3    H254128   2.867   4.951  15.346  0.4741  0.5899 -1.5080
10905TIP3   OH254129   6.130   0.623  16.217  0.0528 -0.0909  0.2677
10905TIP3    H154130   6.064   0.573  16.264 -0.1214  0.7939  0.9993
10905TIP3    H254131   6.184   0.557  16.172 -0.1523 -0.9170  1.2110
10906TIP3   OH254132   1.776   2.684  15.270  0.1663  0.4311 -0.1315
10906TIP3    H154133   1.851   2.696  15.329  0.2252 -0.4152 -0.0103
10906TIP3    H254134   1.711   2.637  15.323  0.0195  0.1191 -0.5822
10907TIP3   OH254135   3.512   1.990  12.800  0.4920  0.4402  0.1585
10907TIP3    H154136   3.573   2.005  12.871 -1.8591  1.0307  2.1961
10907TIP3    H254137   3.449   1.926  12.835 -1.8298  2.1555 -0.6053
10908TIP3   OH254138   2.124   3.761  12.854 -0.4745 -0.0076  0.9828
10908TIP3    H154139   2.101   3.741  12.763 -1.8309  0.1514  1.2700
10908TIP3    H254140   2.040   3.772  12.898  0.0122 -2.8157  2.9052
10909TIP3   OH254141   0.595   3.294  13.606  0.2784 -0.2834  0.1543
10909TIP3    H154142   0.669   3.345  13.638 -1.0302  1.3466  0.7228
10909TIP3    H254143   0.583   3.225  13.671  1.1239 -0.4093  0.1815
10910TIP3   OH254144   1.318   5.333   5.915 -0.1255 -0.4722  0.1664
10910TIP3    H154145   1.404   5.348   5.876 -0.2377 -0.2792 -0.0075
10910TIP3    H254146   1.335   5.273   5.988  0.5846  1.5457  1.7915
10911TIP3   OH254147   5.386   5.566  11.526 -0.0221 -0.2390 -0.2210
10911TIP3    H154148   5.371   5.527  11.612  0.4026 -1.2508 -0.5963
10911TIP3    H254149   5.481   5.566  11.515 -0.0180  0.6886 -0.3437
10912TIP3   OH254150   3.210   0.321  12.995  0.5466  0.2117 -0.7619
10912TIP3    H154151   3.167   0.323  12.910  0.3332 -0.3887 -0.6777
10912TIP3    H254152   3.280   0.386  12.989 -0.5266  1.3972 -0.8194
10913TIP3   OH254153   1.522   0.580   1.628 -0.0878  0.0004  0.0993
10913TIP3    H154154   1.426   0.580   1.635 -0.0691  0.3234  0.3716
10913TIP3    H254155   1.549   0.502   1.676 -0.2196 -0.1239 -0.0279
10914TIP3   OH254156   0.006   4.180   3.730 -0.9271  0.3825 -0.0097
10914TIP3    H154157   0.014   4.086   3.715 -0.0253  0.3230  0.7455
10914TIP3    H254158   0.090   4.216   3.702 -1.2603  0.9718 -0.2752
10915TIP3   OH254159   5.035   5.274  13.941 -0.2396  0.0690 -0.4268
10915TIP3    H154160   4.965   5.270  14.006 -0.9810 -0.9206 -1.2459
10915TIP3    H254161   5.089   5.197  13.959 -0.1703  0.0582 -0.6687
10916TIP3   OH254162   4.796   4.814  16.760 -0.3369 -0.7700  0.2808
10916TIP3    H154163   4.825   4.869  16.833 -2.2023  1.7817 -0.8040
10916TIP3    H254164   4.715   4.774  16.791 -0.3488 -0.8630  0.1284
10917TIP3   OH254165   2.096   4.574  11.256 -0.4491  0.2080  0.3280
10917TIP3    H154166   2.093   4.655  11.307 -0.9254  0.5099 -0.1667
10917TIP3    H254167   2.084   4.603  11.165 -2.1254 -0.5371  0.2767
10918TIP3   OH254168   2.283   3.561  13.021  0.6746 -0.2876  0.7531
10918TIP3    H154169   2.237   3.590  12.942  1.4493 -0.9282  0.0451
10918TIP3    H254170   2.231   3.486  13.052  0.1100  0.2533  1.1185
10919TIP3   OH254171   3.767   1.463   4.551  0.8944 -0.0032  0.1948
10919TIP3    H154172   3.698   1.442   4.488  1.3693  1.6169 -0.9627
10919TIP3    H254173   3.725   1.521   4.614  0.4879 -1.4043  1.2385
10920TIP3   OH254174   1.863   3.633  10.857  0.0735 -0.4785 -0.0300
10920TIP3    H154175   1.952   3.597  10.860  0.3084 -0.2374 -2.2741
10920TIP3    H254176   1.816   3.574  10.798 -0.8361  0.2475 -0.0435
10921TIP3   OH254177   2.949   1.052   4.285 -0.0603 -0.1314 -0.4077
10921TIP3    H154178   2.894   0.982   4.321  0.1756 -1.4875 -2.5379
10921TIP3    H254179   3.035   1.038   4.326 -0.6255  0.5065  1.0740
10922TIP3   OH254180   3.461   5.889  14.731  0.3989 -0.3862 -0.4191
10922TIP3    H154181   3.392   5.954  14.716  0.5351  0.2314  1.3452
10922TIP3    H254182   3.541   5.940  14.736  0.6151 -0.7691  0.1749
10923TIP3   OH254183   3.977   0.490   3.106  0.3852  0.6276  0.1185
10923TIP3    H154184   4.018   0.576   3.100  1.0136  0.3645  0.6066
10923TIP3    H254185   3.987   0.464   3.197  0.8099 -0.2550 -0.1617
10924TIP3   OH254186   1.464   2.518  11.757  0.3378 -0.0338 -0.3713
10924TIP3    H154187   1.507   2.589  11.804 -0.4593  1.2860 -1.5701
10924TIP3    H254188   1.464   2.445  11.819  0.1929  1.3385  1.3130
10925TIP3   OH254189   0.339   2.955  16.786  0.1717  0.8360 -0.6638
10925TIP3    H154190   0.403   2.974  16.717 -0.8393  0.7304 -1.6441
10925TIP3    H254191   0.288   2.882  16.753 -1.5404  1.9734 -0.6267
10926TIP3   OH254192   3.418   4.791  12.412  0.3239  0.2758  0.1631
10926TIP3    H154193   3.425   4.791  12.316 -1.6409 -0.2978 -0.0197
10926TIP3    H254194   3.420   4.883  12.436  0.1898  0.4569 -0.5000
10927TIP3   OH254195   3.148   1.620  11.787  0.4514 -0.2718 -0.0069
10927TIP3    H154196   3.206   1.695  11.799  0.5521 -0.2781 -0.4265
10927TIP3    H254197   3.188   1.570  11.716  1.1936 -1.5294  1.2521
10928TIP3   OH254198   2.698   3.655   5.260  0.0097  0.0936 -0.4645
10928TIP3    H154199   2.702   3.739   5.306 -0.2709  0.5217 -1.2171
10928TIP3    H254200   2.615   3.657   5.213  0.4366 -0.2060 -1.2456
10929TIP3   OH254201   6.295   6.485  14.146 -0.2544 -0.0218 -0.1637
10929TIP3    H154202   6.223   6.443  14.099 -0.5873  0.9496 -0.5533
10929TIP3    H254203   6.364   6.418  14.150 -0.4526 -0.3326 -1.4891
10930TIP3   OH254204   2.798   0.718  14.819 -0.2629 -0.2351 -0.3121
10930TIP3    H154205   2.882   0.705  14.776 -1.9307 -0.9285 -3.7183
10930TIP3    H254206   2.774   0.808  14.797 -1.9319 -1.1394 -2.6389
10931TIP3   OH254207   6.130   0.404   5.982 -0.6584 -0.0495 -0.0106
10931TIP3    H154208   6.084   0.331   6.023  1.0338 -1.5241 -0.6001
10931TIP3    H254209   6.205   0.420   6.039  0.9068 -1.1582 -1.6332
10932TIP3   OH254210   0.835   3.314   0.092  0.3120 -0.3155 -0.0078
10932TIP3    H154211   0.762   3.335   0.033 -0.1038  1.1141  0.9735
10932TIP3    H254212   0.794   3.276   0.169  0.9410 -3.3818 -1.0540
10933TIP3   OH254213   0.593   3.309  10.835 -0.0637  0.0472  0.2215
10933TIP3    H154214   0.605   3.404  10.844 -0.3237  0.0128  0.9356
10933TIP3    H254215   0.520   3.288  10.892 -0.9374 -0.3824 -0.9996
10934TIP3   OH254216   4.745   5.489   2.860  0.5869  0.7146  0.6288
10934TIP3    H154217   4.748   5.539   2.942 -0.3662  0.1494  1.0259
10934TIP3    H254218   4.736   5.398   2.888 -1.5637  0.6520 -0.0894
10935TIP3   OH254219   1.475   5.924   0.765  0.3283 -0.2720 -0.3191
10935TIP3    H154220   1.399   5.889   0.717  0.5571  0.5901 -1.3438
10935TIP3    H254221   1.549   5.909   0.707  1.0479 -1.5134  0.8679
10936TIP3   OH254222   0.378   5.505   2.130 -0.1648 -0.6890  0.2608
10936TIP3    H154223   0.377   5.601   2.138  0.4855 -0.7607  1.3704
10936TIP3    H254224   0.286   5.479   2.133 -0.3079 -0.1486  0.5844
10937TIP3   OH254225   5.069   0.833   2.654  0.1691  0.4433 -0.3481
10937TIP3    H154226   5.043   0.899   2.717  0.3589 -0.1989  0.4222
10937TIP3    H254227   5.052   0.750   2.698 -0.2574 -0.0226 -1.3773
10938TIP3   OH254228   5.354   3.932  14.671  0.4207 -0.4093  0.5583
10938TIP3    H154229   5.439   3.919  14.713  1.2389 -0.2184 -0.9985
10938TIP3    H254230   5.297   3.867  14.713  1.5702 -1.1896  0.9602
10939TIP3   OH254231   5.094   0.559  15.556  0.0468 -0.1163  0.2114
10939TIP3    H154232   5.168   0.586  15.611  1.4068 -0.4746 -1.3478
10939TIP3    H254233   5.108   0.465  15.542 -1.7518 -0.6007  1.3668
10940TIP3   OH254234   5.876   1.854   6.291 -0.5236 -0.3854 -0.3017
10940TIP3    H154235   5.914   1.768   6.275 -0.4463 -0.0854 -1.8227
10940TIP3    H254236   5.782   1.842   6.274 -0.8536 -0.6304  1.4663
10941TIP3   OH254237   1.027   5.638   4.330 -0.1670 -0.2123 -0.4531
10941TIP3    H154238   1.112   5.665   4.297 -0.8159 -0.6204 -2.5837
10941TIP3    H254239   0.985   5.720   4.357  0.6903  0.0429  0.1359
10942TIP3   OH254240   3.369   2.336   0.977  0.1499 -0.1687 -0.0831
10942TIP3    H154241   3.461   2.364   0.979  0.5662 -1.5312  1.4394
10942TIP3    H254242   3.322   2.404   1.026  0.4029  0.2724 -0.4383
10943TIP3   OH254243   5.439   1.274   4.878 -0.3315  0.0326 -0.3754
10943TIP3    H154244   5.438   1.302   4.970 -1.3616  0.9795 -0.6575
10943TIP3    H254245   5.532   1.273   4.855  0.0351 -1.3939  1.0079
10944TIP3   OH254246   2.050   2.249  15.768  0.1688  0.1822  0.5499
10944TIP3    H154247   2.137   2.276  15.797 -0.2524  0.4890  1.5685
10944TIP3    H254248   2.022   2.317  15.707  1.0079 -0.3953 -0.5064
10945TIP3   OH254249   6.432   3.294   4.630  0.0375 -0.0039 -0.3390
10945TIP3    H154250   6.477   3.209   4.628  0.1676  0.0758 -1.1124
10945TIP3    H254251   6.436   3.321   4.722  1.0494 -0.2829 -0.2857
10946TIP3   OH254252   1.139   4.454  12.094 -1.0548  0.0122 -0.3247
10946TIP3    H154253   1.058   4.486  12.133 -1.1197  0.2283 -0.6325
10946TIP3    H254254   1.135   4.482  12.002 -0.5262  0.2316 -0.2894
10947TIP3   OH254255   4.450   1.017  15.988  0.4385 -0.8147 -0.2390
10947TIP3    H154256   4.485   0.929  15.999  1.2245 -0.3797  0.9943
10947TIP3    H254257   4.475   1.063  16.069  0.0202  0.5212 -0.8408
10948TIP3   OH254258   6.144   0.860  12.229  0.1519 -0.1366 -0.5118
10948TIP3    H154259   6.116   0.930  12.287 -0.3913  0.2532 -1.2291
10948TIP3    H254260   6.213   0.899  12.174 -0.2611 -0.1068 -1.0194
10949TIP3   OH254261   0.322   4.522  14.341  0.0995  0.2485 -0.6809
10949TIP3    H154262   0.387   4.468  14.296 -0.1092  0.1708 -0.8893
10949TIP3    H254263   0.366   4.551  14.420 -0.3074 -1.5395  0.2639
10950TIP3   OH254264   5.200   6.728   4.197 -0.4744  0.3430 -0.4437
10950TIP3    H154265   5.197   6.708   4.104 -0.1502 -0.2891 -0.3246
10950TIP3    H254266   5.293   6.745   4.215 -0.2190 -1.4469  0.1343
10951TIP3   OH254267   5.015   2.165  15.229 -0.3838 -0.8456  0.0624
10951TIP3    H154268   4.939   2.196  15.278 -1.3966  2.1422 -2.9976
10951TIP3    H254269   4.982   2.149  15.141  2.6732  2.6523 -2.0050
10952TIP3   OH254270   6.766   3.291   5.480  1.1240 -0.0007 -0.5164
10952TIP3    H154271   6.765   3.294   5.575  0.5865  0.1218 -0.5248
10952TIP3    H254272   6.761   3.383   5.453 -0.1995 -0.1010 -0.6663
10953TIP3   OH254273   6.456   6.304  12.210 -0.5530  0.0444 -0.6261
10953TIP3    H154274   6.481   6.369  12.144 -1.4581  0.6527 -0.3932
10953TIP3    H254275   6.412   6.235  12.160 -0.8065  0.2722 -0.7198
10954TIP3   OH254276   6.707   2.565   3.188 -0.4014 -0.0320  0.2343
10954TIP3    H154277   6.635   2.578   3.126 -0.3655 -2.8354 -0.5472
10954TIP3    H254278   6.666   2.576   3.274 -1.3349  0.2121 -0.2295
10955TIP3   OH254279   4.488   1.731   6.097  0.3592 -0.2043 -0.1145
10955TIP3    H154280   4.403   1.731   6.053  0.3732  0.9154 -0.1709
10955TIP3    H254281   4.550   1.760   6.030  0.5082  0.6905  0.4008
10956TIP3   OH254282   4.604   0.385  16.421 -0.3214  0.7279 -0.3893
10956TIP3    H154283   4.537   0.343  16.475  0.5920 -1.5076 -0.8808
10956TIP3    H254284   4.577   0.476  16.416 -2.2540  0.2994  1.0312
10957TIP3   OH254285   6.583   2.358  16.883  0.6428 -0.2188  0.1454
10957TIP3    H154286   6.571   2.341  16.976 -0.7426  0.2337  0.0771
10957TIP3    H254287   6.678   2.357  16.870  0.8239 -1.0587  1.4029
10958TIP3   OH254288   2.778   5.171   2.777 -0.2027  0.3021  0.2969
10958TIP3    H154289   2.848   5.204   2.720 -0.7160  1.7526  0.4605
10958TIP3    H254290   2.698   5.187   2.727 -0.5412  0.2185  0.8150
10959TIP3   OH254291   0.620   5.549  14.643 -0.4619  0.5621 -0.0365
10959TIP3    H154292   0.665   5.608  14.583 -0.8023  2.6820  1.6608
10959TIP3    H254293   0.610   5.467  14.594  0.6061  1.6903 -2.2733
10960TIP3   OH254294   6.781   3.858   4.012 -0.7391  0.2083  0.8088
10960TIP3    H154295   6.780   3.950   3.985 -0.7451  1.0705  3.4325
10960TIP3    H254296   6.777   3.861   4.108 -1.4548 -2.5632  0.9605
10961TIP3   OH254297   4.227   5.151  11.716  0.4381 -0.6861  0.5775
10961TIP3    H154298   4.237   5.086  11.785 -0.6837 -1.2611  0.2263
10961TIP3    H254299   4.132   5.168  11.713  0.4440 -0.7868 -0.8959
10962TIP3   OH254300   2.899   3.337  15.402  0.4369  0.5995  0.4085
10962TIP3    H154301   2.883   3.407  15.339 -1.5251  0.2749  0.4940
10962TIP3    H254302   2.992   3.345  15.423  1.2052  0.7101 -2.5405
10963TIP3   OH254303   5.185   5.312  16.780 -0.8172 -0.0775 -0.2018
10963TIP3    H154304   5.171   5.405  16.801  0.2774  0.0357  0.0605
10963TIP3    H254305   5.187   5.268  16.865  1.2754  0.0449 -0.1538
10964TIP3   OH254306   4.719   2.866   1.281 -0.6415  0.2100 -0.0679
10964TIP3    H154307   4.807   2.884   1.247 -0.9974 -0.7896 -1.6173
10964TIP3    H254308   4.661   2.893   1.210 -1.4596 -1.1647  0.0484
10965TIP3   OH254309   6.262   4.287  16.024  0.0478  0.3458 -0.4932
10965TIP3    H154310   6.331   4.348  16.049 -0.2967  0.2329  0.8492
10965TIP3    H254311   6.292   4.247  15.943  1.3604  0.5923 -0.1423
10966TIP3   OH254312   1.013   2.591   3.883 -0.2342  0.0122 -0.7518
10966TIP3    H154313   0.965   2.621   3.806  0.0948 -0.7117 -1.2528
10966TIP3    H254314   1.061   2.668   3.913 -0.9625  0.4957 -0.8063
10967TIP3   OH254315   0.931   0.859  11.881 -0.2982 -0.4883  0.2861
10967TIP3    H154316   0.956   0.946  11.850 -0.1847 -0.3364  0.7942
10967TIP3    H254317   0.918   0.870  11.975 -3.4943 -0.2553 -0.0772
10968TIP3   OH254318   6.402   0.563   5.213 -0.0735  0.0845 -0.3977
10968TIP3    H154319   6.383   0.500   5.282 -0.3127  0.1289 -0.4209
10968TIP3    H254320   6.396   0.648   5.256 -1.1057  0.1624 -0.6571
10969TIP3   OH254321   2.507   3.534  13.357 -0.1369  0.3117 -0.2724
10969TIP3    H154322   2.439   3.508  13.419 -0.1871 -0.4104 -0.6246
10969TIP3    H254323   2.552   3.453  13.334 -0.0003  0.5952 -1.0421
10970TIP3   OH254324   0.387   2.694  11.451  0.2207 -0.1422  0.1728
10970TIP3    H154325   0.324   2.766  11.457  0.2718 -0.1271  0.5517
10970TIP3    H254326   0.333   2.615  11.449  0.1362 -0.0721 -0.9086
10971TIP3   OH254327   3.646   3.483   4.697  0.6662  0.0172  0.1698
10971TIP3    H154328   3.693   3.400   4.690  0.1564 -0.2683  0.0377
10971TIP3    H254329   3.701   3.538   4.754  1.3327 -0.1709 -0.2868
10972TIP3   OH254330   2.483   2.247   2.556  0.2299 -0.3288 -0.2221
10972TIP3    H154331   2.470   2.168   2.608 -0.3742 -0.3627 -0.4224
10972TIP3    H254332   2.500   2.315   2.620 -0.9697 -0.2763  0.0623
10973TIP3   OH254333   5.884   1.554  16.114  0.4745 -0.2088  0.0847
10973TIP3    H154334   5.811   1.605  16.080 -0.4228 -0.1931  1.9470
10973TIP3    H254335   5.886   1.475  16.060 -1.0417 -0.2980  0.1261
10974TIP3   OH254336   0.631   1.958  15.315  0.3989  0.5170  0.0835
10974TIP3    H154337   0.568   2.030  15.330  0.6308  1.5353 -3.0442
10974TIP3    H254338   0.581   1.893  15.266  1.2351  0.4391 -0.6911
10975TIP3   OH254339   1.443   6.402   4.140 -1.1552  0.1757  0.0116
10975TIP3    H154340   1.425   6.310   4.153  0.0897 -0.1508 -0.3722
10975TIP3    H254341   1.437   6.441   4.228 -0.0775 -0.5959  0.4552
10976TIP3   OH254342   1.530   5.903   4.003 -0.3207 -0.1604 -0.1236
10976TIP3    H154343   1.453   5.898   3.947 -1.0712  0.5975  0.7876
10976TIP3    H254344   1.573   5.818   3.994 -1.2228 -0.5660 -0.7090
10977TIP3   OH254345   3.187   0.221   5.425  0.1255  0.2737 -0.6318
10977TIP3    H154346   3.169   0.211   5.331  0.1076 -1.1465 -0.5118
10977TIP3    H254347   3.129   0.291   5.454 -0.9038 -0.2187 -1.4257
10978TIP3   OH254348   6.509   6.214   1.131  0.4495 -0.6889  1.0912
10978TIP3    H154349   6.591   6.221   1.181  1.5067 -1.8228 -0.4174
10978TIP3    H254350   6.529   6.254   1.046 -0.9938  0.2256  1.1448
10979TIP3   OH254351   0.235   1.419  15.994  0.0734  0.1254  0.3494
10979TIP3    H154352   0.320   1.381  16.015  0.1685 -0.6929 -1.3209
10979TIP3    H254353   0.172   1.356  16.027  0.1506  0.1409  0.5255
10980TIP3   OH254354   5.132   0.396  12.150 -0.0318 -0.0031  0.5963
10980TIP3    H154355   5.150   0.489  12.134  1.1929  0.0806  2.1204
10980TIP3    H254356   5.060   0.375  12.092  1.3777  1.1990 -1.7608
10981TIP3   OH254357   5.434   2.595  14.280  0.3267 -0.0485 -0.1040
10981TIP3    H154358   5.369   2.666  14.288 -0.9783 -1.2070 -0.0297
10981TIP3    H254359   5.517   2.637  14.301 -0.6985  0.9855  2.2871
10982TIP3   OH254360   2.989   0.197  10.907 -0.1009  0.1931 -0.2369
10982TIP3    H154361   2.937   0.118  10.921 -1.7258  1.3121  0.4693
10982TIP3    H254362   3.032   0.183  10.823 -0.1212 -1.5406  0.0004
10983TIP3   OH254363   4.211   6.663   1.676 -0.0804  0.3728 -0.4751
10983TIP3    H154364   4.132   6.610   1.676 -0.6420  1.1410  0.9666
10983TIP3    H254365   4.253   6.642   1.760  0.2811  1.3273 -0.4031
10984TIP3   OH254366   6.524   0.811   3.588 -0.2777 -0.2922  0.5871
10984TIP3    H154367   6.489   0.722   3.592  1.8625 -1.2448 -0.2094
10984TIP3    H254368   6.619   0.800   3.595  0.0175  2.0092  1.2076
10985TIP3   OH254369   4.734   3.800  11.119 -0.2283  0.4644 -0.2962
10985TIP3    H154370   4.813   3.810  11.172 -0.0046 -0.5475 -0.4210
10985TIP3    H254371   4.681   3.876  11.141  0.7772  1.1657 -0.2111
10986TIP3   OH254372   6.301   6.101  13.680 -0.9715 -0.1103  0.6722
10986TIP3    H154373   6.233   6.049  13.723  0.3492 -1.4002  1.2928
10986TIP3    H254374   6.352   6.037  13.630 -0.6598  0.9368 -0.3973
10987TIP3   OH254375   6.450   1.547   0.810 -0.1341  0.1853  0.5238
10987TIP3    H154376   6.434   1.479   0.875 -0.3058  0.6008  0.9283
10987TIP3    H254377   6.543   1.567   0.818 -0.2812  0.6641  1.0760
10988TIP3   OH254378   6.062   4.847  14.774  0.2235 -0.2439  0.1756
10988TIP3    H154379   6.140   4.902  14.772 -0.9860  1.5178 -0.4639
10988TIP3    H254380   6.094   4.760  14.750  1.9450  0.4887 -0.3560
10989TIP3   OH254381   0.103   5.245   1.103  0.4878 -0.3988 -0.0722
10989TIP3    H154382   0.053   5.318   1.137  1.8213  0.7525 -0.5001
10989TIP3    H254383   0.193   5.262   1.131  1.8838  1.0676 -4.5654
10990TIP3   OH254384   6.349   3.546  14.537  0.8251  0.3159 -0.4654
10990TIP3    H154385   6.287   3.584  14.474  2.3000  1.2228 -1.4456
10990TIP3    H254386   6.326   3.453  14.541 -0.7682  0.6702 -0.5500
10991TIP3   OH254387   0.063   2.699   2.234 -0.2249  0.0563  0.3035
10991TIP3    H154388   0.026   2.781   2.268  0.2706  0.0637  0.8402
10991TIP3    H254389   0.143   2.725   2.189  1.4347 -0.3672  2.8035
10992TIP3   OH254390   6.551   0.738   4.032 -0.1732  0.3025  0.0890
10992TIP3    H154391   6.475   0.777   3.989 -0.8332 -0.7594  0.2605
10992TIP3    H254392   6.562   0.653   3.990 -1.3732 -1.1830  2.5021
10993TIP3   OH254393   5.192   2.894   6.406 -0.4362  0.6923  0.3451
10993TIP3    H154394   5.175   2.851   6.490  2.6800  1.1656  1.3533
10993TIP3    H254395   5.286   2.885   6.394 -0.8284  0.1682 -3.4370
10994TIP3   OH254396   5.360   3.165   4.151 -0.2250  0.2924  0.0406
10994TIP3    H154397   5.428   3.195   4.092 -2.1710  2.0203 -1.4920
10994TIP3    H254398   5.392   3.082   4.186  1.8252  0.1562 -1.9848
10995TIP3   OH254399   2.295   1.722   6.377  0.4673  0.3060 -0.2270
10995TIP3    H154400   2.233   1.737   6.306  0.3949 -0.3408 -0.3080
10995TIP3    H254401   2.241   1.694   6.451  0.6235  0.0919 -0.1920
10996TIP3   OH254402   2.228   3.658  11.670 -0.4161  0.0820 -0.4817
10996TIP3    H154403   2.161   3.726  11.673 -0.8197 -0.3112 -0.4556
10996TIP3    H254404   2.258   3.649  11.761  0.9444  1.4864 -0.7394
10997TIP3   OH254405   1.570   3.858  13.595  0.0511 -0.5494 -0.2816
10997TIP3    H154406   1.539   3.770  13.576 -1.1514 -0.5765  1.5275
10997TIP3    H254407   1.584   3.898  13.509  0.1126 -2.3097 -1.1331
10998TIP3   OH254408   2.762   3.097  11.777 -0.5470  0.2290 -0.3535
10998TIP3    H154409   2.753   3.024  11.838  0.2970  0.4235  0.0337
10998TIP3    H254410   2.674   3.112  11.742 -1.7810  2.0504  3.0724
10999TIP3   OH254411   6.153   0.050   4.538 -0.2975  0.9246 -0.0533
10999TIP3    H154412   6.077   0.077   4.589  0.5079  1.7153  0.7479
10999TIP3    H254413   6.120  -0.021   4.482 -1.0879 -0.3796  1.9371
11000TIP3   OH254414   2.071   6.473  12.922  0.4204  0.2011 -0.2025
11000TIP3    H154415   2.086   6.538  12.853  0.7844  0.1137 -0.2103
11000TIP3    H254416   1.976   6.465  12.928  0.3723  0.8893 -0.0542
11001TIP3   OH254417   4.037   2.004  13.117  0.6885  0.5173  0.2198
11001TIP3    H154418   4.002   1.993  13.029  0.2180 -0.5044  0.5257
11001TIP3    H254419   4.126   2.039  13.103  0.1723  1.5724 -0.5987
11002TIP3   OH254420   1.189   1.217   3.953  0.0950 -0.2832  0.3212
11002TIP3    H154421   1.131   1.249   4.022 -0.3278 -2.1576  0.8938
11002TIP3    H254422   1.270   1.267   3.964 -1.1127  1.9034 -0.0676
11003TIP3   OH254423   3.590   1.039  16.237  0.0030 -0.1651 -0.2094
11003TIP3    H154424   3.655   0.969  16.243  0.3632  0.1941  0.1273
11003TIP3    H254425   3.508   0.997  16.261 -0.0847 -0.8658 -1.6053
11004TIP3   OH254426   1.711   2.224   4.442 -0.3318 -0.0762  0.0038
11004TIP3    H154427   1.789   2.276   4.463 -0.0398 -0.9029  1.0732
11004TIP3    H254428   1.638   2.282   4.463 -0.0094  0.4872 -0.3947
11005TIP3   OH254429   1.735   3.529   2.340  0.0016 -0.3102 -0.2643
11005TIP3    H154430   1.670   3.585   2.296  1.3018 -0.0274 -1.8968
11005TIP3    H254431   1.685   3.452   2.368 -1.1497  0.1392 -1.0018
11006TIP3   OH254432   5.395   6.675  13.737  0.0012 -0.2893 -0.3202
11006TIP3    H154433   5.403   6.604  13.673 -0.5790 -1.1324  0.5120
11006TIP3    H254434   5.310   6.660  13.779  0.0033  0.7258  0.0855
11007TIP3   OH254435   0.703   0.598   3.897  0.1235  0.1525  0.0784
11007TIP3    H154436   0.735   0.645   3.973 -0.5919  0.3434  0.2676
11007TIP3    H254437   0.752   0.635   3.823 -0.1161  0.8827  0.2795
11008TIP3   OH254438   0.120   4.525  14.586 -0.0812 -0.5698 -0.5278
11008TIP3    H154439   0.127   4.530  14.490 -1.7270 -0.7719 -0.6790
11008TIP3    H254440   0.179   4.594  14.617 -0.3414  0.2336 -1.7173
11009TIP3   OH254441   3.780   4.592  16.434  0.1992 -0.1106  0.4618
11009TIP3    H154442   3.832   4.667  16.404  0.7977 -0.8309 -0.3634
11009TIP3    H254443   3.779   4.599  16.529 -0.5170  1.4449  0.3639
11010TIP3   OH254444   4.401   2.442   4.042 -0.5007 -0.3274 -0.2632
11010TIP3    H154445   4.396   2.504   3.969  0.8813 -1.3902 -1.3072
11010TIP3    H254446   4.328   2.466   4.099  0.3084  2.6355 -0.3056
11011TIP3   OH254447   2.549   0.046  12.173 -0.2104  0.4406 -0.7732
11011TIP3    H154448   2.527   0.075  12.262  0.0687 -2.6694  0.4057
11011TIP3    H254449   2.615   0.109  12.143  0.5244  0.9237  1.6766
11012TIP3   OH254450   6.090   3.980   4.360 -0.3198  0.2094 -0.0106
11012TIP3    H154451   6.136   4.062   4.380  1.2225 -0.8688  1.1598
11012TIP3    H254452   6.082   3.936   4.445 -1.2778 -0.7666 -0.5908
11013TIP3   OH254453   6.243   4.784  14.356 -0.0334  0.1120  0.1903
11013TIP3    H154454   6.175   4.814  14.416 -1.2101  0.4481 -1.2756
11013TIP3    H254455   6.242   4.689  14.364 -1.7685  0.0052 -0.9404
11014TIP3   OH254456   2.375   1.406   2.871 -0.3518 -0.3414  0.0450
11014TIP3    H154457   2.411   1.354   2.800  1.5081  0.2364  0.5230
11014TIP3    H254458   2.353   1.491   2.831  2.1930  0.5608  0.3984
11015TIP3   OH254459   0.253   6.038  11.505 -0.2982  0.3655  0.6875
11015TIP3    H154460   0.227   6.067  11.593 -0.9961 -1.1219  1.0060
11015TIP3    H254461   0.348   6.044  11.505 -0.0256 -2.2251  2.5851
11016TIP3   OH254462   3.968   6.098  11.186  0.8107 -0.1249 -0.5559
11016TIP3    H154463   3.981   6.004  11.197  2.7829  0.1692 -0.0146
11016TIP3    H254464   3.882   6.114  11.224 -0.3735 -1.9420 -2.2805
11017TIP3   OH254465   5.270   4.550   3.804  0.3697 -0.3413 -0.1000
11017TIP3    H154466   5.342   4.573   3.745 -0.5718  0.4667 -0.9870
11017TIP3    H254467   5.302   4.574   3.891 -0.0194  3.4306 -0.7939
11018TIP3   OH254468   1.445   0.222  16.915 -0.6093 -0.2569  0.7684
11018TIP3    H154469   1.506   0.274  16.969 -0.0436 -2.5350  2.5015
11018TIP3    H254470   1.492   0.209  16.833 -0.2565  0.9255  0.7582
11019TIP3   OH254471   3.018   5.910   1.499  0.0095 -0.5098  0.0553
11019TIP3    H154472   3.047   5.970   1.431  0.3230  0.5536  1.0958
11019TIP3    H254473   2.940   5.952   1.537 -0.1369 -1.0631  0.3832
11020TIP3   OH254474   6.294   5.096   2.850  0.1442  0.0282 -0.8791
11020TIP3    H154475   6.371   5.100   2.794  2.6291 -0.7092  2.1822
11020TIP3    H254476   6.277   5.187   2.873  0.9680  0.1222 -0.5820
11021TIP3   OH254477   2.197   0.106  15.577  0.0128 -0.4236  0.4929
11021TIP3    H154478   2.167   0.197  15.579 -1.6497 -0.8334 -1.5278
11021TIP3    H254479   2.268   0.106  15.513  1.2353 -0.2887  1.7994
11022TIP3   OH254480   2.031   3.269   3.316  0.2432  0.1649  0.4476
11022TIP3    H154481   2.037   3.280   3.221  1.1414  0.4707  0.5279
11022TIP3    H254482   1.969   3.197   3.328 -0.7688  0.8710 -0.3290
11023TIP3   OH254483   4.436   6.461  14.753 -0.7259  0.3335 -0.5153
11023TIP3    H154484   4.372   6.407  14.800 -1.4856  0.7942 -0.9970
11023TIP3    H254485   4.521   6.426  14.780 -1.1516  0.2552  0.7852
11024TIP3   OH254486   4.652   4.244   5.036  0.9781 -0.2424  0.3004
11024TIP3    H154487   4.668   4.294   4.956  0.4048 -0.6704 -0.0828
11024TIP3    H254488   4.572   4.283   5.073  0.1728 -1.2597 -0.3225
11025TIP3   OH254489   4.221   2.183  11.026 -0.1482 -0.1296  0.0439
11025TIP3    H154490   4.295   2.229  10.987  0.3625 -1.9700 -1.3189
11025TIP3    H254491   4.150   2.247  11.026  1.0536  1.2634  0.1617
11026TIP3   OH254492   1.080   6.258   0.958  0.7340 -0.1704 -0.4997
11026TIP3    H154493   1.036   6.341   0.941 -1.6481 -1.1886  0.2641
11026TIP3    H254494   1.139   6.277   1.031 -0.2776  0.7372  0.1218
11027TIP3   OH254495   5.104   3.341  16.726  0.3302 -0.0533  0.3538
11027TIP3    H154496   5.126   3.250  16.745 -1.1116 -0.8160 -1.3838
11027TIP3    H254497   5.030   3.361  16.783  0.3406 -0.1275  0.3924
11028TIP3   OH254498   3.941   0.231  15.408 -0.2019 -0.1598  0.0642
11028TIP3    H154499   3.853   0.247  15.442 -0.9710 -1.7223 -1.0875
11028TIP3    H254500   3.934   0.247  15.313  0.7531 -0.3406 -0.0544
11029TIP3   OH254501   3.914   0.049  13.631  0.2363 -0.4482 -0.1587
11029TIP3    H154502   3.954   0.033  13.717  4.1170  1.4771 -1.3916
11029TIP3    H254503   3.830   0.090  13.652  1.1587  0.2400  2.7665
11030TIP3   OH254504   1.814   1.446  13.261  0.0483 -0.2698  0.1247
11030TIP3    H154505   1.876   1.456  13.189 -1.7155 -1.0793 -1.5872
11030TIP3    H254506   1.743   1.507  13.240 -0.3626 -0.2966  1.3560
11031TIP3   OH254507   5.960   2.431   1.802  0.2144  0.1228 -0.5248
11031TIP3    H154508   6.053   2.424   1.825  0.1686 -1.3427 -0.7065
11031TIP3    H254509   5.920   2.354   1.840 -0.8952  0.6033 -0.6897
11032TIP3   OH254510   5.104   2.265  16.219  0.2710 -0.4460 -0.2424
11032TIP3    H154511   5.060   2.207  16.281  0.8307 -0.3656  0.2301
11032TIP3    H254512   5.127   2.343  16.270  3.2182 -1.4860  0.1999
11033TIP3   OH254513   5.292   4.692   0.392  0.6424 -0.6481  0.1395
11033TIP3    H154514   5.315   4.736   0.311  0.4051  2.3092  1.5625
11033TIP3    H254515   5.197   4.701   0.399  0.6546 -0.8970  0.7380
11034TIP3   OH254516   4.537   2.198  12.690 -0.1923 -0.1176 -0.0418
11034TIP3    H154517   4.468   2.197  12.624  0.7219 -0.4070 -1.0179
11034TIP3    H254518   4.619   2.202  12.640  0.4882  1.3572  1.0984
11035TIP3   OH254519   6.754   3.077  10.725 -0.7207  0.2270  0.4875
11035TIP3    H154520   6.666   3.104  10.702 -0.6716  0.8270  0.9806
11035TIP3    H254521   6.811   3.131  10.669 -0.6703 -0.5699 -0.2498
11036TIP3   OH254522   3.713   0.582   0.034 -0.0503  0.3647  0.0845
11036TIP3    H154523   3.766   0.600   0.112 -1.4402  0.8407  0.9461
11036TIP3    H254524   3.767   0.615  -0.039  1.0430  0.3871  0.8747
11037TIP3   OH254525   4.264   4.742  11.512  0.3583  0.4474  0.5351
11037TIP3    H154526   4.302   4.772  11.429  0.6888 -1.0772  0.1093
11037TIP3    H254527   4.183   4.792  11.520 -0.9536 -1.0882 -1.9804
11038TIP3   OH254528   6.583   4.306  14.081 -0.2640  0.0041 -0.7096
11038TIP3    H154529   6.621   4.225  14.114 -0.3240 -0.5674 -1.9604
11038TIP3    H254530   6.498   4.312  14.125  0.7079  0.6600  1.1771
11039TIP3   OH254531   0.464   0.757  14.719 -0.0290 -0.5826 -0.1472
11039TIP3    H154532   0.388   0.758  14.778 -0.4106  1.0460 -0.6140
11039TIP3    H254533   0.465   0.844  14.681  1.5074 -0.9129 -0.9169
11040TIP3   OH254534   3.696   4.420  10.924  0.6767 -0.0529 -0.2627
11040TIP3    H154535   3.757   4.398  10.995  0.1497 -1.2241 -0.1597
11040TIP3    H254536   3.686   4.515  10.931  0.3604 -0.1684  1.4818
11041TIP3   OH254537   4.017   5.455   0.375 -0.3910 -0.2067 -0.5615
11041TIP3    H154538   3.925   5.481   0.372 -0.5355 -0.5760  0.3213
11041TIP3    H254539   4.060   5.510   0.309 -0.9276  1.2710  0.2642
11042TIP3   OH254540   2.118   1.082  17.034  0.3117 -0.5037 -0.6871
11042TIP3    H154541   2.029   1.049  17.029  0.2167 -0.2867 -0.4194
11042TIP3    H254542   2.173   1.004  17.023  0.0868 -0.8420  0.4300
11043TIP3   OH254543   2.985   2.629  12.993  0.2033 -0.2468  0.1108
11043TIP3    H154544   2.951   2.670  12.914  1.6864 -0.1967 -0.5452
11043TIP3    H254545   2.937   2.671  13.065 -0.3589  0.5304 -0.6984
11044TIP3   OH254546   1.215   4.536  15.847  0.3039  0.2437 -0.1992
11044TIP3    H154547   1.190   4.618  15.805  1.6496  0.2854 -0.9894
11044TIP3    H254548   1.310   4.529  15.832  0.3247 -1.1619  0.3730
11045TIP3   OH254549   3.964   5.853  13.309  0.1573 -0.0148  0.0376
11045TIP3    H154550   3.986   5.896  13.226  0.6466 -2.0776 -0.9731
11045TIP3    H254551   4.042   5.864  13.363 -0.3859  1.8741  0.5234
11046TIP3   OH254552   2.249   5.787  10.413 -0.3716 -0.3607  0.2513
11046TIP3    H154553   2.283   5.875  10.429 -1.5966  0.1062  0.3478
11046TIP3    H254554   2.154   5.798  10.408 -0.4841 -1.5388 -0.6423
11047TIP3   OH254555   2.214   1.280  15.865 -0.1779 -0.4541 -0.7631
11047TIP3    H154556   2.251   1.342  15.928 -0.3804 -1.1482  0.0667
11047TIP3    H254557   2.218   1.325  15.781  3.1954 -0.7072 -0.8876
11048TIP3   OH254558   3.864   3.658  11.241 -0.1953 -0.2484  0.1062
11048TIP3    H154559   3.859   3.571  11.282  1.8241  0.4245  2.0262
11048TIP3    H254560   3.884   3.640  11.149 -0.1880 -1.8168  0.3735
11049TIP3   OH254561   6.441   3.463   4.840  0.0664  0.6770  0.3448
11049TIP3    H154562   6.406   3.521   4.772 -3.5274 -1.4014  0.1818
11049TIP3    H254563   6.381   3.473   4.914  2.8629  1.5363  2.7136
11050TIP3   OH254564   6.323   4.984  15.858  0.3402 -0.5124  0.1290
11050TIP3    H154565   6.398   5.011  15.805  0.6010 -1.7450 -0.1532
11050TIP3    H254566   6.304   5.060  15.913  1.7889 -0.1737  0.1979
11051TIP3   OH254567   0.785   1.817  14.413 -0.2880 -0.1898 -0.0377
11051TIP3    H154568   0.692   1.806  14.391 -0.4426 -1.0213  0.9253
11051TIP3    H254569   0.803   1.745  14.474  0.6648  0.6747  0.7393
11052TIP3   OH254570   4.484   0.260  13.851 -0.1533  0.5966  0.2385
11052TIP3    H154571   4.458   0.169  13.865 -0.0520  0.4656 -0.3831
11052TIP3    H254572   4.433   0.287  13.775  2.3450 -0.0428 -1.7836
11053TIP3   OH254573   2.853   3.681  12.065  0.1215  0.5976  0.2638
11053TIP3    H154574   2.767   3.673  12.107 -0.1805 -0.7267 -0.5389
11053TIP3    H254575   2.890   3.593  12.072  2.2001  1.5164  2.1498
11054TIP3   OH254576   2.682   0.384  13.410 -0.0042 -0.0459 -0.2406
11054TIP3    H154577   2.613   0.400  13.346  0.2646  0.9261 -0.3037
11054TIP3    H254578   2.762   0.417  13.368  0.2241  0.3124  0.4545
11055TIP3   OH254579   5.361   5.069   4.266  0.0440  0.0527 -0.0707
11055TIP3    H154580   5.418   5.024   4.204 -0.6687  1.8320 -2.1595
11055TIP3    H254581   5.272   5.045   4.240 -0.3899  2.8480 -1.5812
11056TIP3   OH254582   6.357   5.381   0.642 -0.1390 -0.0220  0.1533
11056TIP3    H154583   6.366   5.427   0.559  1.7885 -2.2222 -0.9899
11056TIP3    H254584   6.410   5.431   0.703  0.4479  0.2723 -0.5858
11057TIP3   OH254585   0.775   1.549  11.143  0.5055 -0.1396  0.0256
11057TIP3    H154586   0.728   1.626  11.175  0.1176 -0.6643  0.7294
11057TIP3    H254587   0.773   1.558  11.047 -1.4765 -0.4064  0.0098
11058TIP3   OH254588   1.638   0.342   2.488 -0.0146 -0.0436  0.6962
11058TIP3    H154589   1.568   0.292   2.445 -1.2867  3.1513 -1.2797
11058TIP3    H254590   1.679   0.391   2.417  0.2647  2.7052  2.6233
11059TIP3   OH254591   3.977   0.913   2.625  0.2195 -0.3295  0.4031
11059TIP3    H154592   4.010   0.924   2.713  1.4707  0.1089 -0.1033
11059TIP3    H254593   4.014   0.987   2.576  0.9202 -1.4797 -0.8610
11060TIP3   OH254594   0.668   3.396   4.920 -0.0983  0.1685  0.0949
11060TIP3    H154595   0.709   3.321   4.877  0.1901  0.0041  0.6433
11060TIP3    H254596   0.729   3.420   4.990  0.5133  1.8409 -0.9737
11061TIP3   OH254597   3.752   2.183   2.700 -0.3786  0.3996  0.2405
11061TIP3    H154598   3.693   2.200   2.773 -0.5204  0.0675  0.2079
11061TIP3    H254599   3.706   2.116   2.648  0.3707 -0.4384  0.6282
11062TIP3   OH254600   1.143   1.620  10.942 -0.0418  0.4611  0.4610
11062TIP3    H154601   1.113   1.547  10.888  0.8684 -0.1753  0.7888
11062TIP3    H254602   1.230   1.593  10.973  0.3548  1.7349  0.5027
11063TIP3   OH254603   5.425   6.047  15.746  0.2578  0.3208 -0.2252
11063TIP3    H154604   5.399   6.125  15.794 -1.3951 -0.4251  0.1558
11063TIP3    H254605   5.438   5.980  15.813 -1.5552 -0.5886 -0.7105
11064TIP3   OH254606   4.298   0.572   1.468  0.0111 -0.0312  0.0530
11064TIP3    H154607   4.293   0.485   1.507  1.0095  0.1394  0.5956
11064TIP3    H254608   4.306   0.556   1.374  3.4722 -0.7025  0.3439
11065TIP3   OH254609   4.590   4.816   4.016 -0.0966  0.2583 -0.1530
11065TIP3    H154610   4.593   4.881   3.946 -0.1247 -0.4526 -0.8387
11065TIP3    H254611   4.508   4.769   4.001 -0.4063  0.5115  0.7456
11066TIP3   OH254612   0.333   6.744  16.247  0.8002 -0.3109 -0.2038
11066TIP3    H154613   0.318   6.732  16.154 -2.4464  0.6386  0.0486
11066TIP3    H254614   0.295   6.666  16.288 -2.2793  1.3649  0.4372
11067TIP3   OH254615   5.304   1.661  15.885  0.1052 -0.6629  0.1452
11067TIP3    H154616   5.222   1.693  15.848 -0.0388 -1.0913  0.0933
11067TIP3    H254617   5.370   1.723  15.853 -0.3265  0.2577  0.9842
11068TIP3   OH254618   2.799   5.569  13.002  0.1147  0.2022  0.3578
11068TIP3    H154619   2.837   5.563  12.914 -0.6424 -0.4396  0.0598
11068TIP3    H254620   2.815   5.483  13.041 -1.3846 -0.2269  0.0688
11069TIP3   OH254621   4.149   3.622  14.924  0.3116  0.2245  0.6050
11069TIP3    H154622   4.165   3.563  14.997  1.6044 -0.3302 -0.0866
11069TIP3    H254623   4.074   3.675  14.951 -1.4590 -2.3043  0.8984
11070TIP3   OH254624   2.875   4.099   1.256  0.2811  0.0826 -0.7024
11070TIP3    H154625   2.961   4.065   1.230  0.6766  0.6491 -0.1722
11070TIP3    H254626   2.870   4.185   1.214  0.5058  0.5809  0.2565
11071TIP3   OH254627   1.141   3.721   3.455  0.8695  0.6910 -0.3036
11071TIP3    H154628   1.090   3.790   3.413  0.2983  0.5879  0.2066
11071TIP3    H254629   1.189   3.766   3.525 -0.2906  0.4199  0.6948
11072TIP3   OH254630   2.396   6.803   6.148  0.7864 -0.5465 -0.1627
11072TIP3    H154631   2.457   6.828   6.078 -0.6117 -2.5621 -2.2298
11072TIP3    H254632   2.440   6.732   6.194  0.0914 -2.0097 -1.6622
11073TIP3   OH254633   1.005   0.976   1.136  0.7884 -0.6474 -0.5215
11073TIP3    H154634   0.970   0.888   1.125  2.5525 -1.6995  1.6663
11073TIP3    H254635   0.929   1.028   1.162  0.1835 -2.1347  0.8586
11074TIP3   OH254636   2.109   1.299   4.887 -0.0953 -0.1201  0.0480
11074TIP3    H154637   2.177   1.233   4.870 -1.0577 -0.7144 -1.7831
11074TIP3    H254638   2.050   1.257   4.950  0.6668  0.0346  0.8990
11075TIP3   OH254639   1.761   6.564  11.651 -0.1461  0.2069  0.0155
11075TIP3    H154640   1.791   6.607  11.571 -0.7820 -0.6553 -0.7063
11075TIP3    H254641   1.684   6.614  11.677 -1.0280 -0.5950 -0.9571
11076TIP3   OH254642   0.051   5.858   0.305  0.0255  0.2691 -0.4739
11076TIP3    H154643   0.002   5.817   0.233 -0.6265 -0.3778  0.3210
11076TIP3    H254644   0.113   5.791   0.333 -1.3169 -0.3880  1.1011
11077TIP3   OH254645   3.762   0.609   2.123 -0.0811  0.5205 -0.5142
11077TIP3    H154646   3.773   0.515   2.129 -2.5834  0.2163  1.3685
11077TIP3    H254647   3.678   0.621   2.080 -1.5185  1.6466  2.3123
11078TIP3   OH254648   3.040   1.869  13.393 -0.4586 -0.0821 -0.4964
11078TIP3    H154649   2.960   1.823  13.368 -1.0319  0.8113 -0.3435
11078TIP3    H254650   3.046   1.943  13.333 -0.4718  0.6100  0.3250
11079TIP3   OH254651   1.684   1.818   1.731 -0.0360 -0.1932 -0.5125
11079TIP3    H154652   1.692   1.898   1.783  3.1218 -0.3815 -0.4808
11079TIP3    H254653   1.659   1.849   1.644 -1.9284  0.4531  0.2107
11080TIP3   OH254654   4.322   5.621   1.398  0.1036 -0.3060 -0.1908
11080TIP3    H154655   4.313   5.700   1.452  2.4782  0.3441 -0.6263
11080TIP3    H254656   4.386   5.645   1.331  0.8373 -2.5767 -0.3793
11081TIP3   OH254657   4.044   1.567  12.653 -0.2041  0.2591 -0.0870
11081TIP3    H154658   3.989   1.514  12.595  1.1614 -0.3690 -0.8672
11081TIP3    H254659   4.053   1.651  12.609  1.1923 -0.3629 -1.0724
11082TIP3   OH254660   4.805   3.538  11.498 -0.3185 -0.1049 -0.6775
11082TIP3    H154661   4.888   3.542  11.544  0.3511  0.2967 -1.8731
11082TIP3    H254662   4.739   3.543  11.567  0.6134  2.5472  0.1511
11083TIP3   OH254663   2.021   0.279   3.469  0.0077  0.2141 -0.5119
11083TIP3    H154664   2.030   0.184   3.469 -1.7206  0.0089  0.7905
11083TIP3    H254665   2.007   0.302   3.561 -1.7164  1.4632 -1.0363
11084TIP3   OH254666   0.465   2.657   3.894 -0.3708  0.4696 -0.5461
11084TIP3    H154667   0.499   2.575   3.931  2.7853  1.8010 -0.1850
11084TIP3    H254668   0.454   2.638   3.800  1.3379 -0.1214 -0.6564
11085TIP3   OH254669   2.860   1.528   2.655 -0.6466  0.4746  0.2560
11085TIP3    H154670   2.915   1.454   2.682 -1.1393 -0.0862 -0.2460
11085TIP3    H254671   2.871   1.592   2.725  2.4514  1.3661 -0.8695
11086TIP3   OH254672   3.846   0.848   3.075 -0.6864  0.4815  0.4961
11086TIP3    H154673   3.778   0.913   3.056 -1.0222 -0.2816 -1.0443
11086TIP3    H254674   3.799   0.766   3.083 -0.1856  0.2978  1.7714
11087TIP3   OH254675   3.414   1.961   3.538  0.0945  0.1405  0.2019
11087TIP3    H154676   3.334   1.999   3.501 -0.0874 -0.4878 -0.0742
11087TIP3    H254677   3.416   1.994   3.628 -0.9062 -0.4420  0.4630
11088TIP3   OH254678   0.137   6.657   3.959  0.1925 -0.9276  0.4880
11088TIP3    H154679   0.186   6.635   4.039  0.7293 -0.4885  0.2886
11088TIP3    H254680   0.093   6.739   3.980 -0.0621 -1.0656  0.4954
11089TIP3   OH254681   0.942   3.041   3.769  0.7029 -0.4712 -0.0308
11089TIP3    H154682   0.926   3.135   3.773 -0.1635 -0.5606 -0.9407
11089TIP3    H254683   0.891   3.011   3.693  2.3786 -1.3887 -0.8350
11090TIP3   OH254684   2.352   2.199  12.392  0.1825  0.3692 -0.3610
11090TIP3    H154685   2.405   2.120  12.404 -0.1815  0.1939  0.1374
11090TIP3    H254686   2.406   2.256  12.337  0.0580 -0.6194 -1.5767
11091TIP3   OH254687   5.283   2.903  11.052 -0.9306 -0.5932  0.0607
11091TIP3    H154688   5.261   2.826  11.000 -1.7948 -0.2170 -0.1397
11091TIP3    H254689   5.379   2.906  11.051 -0.9251 -0.4313 -1.7555
11092TIP3   OH254690   1.776   1.058  15.404 -0.2012  0.1971 -0.0085
11092TIP3    H154691   1.846   1.090  15.348  1.2202  0.9095  2.0663
11092TIP3    H254692   1.794   1.097  15.490 -2.1754 -0.9789  1.0123
11093TIP3   OH254693   6.483   3.205   5.430 -0.1623 -0.2670  0.4501
11093TIP3    H154694   6.521   3.133   5.481 -0.1208 -0.6112 -0.0612
11093TIP3    H254695   6.548   3.275   5.435 -0.1252 -0.3224  0.8031
11094TIP3   OH254696   6.420   4.705   3.210 -0.5747  0.0475  0.0234
11094TIP3    H154697   6.371   4.786   3.197 -1.0526 -0.3820 -0.9620
11094TIP3    H254698   6.482   4.725   3.280  1.0349  2.0056 -1.8348
11095TIP3   OH254699   5.315   0.898   1.796 -0.5398 -0.2608 -0.4348
11095TIP3    H154700   5.395   0.941   1.825  0.6072 -1.6903 -1.3907
11095TIP3    H254701   5.317   0.905   1.700 -2.0437  0.4788 -0.4571
11096TIP3   OH254702   2.999   2.949  12.663 -0.6813  0.3856 -0.1291
11096TIP3    H154703   2.978   3.029  12.712 -2.5996  0.4650 -0.9742
11096TIP3    H254704   2.957   2.879  12.713 -1.9255  0.3651 -1.1625
11097TIP3   OH254705   5.478   5.770  13.860 -0.0649 -0.3815 -0.1646
11097TIP3    H154706   5.519   5.814  13.934 -0.8025  0.4371 -0.2208
11097TIP3    H254707   5.494   5.829  13.786  0.0976 -0.8721 -0.5274
11098TIP3   OH254708   5.878   1.561  11.408 -0.3355  0.0626 -0.3635
11098TIP3    H154709   5.845   1.589  11.323 -2.3030  0.6931  0.5366
11098TIP3    H254710   5.909   1.471  11.393 -0.4785  0.2262 -1.7714
11099TIP3   OH254711   1.264   0.482   1.648 -0.0607  0.4583 -0.4707
11099TIP3    H154712   1.198   0.527   1.595  0.3979  2.1487  0.3275
11099TIP3    H254713   1.250   0.516   1.736  2.1825  1.2411 -0.3604
11100TIP3   OH254714   0.501   4.989   5.467  0.2317  0.2186 -0.1459
11100TIP3    H154715   0.504   5.030   5.380  0.5772  1.5958  0.4947
11100TIP3    H254716   0.578   4.933   5.470  0.5573  0.6406 -0.5082
11101TIP3   OH254717   5.720   0.257  11.466 -0.2592  0.0162  0.3541
11101TIP3    H154718   5.689   0.211  11.388  0.9995 -0.1809 -0.0618
11101TIP3    H254719   5.750   0.188  11.525 -2.0660  0.1133  1.4321
11102TIP3   OH254720   4.580   3.057  12.421 -0.5330  0.4093  0.1088
11102TIP3    H154721   4.657   3.100  12.457 -2.0417  0.6571  3.3722
11102TIP3    H254722   4.607   2.966  12.408  0.6391  0.7558  0.0612
11103TIP3   OH254723   1.632   3.720  10.980  0.1684  0.3688  0.4972
11103TIP3    H154724   1.589   3.805  10.974  0.7926  0.7534  1.2881
11103TIP3    H254725   1.692   3.718  10.906 -3.0776 -1.3268 -2.3791
11104TIP3   OH254726   5.729   5.162   2.505 -0.1886 -0.1727  0.4885
11104TIP3    H154727   5.685   5.222   2.445 -1.0663  0.3588  1.6279
11104TIP3    H254728   5.818   5.197   2.513 -0.3911  0.3789  0.3575
11105TIP3   OH254729   0.449   5.331  12.360 -0.3281  0.1073  0.1185
11105TIP3    H154730   0.522   5.391  12.374 -0.1098 -0.1530  0.1017
11105TIP3    H254731   0.489   5.254  12.320 -0.6968  0.1900 -0.4146
11106TIP3   OH254732   5.390   4.130   5.016 -0.4317 -0.1402 -0.0964
11106TIP3    H154733   5.376   4.105   4.924  0.0718  0.9499 -0.4924
11106TIP3    H254734   5.391   4.226   5.014  0.2038 -0.1121  0.9497
11107TIP3   OH254735   5.234   5.065   4.666 -0.0381  0.8053 -0.6321
11107TIP3    H154736   5.245   4.971   4.681 -0.6108  0.5122 -1.8542
11107TIP3    H254737   5.284   5.107   4.735  2.6319 -0.3930 -1.7070
11108TIP3   OH254738   0.719   4.529   4.935  0.2665 -0.0380  0.6616
11108TIP3    H154739   0.693   4.616   4.966  0.8995  0.3084  0.2377
11108TIP3    H254740   0.783   4.500   5.000  0.5856  0.1169  0.4179
11109TIP3   OH254741   3.259   1.261  15.812  0.5082  0.8614 -0.0453
11109TIP3    H154742   3.330   1.317  15.779 -0.8010  1.8521 -1.3433
11109TIP3    H254743   3.232   1.303  15.894  0.5477  1.2647 -0.2339
11110TIP3   OH254744   3.194   3.096  15.361 -0.3600  0.4505 -0.1017
11110TIP3    H154745   3.187   3.036  15.435 -1.6443  0.2864 -0.3350
11110TIP3    H254746   3.143   3.172  15.387 -0.4127  0.6000 -0.6296
11111TIP3   OH254747   2.647   1.737   5.797 -1.0597  0.9121 -0.5672
11111TIP3    H154748   2.685   1.812   5.752 -2.6502  0.8213 -2.1730
11111TIP3    H254749   2.621   1.677   5.726  1.6501 -1.9998  0.6353
11112TIP3   OH254750   0.910   1.434  15.386  0.0896 -0.0731 -0.3582
11112TIP3    H154751   0.959   1.506  15.347  0.4099 -0.0070  0.1559
11112TIP3    H254752   0.883   1.466  15.472  0.7915 -0.7796  0.1500
11113TIP3   OH254753   4.668   2.744  12.879  0.2691 -0.7627 -0.0354
11113TIP3    H154754   4.697   2.736  12.788  1.3422 -2.3583  0.3969
11113TIP3    H254755   4.747   2.728  12.930 -0.0502  1.3438  1.2053
11114TIP3   OH254756   0.840   2.621   2.690  0.0674 -0.2034 -0.1111
11114TIP3    H154757   0.880   2.650   2.608 -1.6237 -0.4858 -1.0962
11114TIP3    H254758   0.906   2.639   2.757  0.9471  1.3912 -1.3304
11115TIP3   OH254759   3.348   5.573  13.434  0.2416  0.2831  0.3219
11115TIP3    H154760   3.297   5.642  13.476 -1.5307 -1.3869  1.0876
11115TIP3    H254761   3.422   5.559  13.493  0.7838  1.6571  0.0188
11116TIP3   OH254762   5.787   2.626   4.646 -0.3169 -0.9310  0.3484
11116TIP3    H154763   5.785   2.541   4.601  0.0704 -1.1898  0.8040
11116TIP3    H254764   5.844   2.680   4.592 -1.4408 -0.5964 -0.5437
11117TIP3   OH254765   0.251   5.095   4.713 -0.3270  0.0282  0.2504
11117TIP3    H154766   0.214   5.173   4.754 -2.4931  0.5971 -2.4592
11117TIP3    H254767   0.197   5.023   4.746 -0.4199  0.1402  0.3446
11118TIP3   OH254768   3.886   2.627   4.160  0.0099  0.7377  0.0195
11118TIP3    H154769   3.911   2.617   4.252 -1.7779  0.7084  0.5409
11118TIP3    H254770   3.852   2.716   4.154 -1.2967  0.2411 -0.2345
11119TIP3   OH254771   0.155   5.425  16.938  0.0048 -0.3133 -0.0594
11119TIP3    H154772   0.159   5.384  17.024 -0.9243 -0.8080 -0.2388
11119TIP3    H254773   0.246   5.436  16.912  0.2901 -1.8004  0.2256
11120TIP3   OH254774   6.207   6.293  11.407 -0.2007 -0.0275  0.6795
11120TIP3    H154775   6.244   6.240  11.478  0.5080  0.0946  0.4092
11120TIP3    H254776   6.113   6.293  11.424 -0.1847 -1.1469  0.8427
11121TIP3   OH254777   2.309   1.343  11.836 -0.0803 -0.3188  0.4109
11121TIP3    H154778   2.238   1.400  11.808 -0.5238 -0.3534  1.4253
11121TIP3    H254779   2.316   1.277  11.767 -1.1935 -0.4462  0.4038
11122TIP3   OH254780   3.662   6.145  14.082 -0.2135  0.6356 -0.0976
11122TIP3    H154781   3.718   6.106  14.014  0.4350  3.2978 -1.2244
11122TIP3    H254782   3.690   6.104  14.163 -1.3734 -3.0853 -1.3638
11123TIP3   OH254783   0.928   5.668   5.077  0.2443  0.0930  0.5334
11123TIP3    H154784   0.966   5.635   5.158 -1.1763  0.8546  1.5599
11123TIP3    H254785   0.837   5.687   5.099 -0.7970 -1.6526 -1.7879
11124TIP3   OH254786   5.019   3.820  14.353  0.1364 -0.1838  0.3826
11124TIP3    H154787   5.091   3.873  14.387  0.9954 -0.8134 -0.4153
11124TIP3    H254788   5.014   3.843  14.260  1.6707 -2.7190 -0.3943
11125TIP3   OH254789   2.596   3.980  11.057  0.0048 -0.1803 -0.3365
11125TIP3    H154790   2.659   3.961  11.127 -0.7681  0.5684  0.5843
11125TIP3    H254791   2.622   4.065  11.024  0.8527 -0.8762 -1.5365
11126TIP3   OH254792   5.653   3.115   2.052  0.6850  0.3512 -0.4884
11126TIP3    H154793   5.653   3.180   1.983  0.8923  0.6470 -0.2140
11126TIP3    H254794   5.586   3.145   2.114 -0.0756 -0.3384 -0.9476
11127TIP3   OH254795   2.502   2.798   0.697  0.1361  0.1217  0.7242
11127TIP3    H154796   2.509   2.878   0.749  0.2867  1.4835 -1.2987
11127TIP3    H254797   2.563   2.810   0.625  0.1659 -1.8493  0.3639
11128TIP3   OH254798   0.102   6.037  13.556 -0.3972 -0.3296  0.0353
11128TIP3    H154799   0.136   6.126  13.559 -1.1291 -0.0601  0.2648
11128TIP3    H254800   0.068   6.021  13.644 -1.7821 -0.2394 -0.4624
11129TIP3   OH254801   0.105   2.796   0.794 -0.0992 -0.6787 -0.4147
11129TIP3    H154802   0.195   2.814   0.767  0.0701 -1.2401 -0.2561
11129TIP3    H254803   0.066   2.750   0.719 -1.1904  2.1176 -1.6880
11130TIP3   OH254804   0.557   2.244  13.407  0.0596 -0.5083 -0.2425
11130TIP3    H154805   0.594   2.162  13.376  0.6121 -0.2570 -0.2474
11130TIP3    H254806   0.625   2.309  13.392 -1.0523  0.3240 -2.0319
11131TIP3   OH254807   5.754   5.606  12.207 -0.6197  0.5554 -0.3036
11131TIP3    H154808   5.839   5.645  12.186 -0.3086  0.1659  0.2113
11131TIP3    H254809   5.733   5.552  12.130 -0.7005  1.1369 -0.6992
11132TIP3   OH254810   3.345   0.399  17.039 -0.2489  0.2096 -0.0413
11132TIP3    H154811   3.288   0.411  17.115  0.1785  1.7724  0.0550
11132TIP3    H254812   3.382   0.311  17.051 -1.4669 -0.2344  0.6706
11133TIP3   OH254813   6.514   1.631  16.154 -0.2712  1.0981 -0.8423
11133TIP3    H154814   6.481   1.619  16.065  0.5009  0.1571 -1.0189
11133TIP3    H254815   6.494   1.722  16.175 -0.7379  1.2433 -1.8597
11134TIP3   OH254816   0.994   1.292  11.395  0.3495 -0.2766 -0.2976
11134TIP3    H154817   0.903   1.265  11.404  0.6009 -0.8015  0.8895
11134TIP3    H254818   0.993   1.360  11.327 -0.8511 -0.5900 -0.6034
11135TIP3   OH254819   1.197   3.988  12.221 -0.0179 -0.2936  0.2653
11135TIP3    H154820   1.165   4.051  12.286  0.1942 -0.9659  1.0387
11135TIP3    H254821   1.182   4.031  12.137 -3.3999 -0.7714  0.5089
11136TIP3   OH254822   3.007   5.982  11.943  0.1760  0.2358 -0.0675
11136TIP3    H154823   2.940   5.917  11.963  1.3509 -0.6881  0.9646
11136TIP3    H254824   3.080   5.961  12.000  2.3881 -0.3999 -2.8966
11137TIP3   OH254825   6.067   1.870   2.719  0.3777 -0.0301  0.2490
11137TIP3    H154826   6.050   1.895   2.628 -0.1151  0.0468  0.3588
11137TIP3    H254827   6.119   1.942   2.755 -2.1218  1.5700  0.9512
11138TIP3   OH254828   1.679   3.135  12.277  0.2101 -0.1487 -0.3959
11138TIP3    H154829   1.730   3.158  12.198 -0.8233 -0.5987 -1.2186
11138TIP3    H254830   1.664   3.219  12.320 -0.3245  0.2790 -1.3838
11139TIP3   OH254831   4.034   5.495  14.236  0.2926 -0.3148 -0.4915
11139TIP3    H154832   4.060   5.404  14.249 -1.5389 -0.7902  0.1644
11139TIP3    H254833   4.064   5.540  14.316  0.5082 -0.5012 -0.4656
11140TIP3   OH254834   5.410   2.976  12.049 -0.0397  0.0195 -0.0822
11140TIP3    H154835   5.425   3.047  11.986 -0.5832  0.6996  0.5424
11140TIP3    H254836   5.315   2.969  12.055 -0.0313  0.7895  1.5557
11141TIP3   OH254837   2.001   3.473  13.501  0.2093 -0.2189 -0.2074
11141TIP3    H154838   1.999   3.544  13.437 -0.2830 -0.2760 -0.2574
11141TIP3    H254839   2.076   3.419  13.475  0.3551  0.0723 -0.3931
11142TIP3   OH254840   5.693   1.892   1.741  0.2114  0.1101  0.5400
11142TIP3    H154841   5.651   1.851   1.666  2.5709 -1.5698  0.0343
11142TIP3    H254842   5.686   1.986   1.724  1.5631 -0.2194 -2.3439
11143TIP3   OH254843   5.985   3.876   0.861  0.1956  0.2770 -0.3839
11143TIP3    H154844   5.899   3.892   0.899 -0.2879 -0.3253 -1.1981
11143TIP3    H254845   6.039   3.847   0.934 -0.4560  0.0497  0.0108
11144TIP3   OH254846   3.218   2.605  10.882  0.8959  0.5450 -0.2949
11144TIP3    H154847   3.171   2.682  10.913  0.4930 -0.0287  0.5815
11144TIP3    H254848   3.223   2.548  10.959 -0.5861 -1.1762 -1.3912
11145TIP3   OH254849   3.558   2.124   1.244 -0.1865  0.3060 -0.4652
11145TIP3    H154850   3.473   2.092   1.213 -2.0352  2.6070  1.7087
11145TIP3    H254851   3.622   2.085   1.185 -2.7499 -1.4775 -2.2813
11146TIP3   OH254852   2.042   1.466   0.820 -0.5085 -0.1530  0.1154
11146TIP3    H154853   2.041   1.463   0.915 -1.2999  1.9756  0.2411
11146TIP3    H254854   1.958   1.504   0.796  0.0097  0.1402 -1.3781
11147TIP3   OH254855   5.394   5.050   2.581 -0.0430 -0.4341  0.0576
11147TIP3    H154856   5.459   5.093   2.527 -0.2704 -1.4093 -1.0363
11147TIP3    H254857   5.375   4.968   2.535 -1.2046 -0.6888  0.9371
11148TIP3   OH254858   5.963   3.439   0.737 -0.3521 -0.1351  0.2171
11148TIP3    H154859   5.929   3.398   0.658  0.2933  0.6828 -0.5045
11148TIP3    H254860   6.023   3.507   0.706  0.3418 -0.1550  1.4104
11149TIP3   OH254861   3.287   1.525   0.593  0.0912  0.5097 -0.8560
11149TIP3    H154862   3.326   1.599   0.546 -2.2465  1.3170 -1.6291
11149TIP3    H254863   3.346   1.510   0.667  2.3054  1.1003 -2.3728
11150TIP3   OH254864   6.687   1.713  14.473 -0.6664 -0.5483 -0.0935
11150TIP3    H154865   6.711   1.701  14.565  1.7373 -1.0994 -0.7106
11150TIP3    H254866   6.766   1.749  14.432 -0.7388 -2.7259 -2.4164
11151TIP3   OH254867   2.287   3.360  12.119 -0.2651 -0.0073  1.0065
11151TIP3    H154868   2.193   3.379  12.129  0.3068  2.9399  1.5792
11151TIP3    H254869   2.292   3.311  12.037 -2.1527  1.3636 -0.0108
11152TIP3   OH254870   2.789   1.076   1.080  0.2215  0.7193 -0.6780
11152TIP3    H154871   2.846   1.041   1.011 -0.0696 -2.7200  0.6023
11152TIP3    H254872   2.768   1.000   1.134 -3.1093  2.4198  0.7109
11153TIP3   OH254873   3.545   1.574   3.153  0.1241  0.2429 -0.4215
11153TIP3    H154874   3.552   1.661   3.193  0.9701  0.5224 -1.1572
11153TIP3    H254875   3.600   1.579   3.075 -0.8047 -0.5703 -1.1522
11154TIP3   OH254876   6.242   2.002  12.660  0.5237  0.1525 -0.0691
11154TIP3    H154877   6.309   1.960  12.715  0.1569 -0.6461 -0.2206
11154TIP3    H254878   6.289   2.074  12.617  1.0616  0.1620  0.5106
11155TIP3   OH254879   2.865   1.813  14.905  0.1054  0.3468  0.2613
11155TIP3    H154880   2.867   1.903  14.936 -0.0142  0.8538 -1.1729
11155TIP3    H254881   2.944   1.773  14.943  0.9163  1.4360 -0.2233
11156TIP3   OH254882   5.435   2.471  13.809  0.5158  0.0138 -0.0294
11156TIP3    H154883   5.455   2.528  13.735 -1.3449 -0.1106 -0.6676
11156TIP3    H254884   5.403   2.390  13.769  0.0258 -0.2710  0.9079
11157TIP3   OH254885   2.937   6.309  13.771 -0.4661  0.6769  0.4067
11157TIP3    H154886   2.865   6.331  13.830 -1.0206  0.2811 -0.1047
11157TIP3    H254887   2.899   6.247  13.709  0.4533  0.0689  0.4259
11158TIP3   OH254888   1.673   6.219   1.908  0.6018 -0.4355 -0.4288
11158TIP3    H154889   1.588   6.175   1.905  1.8527 -2.9936 -0.5045
11158TIP3    H254890   1.687   6.237   2.001  0.7308 -1.6605 -0.1907
11159TIP3   OH254891   3.973   4.215   6.109  0.2548 -0.1648 -0.1397
11159TIP3    H154892   4.004   4.190   6.196 -0.6738 -1.6995 -0.2253
11159TIP3    H254893   4.025   4.163   6.048 -0.0001 -0.0619 -0.4496
11160TIP3   OH254894   3.948   2.689   4.586  0.0805  0.2977 -0.7763
11160TIP3    H154895   3.931   2.765   4.642  1.6793 -0.6307  1.1188
11160TIP3    H254896   4.042   2.673   4.596  0.1825 -0.6641 -2.8276
11161TIP3   OH254897   2.515   1.562   0.455  0.5912  0.2208  0.2262
11161TIP3    H154898   2.509   1.658   0.446  0.3590  0.0692 -1.4814
11161TIP3    H254899   2.513   1.529   0.366 -1.2113 -1.5059  0.8426
11162TIP3   OH254900   0.865   6.514   1.627 -0.9671  0.5502 -0.3328
11162TIP3    H154901   0.854   6.426   1.592 -0.9266  0.9439 -1.3714
11162TIP3    H254902   0.849   6.572   1.552  0.5877  1.3786 -0.0676
11163TIP3   OH254903   5.500   6.005   4.503  0.2183  0.2008  0.0301
11163TIP3    H154904   5.437   5.939   4.534  0.8061 -1.3196 -1.8105
11163TIP3    H254905   5.543   6.036   4.582 -0.8613 -0.8241  1.0634
11164TIP3   OH254906   2.678   5.076  13.415  0.1325  0.2821  0.3290
11164TIP3    H154907   2.594   5.118  13.396 -1.1380 -2.3519 -0.3674
11164TIP3    H254908   2.729   5.087  13.335 -0.3649  0.0749 -0.0173
11165TIP3   OH254909   5.889   1.525   0.710  0.6269  0.1230  0.3047
11165TIP3    H154910   5.809   1.537   0.659 -1.5183 -1.0942  3.0462
11165TIP3    H254911   5.928   1.612   0.715 -1.5329  1.1736  0.3076
11166TIP3   OH254912   4.567   4.451   2.260  0.1731  0.6946 -1.0638
11166TIP3    H154913   4.479   4.417   2.274  0.7959 -0.0484  1.5895
11166TIP3    H254914   4.617   4.376   2.229  0.7423 -0.0842  1.4598
11167TIP3   OH254915   6.345   3.440   3.285  0.0511  0.4352 -0.1688
11167TIP3    H154916   6.401   3.385   3.229  0.1571  0.4828 -0.1107
11167TIP3    H254917   6.353   3.401   3.372  1.5518  1.5721  0.2622
11168TIP3   OH254918   3.279   5.743  15.287 -0.0055  0.4870 -0.2758
11168TIP3    H154919   3.199   5.750  15.235 -0.2574  0.0469  0.0379
11168TIP3    H254920   3.263   5.797  15.364 -0.5520 -0.6462  0.4404
11169TIP3   OH254921   3.671   3.297   0.912 -0.2128  0.5761 -0.1711
11169TIP3    H154922   3.718   3.381   0.911  0.6205  0.2604  2.9847
11169TIP3    H254923   3.615   3.302   0.990  0.7695 -2.2222  0.8095
11170TIP3   OH254924   6.336   4.268  15.757 -0.1978 -0.3926 -0.3079
11170TIP3    H154925   6.396   4.293  15.687  1.7464  1.2019  1.7642
11170TIP3    H254926   6.351   4.174  15.769 -0.4455 -0.6527 -1.8585
11171TIP3   OH254927   3.571   2.064   2.279 -0.1972 -0.1242  0.2979
11171TIP3    H154928   3.477   2.069   2.297 -0.0275  2.2120  0.9453
11171TIP3    H254929   3.578   2.010   2.201 -2.1145 -0.1623  0.1059
11172TIP3   OH254930   4.716   5.938   5.050 -0.1575  0.2371  0.1837
11172TIP3    H154931   4.674   5.877   5.111  0.6529  0.1080  0.6242
11172TIP3    H254932   4.722   6.020   5.098  0.4882  0.1337  0.2870
11173TIP3   OH254933   0.598   0.586   3.598  0.0055  0.1834  0.4220
11173TIP3    H154934   0.649   0.622   3.525 -0.8050 -0.0620 -0.2890
11173TIP3    H254935   0.508   0.584   3.565 -0.2846 -0.4892  1.2251
11174TIP3   OH254936   5.147   2.944   4.703  0.0955  0.1581  0.0677
11174TIP3    H154937   5.063   2.973   4.738  0.9640  2.8356  0.1617
11174TIP3    H254938   5.153   2.852   4.728 -2.3579  0.1491  0.8905
11175TIP3   OH254939   5.382   6.000  14.415 -0.5210  0.2102  0.3925
11175TIP3    H154940   5.473   6.021  14.433 -0.1414  0.2767 -1.4947
11175TIP3    H254941   5.373   5.909  14.443  0.6383 -0.3860 -1.0466
11176TIP3   OH254942   0.543   5.291   6.169  0.2046  0.3200  0.3378
11176TIP3    H154943   0.450   5.284   6.192  0.2398  0.5554  0.5533
11176TIP3    H254944   0.586   5.226   6.225 -0.0558 -1.2193 -1.1554
11177TIP3   OH254945   2.956   1.641  12.891 -0.2491  0.1598  0.4368
11177TIP3    H154946   2.881   1.595  12.854 -3.0085  3.6581  1.0974
11177TIP3    H254947   2.973   1.597  12.974  0.7507 -2.7224 -1.1432
11178TIP3   OH254948   0.571   0.619  11.106 -0.1507 -0.2289 -0.0523
11178TIP3    H154949   0.539   0.707  11.090 -0.1754 -0.1660  0.3306
11178TIP3    H254950   0.539   0.597  11.194 -0.6776 -0.8582 -0.3932
11179TIP3   OH254951   3.220   0.317   3.521 -0.4941 -0.0836 -0.4558
11179TIP3    H154952   3.270   0.323   3.602  1.1764  0.1568 -1.4614
11179TIP3    H254953   3.170   0.399   3.517 -0.0946  0.1835  0.0219
11180TIP3   OH254954   0.280   6.790   2.554 -0.2700 -0.0068  0.4361
11180TIP3    H154955   0.239   6.853   2.613 -1.2036 -1.4957  1.4298
11180TIP3    H254956   0.374   6.812   2.557 -0.6410  1.8527  0.0551
11181TIP3   OH254957   6.791   1.941  12.138  0.4462 -0.2332  0.1261
11181TIP3    H154958   6.876   1.979  12.119  0.2233 -0.4353 -1.4403
11181TIP3    H254959   6.803   1.892  12.219  1.7607 -0.0960  0.0257
11182TIP3   OH254960   5.759   5.355  16.855 -0.5341  0.3423  0.0127
11182TIP3    H154961   5.740   5.298  16.781  0.4024  1.1673 -0.8921
11182TIP3    H254962   5.845   5.326  16.887  0.0014  1.2703 -0.5226
11183TIP3   OH254963   4.637   2.402  11.594 -0.4968 -0.3052  0.5089
11183TIP3    H154964   4.630   2.374  11.685 -0.2942  0.9556  0.9333
11183TIP3    H254965   4.577   2.476  11.587  0.6106  0.5789  0.0357
11184TIP3   OH254966   2.928   0.953   0.871  0.0591  0.1351 -0.7465
11184TIP3    H154967   3.021   0.941   0.855  0.1261 -0.0901 -0.2153
11184TIP3    H254968   2.887   0.941   0.785  0.6337  1.6506 -1.2679
11185TIP3   OH254969   3.639   2.070   4.344  0.0223 -0.2552 -0.2333
11185TIP3    H154970   3.582   2.009   4.298 -0.6852  0.4293 -0.2841
11185TIP3    H254971   3.595   2.088   4.427  1.4675 -1.7644  0.9388
11186TIP3   OH254972   1.886   5.041   5.122  0.2703  0.1071  0.1058
11186TIP3    H154973   1.822   5.082   5.063  1.8694  0.9665 -1.1146
11186TIP3    H254974   1.968   5.040   5.071  1.3227 -0.6090  1.7416
11187TIP3   OH254975   2.608   3.484  16.654 -0.5416  0.3477 -0.2111
11187TIP3    H154976   2.574   3.420  16.592 -0.0591 -1.0991  0.9563
11187TIP3    H254977   2.703   3.477  16.646 -0.4854  1.1478 -0.2853
11188TIP3   OH254978   6.691   4.946  13.232  0.3928 -0.4540  0.0741
11188TIP3    H154979   6.629   4.999  13.282  0.3870  1.3193 -1.6638
11188TIP3    H254980   6.714   4.874  13.290 -2.1231 -0.3417  1.3407
11189TIP3   OH254981   6.236   2.985   3.995 -0.0865 -0.6703 -0.1208
11189TIP3    H154982   6.157   2.933   3.979  0.0050 -0.8299 -0.0578
11189TIP3    H254983   6.250   2.978   4.089  0.2205 -0.9615 -0.1855
11190TIP3   OH254984   1.120   2.854  14.720 -0.3200 -1.3346 -0.0648
11190TIP3    H154985   1.145   2.897  14.802 -0.8956  0.8181 -0.9746
11190TIP3    H254986   1.040   2.806  14.741 -2.5527  2.0973 -0.1110
11191TIP3   OH254987   6.088   3.796   1.785  0.7184  0.2437 -0.2053
11191TIP3    H154988   6.119   3.739   1.855  1.1644 -0.1651 -0.7239
11191TIP3    H254989   6.058   3.875   1.829  1.1896  0.0757  0.4233
11192TIP3   OH254990   0.257   2.547   5.822 -0.0057  0.2438 -0.3686
11192TIP3    H154991   0.186   2.492   5.789  0.1998  0.1125 -0.5979
11192TIP3    H254992   0.310   2.488   5.876  0.4367  0.1183 -0.9363
11193TIP3   OH254993   0.198   1.868   5.127 -0.2415 -0.1191  0.2514
11193TIP3    H154994   0.152   1.949   5.104 -0.4176 -0.9344 -2.5266
11193TIP3    H254995   0.273   1.898   5.179 -0.3440  1.8275 -0.6322
11194TIP3   OH254996   6.044   6.761  12.080 -0.1890 -0.0636  0.8068
11194TIP3    H154997   6.017   6.840  12.126 -0.4200  1.5936 -1.9621
11194TIP3    H254998   6.004   6.769  11.993  2.1957 -1.7490 -0.5570
11195TIP3   OH254999   5.267   3.273  14.165 -0.0945 -0.4612  0.1791
11195TIP3    H155000   5.362   3.277  14.171 -0.0743  0.0246 -0.3436
11195TIP3    H255001   5.236   3.293  14.254  0.2440  2.3995 -0.2558
11196TIP3   OH255002   4.550   6.017  12.603 -0.5724 -0.0659 -0.0974
11196TIP3    H155003   4.592   6.037  12.687  1.7619  0.1176 -1.2400
11196TIP3    H255004   4.487   6.087  12.591 -2.3350 -1.0827  2.3127
11197TIP3   OH255005   3.404   1.957   4.821 -0.1556 -0.1083  0.1111
11197TIP3    H155006   3.314   1.940   4.848  0.3885 -2.0426  0.8836
11197TIP3    H255007   3.454   1.884   4.859  1.8048  1.1854  0.1135
11198TIP3   OH255008   5.861   5.759   3.586 -0.0231  0.0005  0.4636
11198TIP3    H155009   5.892   5.672   3.609  1.9632  0.9898  1.7665
11198TIP3    H255010   5.822   5.793   3.666 -0.1779  0.5768  0.1528
11199TIP3   OH255011   4.093   0.364  12.449 -0.2226  0.0258  0.2616
11199TIP3    H155012   4.003   0.390  12.464 -0.6216 -1.2909  0.3175
11199TIP3    H255013   4.134   0.440  12.407 -0.2004  2.2492  3.9243
11200TIP3   OH255014   3.891   3.562   1.830 -0.3635  0.5335 -0.4946
11200TIP3    H155015   3.834   3.639   1.839 -0.2568  0.6587 -0.9005
11200TIP3    H255016   3.834   3.494   1.794 -0.2543  0.6650 -0.9208
11201TIP3   OH255017   4.549   5.685  15.461 -0.1686 -0.3240 -0.5983
11201TIP3    H155018   4.455   5.691  15.442 -0.0120 -0.9359 -1.6229
11201TIP3    H255019   4.588   5.653  15.380  0.7604 -1.3706  0.2284
11202TIP3   OH255020   3.863   1.395   5.164 -0.2641  0.0719  0.1551
11202TIP3    H155021   3.955   1.373   5.179 -0.3495 -1.4137 -1.2933
11202TIP3    H255022   3.865   1.469   5.103 -0.0517  0.1845  0.2965
11203TIP3   OH255023   3.086   1.413  13.511  0.0936  0.7103 -0.2245
11203TIP3    H155024   3.063   1.322  13.531  0.8694  0.4970 -0.2769
11203TIP3    H255025   3.033   1.435  13.435 -0.7772  0.6013  0.3417
11204TIP3   OH255026   5.881   4.131   3.802 -0.1374 -0.5008  0.1479
11204TIP3    H155027   5.900   4.173   3.718  0.4493  0.0291  0.5398
11204TIP3    H255028   5.814   4.066   3.782  0.3380 -0.7108 -0.8259
11205TIP3   OH255029   1.057   3.743  16.234 -0.0737  0.7645  0.7744
11205TIP3    H155030   1.010   3.823  16.213 -0.7792  0.6192  1.7120
11205TIP3    H255031   1.052   3.690  16.155  0.9932  1.8949 -0.0908
11206TIP3   OH255032   4.215   5.046  15.834  0.5778 -0.1430 -0.8857
11206TIP3    H155033   4.155   4.974  15.813 -0.2377 -0.1329  1.2106
11206TIP3    H255034   4.159   5.114  15.870  1.4299  1.3230 -2.2202
11207TIP3   OH255035   1.242   2.468   1.135 -0.4241 -0.3001 -0.1156
11207TIP3    H155036   1.315   2.421   1.174 -0.0752  1.0174  0.9019
11207TIP3    H255037   1.278   2.510   1.057  0.3401  1.5301  1.1583
11208TIP3   OH255038   6.339   1.855  15.308  0.3443  0.5213  0.7886
11208TIP3    H155039   6.324   1.924  15.372 -0.5013  0.0900  1.0807
11208TIP3    H255040   6.340   1.774  15.360 -1.3253  0.0688  0.1737
11209TIP3   OH255041   5.920   5.141   0.232  0.0411 -0.1389 -0.0659
11209TIP3    H155042   5.928   5.144   0.137 -2.6290 -0.7438 -0.4001
11209TIP3    H255043   5.940   5.230   0.260  1.2189 -0.0432 -1.1370
11210TIP3   OH255044   2.233   5.310   3.190  0.4419 -0.1324 -0.9287
11210TIP3    H155045   2.291   5.235   3.198 -3.3183 -3.1966  1.0145
11210TIP3    H255046   2.256   5.367   3.264  1.9259 -0.4435 -1.1311
11211TIP3   OH255047   5.276   5.570  16.282 -0.1100 -0.2806  0.1111
11211TIP3    H155048   5.256   5.627  16.356  0.8698 -0.8900  0.8794
11211TIP3    H255049   5.340   5.507  16.317  2.0283  0.7099 -1.7862
11212TIP3   OH255050   4.036   2.771   0.192  0.2512  0.0978  0.1583
11212TIP3    H155051   4.014   2.680   0.212  1.3349  0.3716  3.1191
11212TIP3    H255052   4.043   2.774   0.096  1.0483 -3.1157  0.0102
11213TIP3   OH255053   6.042   5.252  11.755 -0.0274 -0.1581 -0.4220
11213TIP3    H155054   6.020   5.344  11.745 -1.1077 -0.3608 -0.0156
11213TIP3    H255055   5.958   5.206  11.755  0.4690 -1.1093 -0.2508
11214TIP3   OH255056   1.270   2.817  12.297 -0.7640  0.3498  0.2266
11214TIP3    H155057   1.273   2.786  12.206  0.4834  1.5663 -0.1619
11214TIP3    H255058   1.313   2.902  12.295  2.8221 -1.2205  2.6170
11215TIP3   OH255059   5.497   6.078  15.489  0.1944 -0.0882  0.0167
11215TIP3    H155060   5.494   6.086  15.584 -0.2101 -1.3535  0.1269
11215TIP3    H255061   5.452   5.996  15.470  2.5957 -1.2474 -1.0652
11216TIP3   OH255062   3.735   4.310  16.961  0.1318  0.2604 -0.3315
11216TIP3    H155063   3.784   4.386  16.930  0.0148 -0.2478 -1.8217
11216TIP3    H255064   3.649   4.345  16.982  0.7497  0.9492  1.2415
11217TIP3   OH255065   4.781   2.401   0.158  0.4775 -0.2651 -0.5856
11217TIP3    H155066   4.738   2.331   0.207 -0.1618  1.4409  1.4512
11217TIP3    H255067   4.725   2.415   0.081 -1.0567 -0.0293  0.5371
11218TIP3   OH255068   5.669   5.047  10.408  0.2999 -0.2988 -0.0115
11218TIP3    H155069   5.704   5.022  10.493  0.2798 -0.7824 -0.1434
11218TIP3    H255070   5.693   5.139  10.398 -0.2326 -0.0629  0.7858
11219TIP3   OH255071   6.400   3.587  16.157  0.0624  0.1306 -0.7279
11219TIP3    H155072   6.392   3.681  16.139 -2.3730  0.4619  1.4929
11219TIP3    H255073   6.314   3.551  16.137  0.0093 -1.0337  1.2925
11220TIP3   OH255074   5.543   5.393   4.165  0.1437 -0.0024 -0.3199
11220TIP3    H155075   5.621   5.355   4.207 -0.8389 -1.5753  0.1485
11220TIP3    H255076   5.515   5.327   4.102 -1.7566 -0.2026  0.6677
11221TIP3   OH255077   5.492   1.860  15.108  0.2357  0.0827  0.4669
11221TIP3    H155078   5.425   1.801  15.141  1.1543 -0.9091  0.6171
11221TIP3    H255079   5.450   1.907  15.036 -0.1561 -1.6576 -0.4791
11222TIP3   OH255080   2.028   0.641  14.804  0.4120  0.3956 -0.3304
11222TIP3    H155081   2.024   0.551  14.836  0.2555  0.2834 -0.6673
11222TIP3    H255082   2.105   0.644  14.747 -0.7064 -0.0419 -1.9037
11223TIP3   OH255083   0.934   1.649  16.524  0.4638 -0.3097  0.2668
11223TIP3    H155084   0.950   1.639  16.617 -0.4212  0.3499  0.4993
11223TIP3    H255085   0.852   1.602  16.509  0.3502 -0.0057 -0.0879
11224TIP3   OH255086   4.897   3.005  14.921 -0.6232  0.2326 -0.0757
11224TIP3    H155087   4.932   2.961  14.844 -0.1718 -1.0382  0.8143
11224TIP3    H255088   4.844   2.938  14.965  2.6844 -0.6743  3.0799
11225TIP3   OH255089   2.516   5.339   3.744 -0.2288  0.4139  0.3917
11225TIP3    H155090   2.547   5.366   3.658  1.7659  1.1406  1.2770
11225TIP3    H255091   2.441   5.282   3.726 -1.0287  2.0299 -1.7376
11226TIP3   OH255092   3.195   2.280  10.708  0.0528 -0.8169 -0.0409
11226TIP3    H155093   3.270   2.339  10.699  1.3905 -2.5446 -0.6810
11226TIP3    H255094   3.229   2.193  10.686 -2.2132 -1.6317 -0.6635
11227TIP3   OH255095   4.154   1.147   0.750 -0.3670  0.0301  0.1119
11227TIP3    H155096   4.075   1.164   0.699  0.2947 -1.5569 -1.5634
11227TIP3    H255097   4.185   1.234   0.776 -2.0173  0.7392 -0.1614
11228TIP3   OH255098   2.787   0.616  12.677  0.4325 -0.1098  0.4243
11228TIP3    H155099   2.795   0.611  12.772  0.4777  0.6151  0.4656
11228TIP3    H255100   2.713   0.559  12.656  0.0277  0.2066  0.9608
11229TIP3   OH255101   2.629   0.033  15.198  0.0186  0.1135 -0.3076
11229TIP3    H155102   2.668   0.082  15.126 -1.9539 -1.3498 -2.5072
11229TIP3    H255103   2.663  -0.056  15.188  1.6840  0.3493  2.1880
11230TIP3   OH255104   5.704   5.403   3.107 -0.1533 -0.0977 -0.4166
11230TIP3    H155105   5.633   5.343   3.087 -0.3941  0.0807 -0.0976
11230TIP3    H255106   5.664   5.490   3.105  0.1395  0.0345 -0.6268
11231TIP3   OH255107   3.670   5.740   3.260  0.4944 -0.1735  0.2665
11231TIP3    H155108   3.602   5.766   3.198 -0.1727 -2.4771 -0.0718
11231TIP3    H255109   3.622   5.703   3.335  1.3431  0.3890  1.1206
11232TIP3   OH255110   2.190   3.362   6.000 -0.0683  0.1036 -0.5137
11232TIP3    H155111   2.254   3.366   6.072 -0.3917  0.0433 -0.2203
11232TIP3    H255112   2.156   3.273   6.004  0.4639 -0.1395 -1.2281
11233TIP3   OH255113   6.689   1.709  12.003 -0.3449  0.1793  0.2336
11233TIP3    H155114   6.763   1.659  11.969  0.1880  1.9838 -1.4648
11233TIP3    H255115   6.728   1.789  12.039 -1.4457  1.5009 -1.3626
11234TIP3   OH255116   1.382   4.345  15.379  0.0679 -0.3543 -0.9302
11234TIP3    H155117   1.423   4.378  15.299  0.9309  0.6042 -0.1075
11234TIP3    H255118   1.452   4.343  15.444 -0.4267 -1.9091 -0.3889
11235TIP3   OH255119   3.023   3.505   1.191  0.1722  0.0084  0.3719
11235TIP3    H155120   3.009   3.413   1.211  0.0788  0.2243  1.3845
11235TIP3    H255121   2.937   3.539   1.169  0.3114 -0.2855 -0.6333
11236TIP3   OH255122   0.412   0.022  11.496 -0.0873  0.0933 -0.3626
11236TIP3    H155123   0.434   0.067  11.577 -0.3388 -0.4046 -0.0101
11236TIP3    H255124   0.319   0.038  11.484 -0.1665 -0.2813 -0.2628
11237TIP3   OH255125   6.137   6.674  14.971 -0.4053 -0.3488 -0.1710
11237TIP3    H155126   6.130   6.608  14.903  0.5248 -2.9227  2.0350
11237TIP3    H255127   6.049   6.711  14.978 -1.5101 -2.7572 -0.2476
11238TIP3   OH255128   4.197   1.246   1.977 -0.1582 -0.0097 -0.1589
11238TIP3    H155129   4.116   1.274   2.021 -0.6307 -0.3416 -0.7959
11238TIP3    H255130   4.234   1.327   1.942  0.2495  0.2687  0.8659
11239TIP3   OH255131   2.325   0.406   0.392  0.2044 -0.1572 -0.6405
11239TIP3    H155132   2.336   0.341   0.461 -0.6870  1.5539  1.2196
11239TIP3    H255133   2.276   0.360   0.324 -0.3365 -1.4633  0.5718
11240TIP3   OH255134   3.270   3.966   1.510 -0.1742 -0.3475 -0.1637
11240TIP3    H155135   3.311   4.036   1.562  0.0817  0.0053 -0.8329
11240TIP3    H255136   3.327   3.891   1.524 -0.6693 -0.5542  0.8827
11241TIP3   OH255137   0.284   6.449  14.912  0.1518 -0.4865 -0.6107
11241TIP3    H155138   0.345   6.418  14.979 -2.9102 -2.6099  1.4763
11241TIP3    H255139   0.219   6.500  14.960 -0.1862  1.0937 -2.6155
11242TIP3   OH255140   2.128   1.371   2.627 -0.2263  0.2229 -0.5589
11242TIP3    H155141   2.043   1.330   2.612  0.8722 -2.2445 -0.4716
11242TIP3    H255142   2.189   1.322   2.571  1.5609  0.1536  1.3130
11243TIP3   OH255143   1.760   1.021  16.932  0.6501 -0.9218  0.1123
11243TIP3    H155144   1.761   1.116  16.940  0.7646 -0.7545 -1.5305
11243TIP3    H255145   1.668   1.000  16.914  1.0492 -0.7761 -2.4924
11244TIP3   OH255146   3.711   5.275  12.398  0.1626 -0.0965  0.3675
11244TIP3    H155147   3.789   5.320  12.365  0.7752 -1.5245 -0.2332
11244TIP3    H255148   3.698   5.202  12.337 -0.1462 -1.3778  1.9101
11245TIP3   OH255149   5.537   4.930   0.559 -0.1654  0.4468  0.3999
11245TIP3    H155150   5.538   4.992   0.632 -1.0431  0.6518  0.2441
11245TIP3    H255151   5.492   4.976   0.488 -0.2957 -0.1504  0.0868
11246TIP3   OH255152   0.432   6.365   5.540 -0.2403  0.3319  0.5624
11246TIP3    H155153   0.519   6.328   5.526 -0.7449 -0.6141 -0.2029
11246TIP3    H255154   0.426   6.438   5.478  0.4545  1.2285  1.5065
11247TIP3   OH255155   4.124   6.542   6.017  0.5049 -0.1991 -0.4765
11247TIP3    H155156   4.204   6.499   5.988  1.0058 -0.2182  0.8674
11247TIP3    H255157   4.088   6.483   6.084  0.9601  1.2091  1.0764
11248TIP3   OH255158   4.681   5.433   3.551 -0.3216  0.0922  0.3662
11248TIP3    H155159   4.733   5.397   3.479 -1.6349 -0.0159 -0.5570
11248TIP3    H255160   4.737   5.502   3.588  0.3177  0.2703 -0.8687
11249TIP3   OH255161   1.124   6.727   4.421 -0.2219 -0.0570 -0.4021
11249TIP3    H155162   1.151   6.813   4.454  2.0828  0.8958 -4.1300
11249TIP3    H255163   1.028   6.729   4.422 -0.2139  1.8956  1.0507
11250TIP3   OH255164   5.356   4.238  12.765  0.0210  0.3877 -0.2642
11250TIP3    H155165   5.358   4.146  12.738  0.4415  0.6013 -0.9816
11250TIP3    H255166   5.279   4.274  12.720  0.6533  0.7147 -1.1011
11251TIP3   OH255167   3.746   5.412  11.516 -0.5484 -0.4273  0.3467
11251TIP3    H155168   3.718   5.325  11.545 -1.3541 -0.1040  0.5608
11251TIP3    H255169   3.712   5.421  11.427 -2.7429  0.6451  1.2132
11252TIP3   OH255170   4.342   6.016  16.316  0.4813 -0.4455 -0.1360
11252TIP3    H155171   4.302   6.031  16.230  1.2022 -0.8676 -0.5554
11252TIP3    H255172   4.303   5.934  16.346  0.5174 -0.4977 -0.2306
11253TIP3   OH255173   5.352   0.132   2.702  0.1175  0.5220  0.2672
11253TIP3    H155174   5.364   0.212   2.754  1.4533  0.5719 -0.0812
11253TIP3    H255175   5.344   0.062   2.767 -0.5136  0.8651  0.5648
11254TIP3   OH255176   4.664   2.540   4.497 -0.4301 -0.6437 -0.1202
11254TIP3    H155177   4.669   2.579   4.584 -1.8531 -4.2164  1.7787
11254TIP3    H255178   4.593   2.587   4.454 -0.4052  0.5178  1.0518
11255TIP3   OH255179   4.296   1.195  12.736 -0.2088 -0.2935 -0.3193
11255TIP3    H155180   4.260   1.277  12.770  2.1582  0.9088 -0.5370
11255TIP3    H255181   4.319   1.144  12.814  0.8805  0.4743 -0.1145
11256TIP3   OH255182   1.202   1.629  16.428  0.0267  0.0320  0.3958
11256TIP3    H155183   1.112   1.635  16.461 -0.3503 -0.9177 -0.4112
11256TIP3    H255184   1.234   1.719  16.429 -1.4164  0.5836 -0.5901
11257TIP3   OH255185   5.385   2.450  12.522  0.4102 -0.2080 -0.1035
11257TIP3    H155186   5.435   2.515  12.571  1.2129 -2.1193  1.7494
11257TIP3    H255187   5.300   2.447  12.566  0.2539 -0.2051 -0.3998
11258TIP3   OH255188   2.357   0.394  12.618  0.0037 -0.2165  0.1130
11258TIP3    H155189   2.336   0.487  12.611  0.6548 -0.0206  0.6424
11258TIP3    H255190   2.354   0.362  12.528 -0.0520  0.3596 -0.0954
11259TIP3   OH255191   4.485   0.520   1.888  0.2087 -0.5030  0.1000
11259TIP3    H155192   4.435   0.438   1.889 -0.6900  0.0463  0.7208
11259TIP3    H255193   4.555   0.506   1.952 -0.7311 -0.3148  1.1907
11260TIP3   OH255194   6.719   0.135  14.128  1.4649 -0.3780  0.7479
11260TIP3    H155195   6.701   0.112  14.219  3.3315 -0.1906  1.2058
11260TIP3    H255196   6.813   0.123  14.118  1.4933  0.7588 -0.8169
11261TIP3   OH255197   3.657   2.071  13.003 -0.0375 -0.7770  1.0046
11261TIP3    H155198   3.727   2.110  12.950  0.3125 -0.4708  1.6761
11261TIP3    H255199   3.607   2.145  13.036 -1.2870 -1.0188 -0.2358
11262TIP3   OH255200   1.389   1.961   1.788  0.6990  0.2822 -0.6603
11262TIP3    H155201   1.374   1.875   1.829 -0.9731  0.4735 -0.7888
11262TIP3    H255202   1.465   1.996   1.834  0.2701 -0.4792  0.7086
11263TIP3   OH255203   0.503   5.556  13.374 -0.3617  0.1694 -0.6742
11263TIP3    H155204   0.549   5.564  13.457 -0.4162 -0.6270 -0.5593
11263TIP3    H255205   0.410   5.560  13.397 -0.3773  1.0641 -0.8302
11264TIP3   OH255206   4.364   5.201   3.860  0.6485 -0.0162  0.7613
11264TIP3    H155207   4.380   5.108   3.842  1.5031  0.2913 -0.1567
11264TIP3    H255208   4.336   5.237   3.776  1.5178  0.7996  0.8059
11265TIP3   OH255209   2.234   1.085   2.743  0.1275 -0.3523 -0.1254
11265TIP3    H155210   2.259   1.030   2.817 -1.1475  0.3430  0.8540
11265TIP3    H255211   2.148   1.052   2.716 -0.0990  0.3621 -0.3105
11266TIP3   OH255212   1.377   3.149   5.900  0.3929 -0.5656 -0.4929
11266TIP3    H155213   1.337   3.195   5.974  1.1565 -0.2786 -0.2534
11266TIP3    H255214   1.334   3.185   5.823 -0.1427 -0.5987 -0.2149
11267TIP3   OH255215   2.841   4.384  11.752 -0.3866  0.6914  0.1640
11267TIP3    H155216   2.788   4.315  11.713  0.5570 -0.0617  0.1964
11267TIP3    H255217   2.789   4.415  11.827 -1.1575  0.5687 -0.3098
11268TIP3   OH255218   4.025   4.902   5.287  0.7265 -0.8478  0.2654
11268TIP3    H155219   3.952   4.865   5.237  1.3960 -0.5332 -0.9906
11268TIP3    H255220   4.042   4.837   5.355 -0.7013 -0.9329  0.5701
11269TIP3   OH255221   3.666   5.003  13.359 -0.2907  0.1915 -0.1331
11269TIP3    H155222   3.702   4.916  13.341 -0.4705  0.5947 -2.8634
11269TIP3    H255223   3.742   5.061  13.355 -0.5976  0.5314 -1.7932
11270TIP3   OH255224   5.974   2.175   2.714  0.3725 -0.1651  0.0469
11270TIP3    H155225   6.031   2.140   2.782  1.9390  1.9634 -0.0685
11270TIP3    H255226   5.939   2.256   2.751 -0.1614  0.1220 -1.0288
11271TIP3   OH255227   1.214   2.085  12.606 -0.5839  0.4451  0.2188
11271TIP3    H155228   1.250   2.174  12.607 -0.1665  0.2925 -0.4558
11271TIP3    H255229   1.217   2.057  12.698  1.3239  0.3332  0.1712
11272TIP3   OH255230   2.529   1.882   4.622 -0.2874  0.5609 -0.5638
11272TIP3    H155231   2.466   1.819   4.586 -0.8467  0.4764  0.5398
11272TIP3    H255232   2.600   1.829   4.657  0.2103  0.6401 -1.4275
11273TIP3   OH255233   2.846   1.325  17.078 -0.5318  0.4031  0.3546
11273TIP3    H155234   2.819   1.318  16.986 -0.6946  1.4751  0.2997
11273TIP3    H255235   2.811   1.410  17.106 -0.6117  0.0209  1.4527
11274TIP3   OH255236   2.273   2.635   6.187 -0.3554  0.3151  0.2185
11274TIP3    H155237   2.179   2.613   6.189 -0.4626  0.7964  1.2113
11274TIP3    H255238   2.301   2.625   6.278  0.2186  1.5824  0.1932
11275TIP3   OH255239   5.846   0.084   1.203  0.7728 -0.2840 -0.6923
11275TIP3    H155240   5.843  -0.006   1.173 -1.2269  0.5345 -3.3354
11275TIP3    H255241   5.806   0.082   1.290 -1.5222 -1.7167 -1.6770
11276TIP3   OH255242   5.153   5.552  15.896 -1.0024  0.6972 -0.1128
11276TIP3    H155243   5.173   5.469  15.854 -2.3212 -1.0553  2.4162
11276TIP3    H255244   5.238   5.591  15.915 -0.3044 -0.6688 -0.3108
11277TIP3   OH255245   1.725   6.393   4.766 -0.1306  0.0397 -0.1761
11277TIP3    H155246   1.793   6.333   4.735 -0.2769  0.4720 -1.3785
11277TIP3    H255247   1.761   6.431   4.846 -0.3439 -2.1760  1.0303
11278TIP3   OH255248   4.422   4.411  13.462 -0.3202 -0.0898  0.5955
11278TIP3    H155249   4.511   4.447  13.469 -0.0296 -0.7547  0.3720
11278TIP3    H255250   4.412   4.389  13.369 -1.0636  0.8282  0.4365
11279TIP3   OH255251   1.665   2.676  16.898  0.1450 -0.2558 -0.1003
11279TIP3    H155252   1.651   2.659  16.991  0.2771 -0.9892 -0.2071
11279TIP3    H255253   1.728   2.747  16.895  0.3000 -0.3727  0.3712
11280TIP3   OH255254   6.738   0.695  17.090 -0.4116  0.4645 -0.2281
11280TIP3    H155255   6.666   0.645  17.051 -1.5707  1.9220 -0.0559
11280TIP3    H255256   6.706   0.719  17.177  1.6229 -1.6399  1.2202
11281TIP3   OH255257   3.848   6.336  16.159 -0.1300  0.1281  0.3582
11281TIP3    H155258   3.777   6.343  16.096 -0.9242  0.2382  1.2299
11281TIP3    H255259   3.848   6.421  16.204  2.1244  1.0416 -1.2108
11282TIP3   OH255260   0.036   1.160   2.920 -0.5919 -0.2963 -0.2255
11282TIP3    H155261   0.120   1.201   2.897 -0.3590 -0.2628  0.6539
11282TIP3    H255262   0.055   1.066   2.921 -0.4614 -0.2682  0.3485
11283TIP3   OH255263   3.354   1.566   4.618  0.1189  0.1772  0.3462
11283TIP3    H155264   3.437   1.610   4.635  0.4523 -0.8090  1.3815
11283TIP3    H255265   3.293   1.603   4.681 -0.2132  0.7925 -0.3147
11284TIP3   OH255266   1.227   3.820  15.628  0.6142 -0.4404 -0.8485
11284TIP3    H155267   1.239   3.847  15.719  0.8025 -0.7538 -0.7789
11284TIP3    H255268   1.132   3.820  15.616  0.5999 -0.0442 -0.7625
11285TIP3   OH255269   6.103   1.335   0.148 -0.9422  0.0880 -0.5286
11285TIP3    H155270   6.075   1.426   0.139 -1.9194 -0.1840 -0.4115
11285TIP3    H255271   6.076   1.293   0.067 -1.8096 -0.4093 -0.0047
11286TIP3   OH255272   5.992   2.687  15.483  0.4790 -0.3427 -0.5579
11286TIP3    H155273   5.957   2.598  15.479 -0.5608  0.0292 -0.0276
11286TIP3    H255274   6.045   2.689  15.562  1.0281 -0.6633 -0.9092
11287TIP3   OH255275   0.628   0.171   5.512  0.1479  0.0215  0.2329
11287TIP3    H155276   0.630   0.080   5.539  0.6197 -0.0180  0.0704
11287TIP3    H255277   0.611   0.169   5.418 -0.2075  0.1171  0.2913
11288TIP3   OH255278   4.296   1.423   2.973 -0.2953  0.4249 -0.0438
11288TIP3    H155279   4.296   1.518   2.964 -1.0434  0.4335 -0.0037
11288TIP3    H255280   4.297   1.391   2.883  0.1253  0.4642 -0.0565
11289TIP3   OH255281   3.786   5.998  12.623 -0.2257  0.3846 -0.8360
11289TIP3    H155282   3.868   6.034  12.591 -0.4785 -0.0797 -2.1001
11289TIP3    H255283   3.770   6.042  12.706  1.7375 -0.1509 -0.1143
11290TIP3   OH255284   0.012   6.134   2.479  0.3148  0.0658 -0.4184
11290TIP3    H155285   0.027   6.117   2.572  0.6887 -1.2194 -0.6963
11290TIP3    H255286   0.093   6.175   2.449 -0.3450  1.8738  0.1097
11291TIP3   OH255287   2.219   4.339  12.791 -0.0963  0.9984 -0.5326
11291TIP3    H155288   2.205   4.355  12.884  0.0632 -0.1075 -0.2991
11291TIP3    H255289   2.138   4.366  12.749  0.4125  3.0196 -0.2848
11292TIP3   OH255290   4.738   0.965   5.977  0.8229  0.5797  0.1023
11292TIP3    H155291   4.694   1.037   6.022  1.6850  0.5966  0.9626
11292TIP3    H255292   4.697   0.961   5.891 -0.9513  0.5004  0.9039
11293TIP3   OH255293   2.444   4.573  16.268  0.3786 -0.7038 -0.3445
11293TIP3    H155294   2.400   4.532  16.342 -0.4863  0.2340 -0.3171
11293TIP3    H255295   2.466   4.500  16.209  0.7104 -1.4072  0.6300
11294TIP3   OH255296   0.445   5.409   2.370  0.1014  0.3721 -0.2555
11294TIP3    H155297   0.429   5.447   2.283  2.1110 -2.7826 -2.1817
11294TIP3    H255298   0.359   5.376   2.397 -0.1267 -1.0777 -2.4379
11295TIP3   OH255299   5.848   3.027  16.762  0.7182  0.2885 -0.2238
11295TIP3    H155300   5.792   3.011  16.838  1.3995  0.2680  0.2792
11295TIP3    H255301   5.812   3.106  16.722  0.7481  0.6760  0.4940
11296TIP3   OH255302   0.833   6.016   5.443 -0.1706  0.2034 -0.1627
11296TIP3    H155303   0.865   6.003   5.354  0.3911 -0.5526  0.1464
11296TIP3    H255304   0.862   5.939   5.491 -0.8175  0.4124  0.5844
11297TIP3   OH255305   4.622   2.899   5.923 -0.5724  0.2482  0.0268
11297TIP3    H155306   4.576   2.964   5.869  0.2780  1.1133  0.3145
11297TIP3    H255307   4.564   2.823   5.924 -1.3400  0.8067 -0.7717
11298TIP3   OH255308   2.214   0.073  15.836 -0.6372  0.3523  0.8836
11298TIP3    H155309   2.298   0.115  15.852 -0.1460  0.1065 -0.8844
11298TIP3    H255310   2.219   0.043  15.745 -2.5479  0.1296  0.8185
11299TIP3   OH255311   3.451   0.095  14.655 -0.7221  0.1068 -0.7192
11299TIP3    H155312   3.494   0.014  14.683 -0.3328  0.6039  0.1439
11299TIP3    H255313   3.513   0.136  14.595 -0.9398 -0.2443 -1.1946
11300TIP3   OH255314   0.151   3.600   0.768  0.2021  0.5977 -0.2752
11300TIP3    H155315   0.078   3.549   0.734  0.0478  1.2411 -0.9342
11300TIP3    H255316   0.139   3.599   0.863  0.1862 -0.5504 -0.2773
11301TIP3   OH255317   5.586   2.231   2.541 -0.7776 -0.0917 -0.6673
11301TIP3    H155318   5.661   2.182   2.575 -1.2431  0.1930  0.8494
11301TIP3    H255319   5.578   2.203   2.450  0.5663 -0.8528 -0.5742
11302TIP3   OH255320   1.966   4.505   2.546  0.2389  0.2905 -0.1436
11302TIP3    H155321   1.980   4.492   2.452  0.6613 -0.9382  0.0762
11302TIP3    H255322   1.948   4.599   2.554  0.4277  0.4599 -1.4191
11303TIP3   OH255323   3.392   1.101   0.226  0.4630 -0.1725 -0.0813
11303TIP3    H155324   3.483   1.075   0.215  1.0989  1.1319  1.6251
11303TIP3    H255325   3.389   1.145   0.311 -2.3402 -2.6640  1.3221
11304TIP3   OH255326   5.645   6.688  16.280  0.1977  0.3397  0.3683
11304TIP3    H155327   5.709   6.691  16.350  0.1111 -0.7754  0.5070
11304TIP3    H255328   5.621   6.596  16.272  0.2797  0.4168 -1.1894
11305TIP3   OH255329   6.548   5.734   2.916 -0.1703 -0.0244  0.0577
11305TIP3    H155330   6.575   5.646   2.944 -0.2932 -0.2643 -0.5782
11305TIP3    H255331   6.628   5.773   2.881  0.0651  0.4022  1.0308
11306TIP3   OH255332   6.188   6.196   3.447 -0.5858 -0.0577 -0.3265
11306TIP3    H155333   6.171   6.211   3.540  0.3295 -0.6289 -0.0487
11306TIP3    H255334   6.161   6.105   3.432  0.2425 -0.3126 -0.3532
11307TIP3   OH255335   6.300   1.529  11.283  0.6145  0.4927  0.1392
11307TIP3    H155336   6.227   1.582  11.252  1.5122  1.9706  0.4324
11307TIP3    H255337   6.289   1.444  11.240 -1.2840  0.6613  0.2270
11308TIP3   OH255338   5.538   1.644  11.298 -0.1979 -0.2796  0.3636
11308TIP3    H155339   5.547   1.575  11.232 -0.5270 -0.3142  0.3535
11308TIP3    H255340   5.467   1.614  11.354  0.4940 -0.5571  1.1118
11309TIP3   OH255341   1.257   1.115  13.729 -0.0793 -0.2893  0.1151
11309TIP3    H155342   1.286   1.081  13.644 -0.8522 -1.9084  0.4622
11309TIP3    H255343   1.175   1.068  13.747 -1.1223  1.6594  0.7388
11310TIP3   OH255344   2.544   0.304  12.869 -0.4154  0.1428 -0.1955
11310TIP3    H155345   2.619   0.303  12.809 -1.0647 -0.2275 -1.0373
11310TIP3    H255346   2.469   0.326  12.813 -0.7987  1.5378  0.8089
11311TIP3   OH255347   2.305   3.697  16.603  0.2121 -0.2914 -0.1302
11311TIP3    H155348   2.253   3.764  16.558 -0.5780  1.0386  2.5731
11311TIP3    H255349   2.396   3.727  16.593  0.0585  0.0048 -0.7284
11312TIP3   OH255350   4.534   2.581  16.518 -0.6910 -0.2054  0.0908
11312TIP3    H155351   4.580   2.506  16.555 -2.7027 -1.7615 -0.4013
11312TIP3    H255352   4.555   2.579  16.425  0.0394  0.4747  0.2260
11313TIP3   OH255353   0.531   3.755   0.442  0.4015  0.7568 -0.0214
11313TIP3    H155354   0.539   3.693   0.369 -0.3599  0.7932 -0.1449
11313TIP3    H255355   0.445   3.794   0.431 -0.0913  0.1447  1.3907
11314TIP3   OH255356   1.396   6.731   0.878 -0.3436  0.2738  0.4598
11314TIP3    H155357   1.383   6.714   0.785  1.5043 -0.5234  0.2943
11314TIP3    H255358   1.395   6.827   0.886  0.9958  0.4087 -0.6616
11315TIP3   OH255359   4.495   4.025   2.752  0.7300  0.4622  0.3137
11315TIP3    H155360   4.490   3.974   2.671 -1.9005  0.7217  0.2298
11315TIP3    H255361   4.464   3.965   2.820  2.2896  0.4558  1.0579
11316TIP3   OH255362   0.304   1.718  12.414  0.3165  0.0104  0.7249
11316TIP3    H155363   0.366   1.666  12.363  0.5259  1.4664 -0.5809
11316TIP3    H255364   0.340   1.807  12.412 -1.5701  0.8157  0.2715
11317TIP3   OH255365   1.102   6.429  14.856 -0.1815  0.3173  0.3185
11317TIP3    H155366   1.125   6.445  14.948  0.0361 -1.3806  0.5922
11317TIP3    H255367   1.181   6.450  14.807  0.0560  0.1552  0.6325
11318TIP3   OH255368   0.034   4.993  17.092  0.4675 -0.4755 -0.3074
11318TIP3    H155369  -0.053   5.033  17.097  0.9732  0.8856 -1.8096
11318TIP3    H255370   0.058   4.977  17.183 -0.7016  0.5544  0.2120
11319TIP3   OH255371   3.943   2.497  13.865  0.3315  0.0089  0.6824
11319TIP3    H155372   3.924   2.590  13.879  1.5732  0.7050 -1.6377
11319TIP3    H255373   4.039   2.493  13.862  0.3082 -0.7477 -2.1528
11320TIP3   OH255374   2.745   6.532   0.628 -0.2835 -0.1040 -0.4218
11320TIP3    H155375   2.807   6.605   0.629 -1.0147  0.5330 -0.4461
11320TIP3    H255376   2.667   6.567   0.670 -0.6029 -0.9186 -0.3311
11321TIP3   OH255377   4.394   5.116  16.870 -0.2265  0.7777  0.0580
11321TIP3    H155378   4.393   5.107  16.775 -2.5076 -0.2407  0.1076
11321TIP3    H255379   4.469   5.172  16.888  0.5455  0.6164 -2.2895
11322TIP3   OH255380   2.697   6.486  14.420  0.1628  0.0814 -0.3916
11322TIP3    H155381   2.712   6.395  14.443  1.5232  0.4372  0.1867
11322TIP3    H255382   2.644   6.482  14.340 -0.7042 -1.1887  0.2089
11323TIP3   OH255383   2.650   5.587   3.269  0.3589 -0.0339 -0.1829
11323TIP3    H155384   2.719   5.653   3.272  0.9788 -0.6987  1.0509
11323TIP3    H255385   2.591   5.610   3.341 -0.7266  0.5246 -1.2229
11324TIP3   OH255386   5.903   5.262   2.212 -0.2951 -0.2487  0.4469
11324TIP3    H155387   5.826   5.256   2.269  0.0173  0.0085  0.9005
11324TIP3    H255388   5.877   5.217   2.131 -1.0394  0.1353  0.4666
11325TIP3   OH255389   0.124   0.350  13.359  0.1643 -0.6018 -1.1488
11325TIP3    H155390   0.113   0.404  13.280  1.3500  1.2373 -0.1484
11325TIP3    H255391   0.045   0.368  13.411 -0.4022 -1.4589 -1.6904
11326TIP3   OH255392   1.866   0.323  16.178  0.1009 -0.6177 -0.2769
11326TIP3    H155393   1.898   0.250  16.126 -0.3992 -0.3549 -0.9690
11326TIP3    H255394   1.851   0.393  16.115  1.3692  0.3771  0.4709
11327TIP3   OH255395   2.802   1.667   4.459  0.2721 -0.0129  0.2183
11327TIP3    H155396   2.790   1.708   4.544 -0.3332  0.9962 -0.3395
11327TIP3    H255397   2.859   1.592   4.476 -0.6457 -0.3985  1.6641
11328TIP3   OH255398   2.230   3.267  11.312 -0.1430 -0.2033  0.9419
11328TIP3    H155399   2.159   3.281  11.248  2.3023 -1.6140 -2.3896
11328TIP3    H255400   2.186   3.228  11.387 -3.0643  0.1754 -0.4105
11329TIP3   OH255401   3.470   4.160   2.874 -0.5871  0.0529  0.0213
11329TIP3    H155402   3.375   4.157   2.890 -0.8102  0.2052 -1.2177
11329TIP3    H255403   3.486   4.250   2.846  0.1927  0.4718  1.6667
11330TIP3   OH255404   0.917   0.212   4.197  0.0152 -0.4829  0.2792
11330TIP3    H155405   0.919   0.176   4.109  0.5650 -0.0860  0.1304
11330TIP3    H255406   0.877   0.142   4.250  1.0888 -1.3274 -0.0025
11331TIP3   OH255407   2.659   2.824  14.545 -0.2819  0.0214  0.2069
11331TIP3    H155408   2.613   2.887  14.490  1.4116  0.2161 -1.0498
11331TIP3    H255409   2.726   2.786  14.489  0.2087 -1.2676  1.5809
11332TIP3   OH255410   3.669   1.828  14.054 -0.2844 -0.3616 -0.1158
11332TIP3    H155411   3.707   1.883  13.986 -0.2091 -1.6400 -1.1388
11332TIP3    H255412   3.680   1.879  14.135  0.5583  0.7289 -0.8882
11333TIP3   OH255413   3.283   2.270   1.794  0.1552 -0.2878 -0.4488
11333TIP3    H155414   3.298   2.262   1.700 -0.4352 -1.5741 -0.4519
11333TIP3    H255415   3.200   2.316   1.801 -0.1133 -0.7513 -0.5712
11334TIP3   OH255416   2.838   0.206  14.656  0.2144  0.3901 -0.0583
11334TIP3    H155417   2.858   0.209  14.563 -0.7459 -1.2509 -0.3573
11334TIP3    H255418   2.888   0.131  14.688  0.1608  0.6526  0.6542
11335TIP3   OH255419   1.399   4.356   1.768  0.1648  0.1860 -0.3185
11335TIP3    H155420   1.489   4.371   1.800 -0.0543  0.0195  0.4058
11335TIP3    H255421   1.350   4.332   1.847 -0.2413 -0.9910 -0.9192
11336TIP3   OH255422   5.237   3.561   5.278  0.0958  0.7338  0.8533
11336TIP3    H155423   5.315   3.615   5.268  0.6957  0.6978  4.2096
11336TIP3    H255424   5.249   3.516   5.362 -2.7415 -0.6501  0.6500
11337TIP3   OH255425   4.120   5.028   1.648  0.3168 -0.3389 -0.6160
11337TIP3    H155426   4.089   4.995   1.564  0.5276 -1.1925 -0.3654
11337TIP3    H255427   4.059   5.099   1.670 -0.2121 -0.6383 -1.1029
11338TIP3   OH255428   3.190   3.610   5.367  0.5920 -0.5251 -0.5125
11338TIP3    H155429   3.179   3.520   5.396 -0.2761 -0.6001 -1.0380
11338TIP3    H255430   3.116   3.657   5.406  2.1003  0.3886  1.3702
11339TIP3   OH255431   5.486   6.126   1.855  0.3326 -0.4553  0.0214
11339TIP3    H155432   5.505   6.153   1.765 -0.8688  0.1730 -0.0576
11339TIP3    H255433   5.404   6.078   1.849 -0.8823  1.3573  1.0212
11340TIP3   OH255434   5.803   4.186   4.934  0.5488  0.4594  0.1462
11340TIP3    H155435   5.858   4.261   4.958  0.6254  0.4851 -0.0977
11340TIP3    H255436   5.732   4.224   4.882  0.5121  0.3794  0.1380
11341TIP3   OH255437   0.091   3.610  16.932  0.2605 -0.6854 -0.4897
11341TIP3    H155438  -0.004   3.616  16.916 -0.0430  0.3081  1.4092
11341TIP3    H255439   0.130   3.657  16.858 -0.6929 -1.4335 -1.5052
11342TIP3   OH255440   2.809   6.276   5.337 -0.3358 -0.5649 -0.2496
11342TIP3    H155441   2.794   6.213   5.407  0.5303 -0.7229 -0.1920
11342TIP3    H255442   2.747   6.347   5.354 -0.0725 -0.5583  0.7337
11343TIP3   OH255443   5.824   6.044   2.884 -0.2095  0.1013  0.0039
11343TIP3    H155444   5.917   6.034   2.866  0.1972 -0.0874  1.9773
11343TIP3    H255445   5.816   6.134   2.916 -0.4842 -0.2322  0.9103
11344TIP3   OH255446   5.519   1.835  11.071 -0.4427 -0.3318  0.1937
11344TIP3    H155447   5.530   1.773  11.143 -1.8551 -0.1291  0.6042
11344TIP3    H255448   5.504   1.919  11.114 -0.3938 -0.0382 -0.3573
11345TIP3   OH255449   6.660   3.760  12.172  0.2061  0.0450 -0.1035
11345TIP3    H155450   6.754   3.749  12.178  0.2427 -1.8735 -2.6227
11345TIP3    H255451   6.624   3.676  12.201 -0.6909  0.3223 -0.3650
11346TIP3   OH255452   1.193   2.707  13.728 -0.1969 -0.0647  0.0377
11346TIP3    H155453   1.200   2.673  13.817 -1.0214 -0.6561 -0.1178
11346TIP3    H255454   1.246   2.787  13.729  1.7310 -1.2904  0.4209
11347TIP3   OH255455   6.510   2.321  14.732 -0.2834  0.5207  0.1038
11347TIP3    H155456   6.436   2.302  14.675 -0.8699  1.2039  0.6264
11347TIP3    H255457   6.528   2.414  14.719  0.2343  0.4501  0.2703
11348TIP3   OH255458   1.070   2.137   0.862 -0.3995  0.0243  0.3668
11348TIP3    H155459   1.162   2.164   0.861 -0.5976  0.7248 -0.8000
11348TIP3    H255460   1.023   2.210   0.821 -1.7346  0.5179  2.5789
11349TIP3   OH255461   0.538   4.176   2.650  0.2307  0.7147  0.8176
11349TIP3    H155462   0.442   4.172   2.656  0.2731 -0.0451  1.0806
11349TIP3    H255463   0.562   4.105   2.591  0.5093  2.1843 -0.9192
11350TIP3   OH255464   3.631   2.913   1.854  0.3151  0.6070  0.5452
11350TIP3    H155465   3.688   2.865   1.794  0.5658  1.1865  0.3086
11350TIP3    H255466   3.616   2.853   1.927  0.4952  0.1184  0.1857
11351TIP3   OH255467   2.902   4.884   0.746 -0.0255 -0.3054 -0.6914
11351TIP3    H155468   2.859   4.969   0.749  1.3318  0.4007 -0.6433
11351TIP3    H255469   2.847   4.828   0.801 -1.5318  0.2329 -1.5808
11352TIP3   OH255470   2.912   4.066   5.472  0.3874  0.2498  0.3466
11352TIP3    H155471   2.868   4.016   5.402  0.9628  1.1917 -0.7124
11352TIP3    H255472   2.978   4.118   5.426  0.5852  1.1063  1.5770
11353TIP3   OH255473   5.950   6.492   0.905 -0.6440 -0.2901 -0.4252
11353TIP3    H155474   5.993   6.559   0.851 -0.4787 -0.3474 -0.3640
11353TIP3    H255475   5.910   6.433   0.842 -1.1241  0.0826 -0.4779
11354TIP3   OH255476   0.882   2.348   2.319 -0.0440  0.3366 -0.2258
11354TIP3    H155477   0.906   2.302   2.399 -1.5042  0.8300  0.5421
11354TIP3    H255478   0.850   2.279   2.260 -1.5147  0.2232  0.6427
11355TIP3   OH255479   4.789   4.198   1.406 -0.0132  0.2530 -0.1457
11355TIP3    H155480   4.734   4.275   1.422  1.8961  2.1198 -1.9119
11355TIP3    H255481   4.795   4.155   1.491 -2.7270  0.9363  0.4710
11356TIP3   OH255482   4.780   1.268  12.564  0.1282  0.3953  0.0550
11356TIP3    H155483   4.822   1.343  12.523 -1.1476  0.5583 -1.0273
11356TIP3    H255484   4.707   1.305  12.614  0.5275  0.0201  0.9347
11357TIP3   OH255485   4.267   2.781   2.183  0.2324  0.3736 -0.2378
11357TIP3    H155486   4.264   2.715   2.252 -1.3024  0.4490 -0.1975
11357TIP3    H255487   4.295   2.861   2.227  3.3835 -0.4140 -0.5058
11358TIP3   OH255488   4.701   4.439  15.068  0.0757  0.4712 -0.2730
11358TIP3    H155489   4.788   4.397  15.067  0.3076  0.9193 -2.0904
11358TIP3    H255490   4.652   4.389  15.134  1.7679  0.3717  1.0065
11359TIP3   OH255491   3.444   5.001  14.666 -0.1534  0.0435  0.6577
11359TIP3    H155492   3.411   5.039  14.584  0.0051  1.1734  1.0903
11359TIP3    H255493   3.465   5.077  14.720 -0.0074 -0.6885  1.6524
11360TIP3   OH255494   0.645   5.562   1.249 -0.1651 -0.2591  0.0648
11360TIP3    H155495   0.643   5.557   1.153  1.3081  2.4445 -0.2003
11360TIP3    H255496   0.598   5.642   1.270  1.3715  0.3604  1.3980
11361TIP3   OH255497   4.201   3.735  12.503 -0.3113  0.0307 -0.5981
11361TIP3    H155498   4.258   3.766  12.433 -0.8719 -1.4035 -1.7374
11361TIP3    H255499   4.119   3.783  12.490  0.8250  2.9581  1.7255
11362TIP3   OH255500   0.063   2.352  16.093  0.2377  0.0891  0.3977
11362TIP3    H155501   0.130   2.286  16.112  0.1464  0.1545  0.9655
11362TIP3    H255502  -0.020   2.308  16.110  0.0857 -0.2043 -0.9551
11363TIP3   OH255503   2.635   3.188   2.636 -0.7645 -0.0432 -0.4327
11363TIP3    H155504   2.677   3.104   2.617  0.5234  0.7010 -1.0271
11363TIP3    H255505   2.707   3.251   2.636 -1.4192  0.8186  1.7980
11364TIP3   OH255506   4.298   5.748  12.698  0.6694 -0.5005  0.1034
11364TIP3    H155507   4.246   5.698  12.761 -1.1897  0.7431 -0.3744
11364TIP3    H255508   4.352   5.806  12.753 -1.0743  0.7091  0.6159
11365TIP3   OH255509   4.416   5.809  14.877 -0.2491  0.2585  0.4927
11365TIP3    H155510   4.417   5.797  14.972 -0.3708  0.9542  0.5934
11365TIP3    H255511   4.479   5.746  14.844  0.3476  0.5216  1.1065
11366TIP3   OH255512   2.938   0.909  13.538 -0.1661 -0.0972  0.2208
11366TIP3    H155513   2.963   0.836  13.594 -0.8650 -1.7549 -1.5075
11366TIP3    H255514   2.900   0.867  13.460  2.7753  1.9315 -2.5657
11367TIP3   OH255515   5.720   3.965   2.743 -0.4533  0.3835 -0.4477
11367TIP3    H155516   5.771   4.001   2.671  1.0451  0.1515  0.4497
11367TIP3    H255517   5.726   4.032   2.812  1.3669 -0.9491  0.8090
11368TIP3   OH255518   0.657   1.749   3.523 -0.0250 -0.4586  0.0444
11368TIP3    H155519   0.597   1.794   3.583 -0.8695 -0.4788 -0.7465
11368TIP3    H255520   0.599   1.707   3.459  0.8603  0.2089 -1.2443
11369TIP3   OH255521   2.057   5.642  12.729 -0.2324 -0.3625 -0.3839
11369TIP3    H155522   2.053   5.730  12.693 -0.7654 -0.3600 -0.3229
11369TIP3    H255523   1.966   5.621  12.752 -0.4247 -1.6177 -2.0715
11370TIP3   OH255524   6.769   4.490   3.937 -0.2802  0.4676 -0.0207
11370TIP3    H155525   6.780   4.423   4.005  1.5738 -0.3153 -1.0109
11370TIP3    H255526   6.853   4.492   3.891 -0.9251  2.1502 -1.2489
11371TIP3   OH255527   4.457   3.438  12.825 -0.0875 -0.1591  0.0285
11371TIP3    H155528   4.447   3.483  12.742 -1.4630  1.8275  1.1871
11371TIP3    H255529   4.504   3.500  12.881 -0.7052 -0.7432  1.2357
11372TIP3   OH255530   5.187   1.817   1.873  0.0492 -0.0954  0.2977
11372TIP3    H155531   5.139   1.739   1.900 -2.7608  1.3989 -0.0087
11372TIP3    H255532   5.127   1.890   1.891  1.4340  1.7510 -1.9190
11373TIP3   OH255533   2.234   0.727  14.053  0.2800 -0.0119 -0.2684
11373TIP3    H155534   2.323   0.695  14.070  0.1905 -1.4367 -2.1137
11373TIP3    H255535   2.203   0.673  13.980 -1.3853  1.7841 -0.9796
11374TIP3   OH255536   3.739   3.800   2.395  0.0921 -0.3286 -0.3118
11374TIP3    H155537   3.740   3.799   2.299 -0.2887  1.0713 -0.3524
11374TIP3    H255538   3.724   3.892   2.418 -0.3796 -0.7289  1.0915
11375TIP3   OH255539   1.807   5.410   4.117 -0.8837 -0.0890 -0.0139
11375TIP3    H155540   1.850   5.494   4.101 -0.1293 -0.7949 -1.9838
11375TIP3    H255541   1.765   5.421   4.203 -0.2837  2.0594  0.0723
11376TIP3   OH255542   6.079   5.273   0.470  0.6207  0.2716  0.1846
11376TIP3    H155543   6.021   5.284   0.545  0.2742 -0.0712 -0.0269
11376TIP3    H255544   6.047   5.336   0.405  2.4830  2.4229  1.2080
11377TIP3   OH255545   3.372   5.771   4.829  0.0240 -1.3278  0.0577
11377TIP3    H155546   3.337   5.754   4.916 -1.5231 -0.4608 -0.3621
11377TIP3    H255547   3.392   5.865   4.830  2.5592 -1.8046  0.3236
11378TIP3   OH255548   5.374   4.927  15.272  0.3036 -0.3239  0.3785
11378TIP3    H155549   5.452   4.897  15.225 -0.6561 -1.4194 -0.5938
11378TIP3    H255550   5.362   5.018  15.244 -0.1104 -0.8785 -1.4085
11379TIP3   OH255551   4.429   5.639   4.482 -0.4537 -0.0473 -0.1775
11379TIP3    H155552   4.395   5.726   4.504 -2.1541  0.1017 -2.9453
11379TIP3    H255553   4.507   5.657   4.429 -0.8888 -0.1955 -0.8722
11380TIP3   OH255554   0.595   0.828   3.751 -0.6709 -0.4763 -0.1573
11380TIP3    H155555   0.605   0.881   3.673  1.6299 -0.7206 -0.0839
11380TIP3    H255556   0.585   0.738   3.718 -3.7520 -0.2108 -0.2476
11381TIP3   OH255557   0.298   3.124   3.140  0.3982 -0.2710  0.7270
11381TIP3    H155558   0.312   3.040   3.096  0.3809 -0.1349  0.4601
11381TIP3    H255559   0.251   3.177   3.076 -0.8842 -0.5483  1.4004
11382TIP3   OH255560   3.463   0.272  12.446 -0.4133  0.3780 -0.6797
11382TIP3    H155561   3.456   0.177  12.449  0.4634  0.3346  0.8030
11382TIP3    H255562   3.548   0.289  12.406  0.2984  0.4681  0.8004
11383TIP3   OH255563   1.137   3.085   4.950 -0.4129  0.1949  0.1866
11383TIP3    H155564   1.131   3.030   4.871 -0.1469  0.2698  0.1104
11383TIP3    H255565   1.100   3.031   5.020 -1.1473  0.3331 -0.0876
11384TIP3   OH255566   1.643   4.436   1.881  0.2494  0.7094  0.0085
11384TIP3    H155567   1.671   4.486   1.958  0.7074  0.4934 -0.0095
11384TIP3    H255568   1.700   4.467   1.811  0.7705 -0.0563  0.0714
11385TIP3   OH255569   1.269   3.054   2.014 -0.3752 -0.0794 -0.0583
11385TIP3    H155570   1.294   3.141   1.982  1.2810 -0.4160  0.2225
11385TIP3    H255571   1.317   3.044   2.096 -1.5636 -0.7629  0.5843
11386TIP3   OH255572   4.472   6.704  15.324 -0.3868  0.3077  0.2129
11386TIP3    H155573   4.380   6.709  15.298 -0.3589 -2.5580 -0.8392
11386TIP3    H255574   4.521   6.727  15.245 -0.2572 -0.6096  0.0090
11387TIP3   OH255575   5.218   3.449  15.234 -0.1207 -0.2711  0.0189
11387TIP3    H155576   5.177   3.394  15.300 -0.9333  0.0273 -0.2286
11387TIP3    H255577   5.176   3.424  15.152  0.0695  0.1629 -0.2174
11388TIP3   OH255578   6.756   1.067  12.166 -0.0315  0.1293 -0.1982
11388TIP3    H155579   6.820   1.065  12.095  0.3900  0.4504  0.1663
11388TIP3    H255580   6.754   0.978  12.199  1.2684  0.4009  0.6928
11389TIP3   OH255581   2.470   4.232  12.754  0.4114 -0.0869 -0.0747
11389TIP3    H155582   2.382   4.272  12.749  0.1289 -0.4035  1.6481
11389TIP3    H255583   2.488   4.204  12.665 -1.4161 -0.3492 -0.4166
11390TIP3   OH255584   2.826   6.614   2.217 -0.1694 -0.0163  0.5243
11390TIP3    H155585   2.768   6.666   2.161  0.7344 -0.5135 -0.9059
11390TIP3    H255586   2.794   6.524   2.208  0.5077 -0.2214  0.1224
11391TIP3   OH255587   0.495   0.993   1.746 -0.2337 -0.4320  0.0491
11391TIP3    H155588   0.417   0.991   1.691  0.4535 -4.1735 -1.0682
11391TIP3    H255589   0.552   1.058   1.705 -2.1219  1.3626  0.0894
11392TIP3   OH255590   6.016   6.313  12.887 -0.0230  0.6006  0.4215
11392TIP3    H155591   5.985   6.224  12.867  0.9255  0.1400  0.8914
11392TIP3    H255592   6.031   6.311  12.982  2.5133  0.3888  0.1115
11393TIP3   OH255593   2.074   0.400  10.495 -0.3950  0.0970 -0.1159
11393TIP3    H155594   2.162   0.394  10.458 -0.8825 -2.4782 -1.0548
11393TIP3    H255595   2.068   0.490  10.527  2.7605  0.1910  0.5349
11394TIP3   OH255596   1.401   1.243   2.327 -0.1785  0.7260 -0.8901
11394TIP3    H155597   1.494   1.230   2.310  0.2064  1.1258  0.7136
11394TIP3    H255598   1.365   1.273   2.244  0.9346 -0.3359 -1.7830
11395TIP3   OH255599   4.131   2.051   6.774  0.3789 -0.3261  0.0631
11395TIP3    H155600   4.058   1.989   6.776 -0.0425  0.1875  1.1602
11395TIP3    H255601   4.091   2.133   6.743  0.2784  0.1970  1.5162
11396TIP3   OH255602   2.009   3.169  16.019 -0.3007  0.4087  0.5046
11396TIP3    H155603   1.925   3.196  15.984  0.0767  0.9303 -0.0122
11396TIP3    H255604   1.998   3.075  16.037 -2.0872  1.0892  3.7130
11397TIP3   OH255605   4.197   5.604  14.938 -0.3434  0.1500 -0.2623
11397TIP3    H155606   4.219   5.696  14.951  0.9693 -0.2237  0.3902
11397TIP3    H255607   4.266   5.571  14.881 -0.7278 -0.4569 -0.3798
11398TIP3   OH255608   5.484   1.831   1.556  0.3648 -0.1879 -0.2210
11398TIP3    H155609   5.507   1.882   1.478  1.6199  0.3597  0.4814
11398TIP3    H255610   5.395   1.861   1.578  1.8855  3.7635  1.6379
11399TIP3   OH255611   6.799   1.779  13.763 -0.0651 -0.1399 -0.5502
11399TIP3    H155612   6.763   1.690  13.759 -1.1711  0.1181  1.7565
11399TIP3    H255613   6.763   1.815  13.844  1.0861  2.1145 -0.9693
11400TIP3   OH255614   4.103   0.569   5.234 -0.2317 -0.4355  0.3095
11400TIP3    H155615   4.189   0.599   5.263 -0.1921 -0.1201 -0.1174
11400TIP3    H255616   4.079   0.499   5.295  0.0077 -0.0375  0.8654
11401TIP3   OH255617   0.859   4.388  11.056  0.8191 -0.3366 -0.2605
11401TIP3    H155618   0.880   4.392  11.149 -0.5821  0.5513  0.0394
11401TIP3    H255619   0.943   4.395  11.012  1.5764 -1.4847  0.9349
11402TIP3   OH255620   0.202   2.538  13.406 -0.6482  0.1943 -0.0325
11402TIP3    H155621   0.190   2.476  13.477  0.3993  1.0080  0.8859
11402TIP3    H255622   0.201   2.484  13.327 -1.0330 -0.8183  0.6437
11403TIP3   OH255623   3.459   0.774  12.373  0.2006  0.5538  0.4671
11403TIP3    H155624   3.410   0.692  12.380  1.7934 -0.3430  2.0504
11403TIP3    H255625   3.399   0.834  12.330 -1.2366 -1.2679 -0.2418
11404TIP3   OH255626   5.366   4.512   1.066 -0.1100  0.4522  0.0679
11404TIP3    H155627   5.296   4.451   1.089 -0.7546  0.7316 -1.0515
11404TIP3    H255628   5.324   4.573   1.005  1.1446  0.5406 -0.7280
11405TIP3   OH255629   0.331   5.035   1.103 -0.6690  0.2700  0.0507
11405TIP3    H155630   0.382   4.955   1.091  0.6204  1.0373  0.2114
11405TIP3    H255631   0.251   5.020   1.054 -0.3655 -1.0420 -0.0830
11406TIP3   OH255632   1.085   2.045  15.467  0.3816  0.7364 -0.1984
11406TIP3    H155633   1.139   2.065  15.391  0.1072  1.8795 -0.1234
11406TIP3    H255634   1.007   2.101  15.456 -1.1826 -1.4135 -0.7142
11407TIP3   OH255635   0.728   4.462  10.818 -0.4216  0.2403 -0.7412
11407TIP3    H155636   0.742   4.402  10.891  1.3098 -1.1808 -2.1505
11407TIP3    H255637   0.643   4.436  10.782 -1.9086  1.7769  1.4210
11408TIP3   OH255638   0.160   3.743   3.385 -0.3008 -0.2604  0.6558
11408TIP3    H155639   0.091   3.727   3.449 -0.0184  0.5640  1.1880
11408TIP3    H255640   0.158   3.838   3.371  1.9380  0.1006  2.1458
11409TIP3   OH255641   5.643   5.101  16.154  0.1341 -0.2717 -0.2710
11409TIP3    H155642   5.561   5.138  16.120 -1.2080 -2.2445  0.6001
11409TIP3    H255643   5.694   5.081  16.075 -0.2472  0.8990 -0.8433
11410TIP3   OH255644   4.017   4.316   3.742 -0.9454 -0.5005  0.8017
11410TIP3    H155645   4.022   4.235   3.693 -1.5627  0.7645 -1.5109
11410TIP3    H255646   3.923   4.335   3.749 -0.8224 -0.1087  1.5331
11411TIP3   OH255647   2.806   5.624   0.691  0.1541  0.0817 -0.3701
11411TIP3    H155648   2.737   5.644   0.629  0.0162 -1.3790 -0.7084
11411TIP3    H255649   2.858   5.705   0.695 -0.8237  0.7700 -1.0537
11412TIP3   OH255650   6.112   2.931  13.684  0.4549 -0.1418  0.2752
11412TIP3    H155651   6.167   2.936  13.607  0.8650 -1.3257  0.4718
11412TIP3    H255652   6.165   2.884  13.749 -1.1258 -2.2990  0.1144
11413TIP3   OH255653   3.284   3.870  13.440 -0.3812  0.2062 -0.1438
11413TIP3    H155654   3.191   3.865  13.419 -0.3674 -0.7057 -0.0296
11413TIP3    H255655   3.296   3.958  13.475 -1.4608 -0.0950  1.0631
11414TIP3   OH255656   1.113   5.194  10.539  0.2011 -0.1297  0.0966
11414TIP3    H155657   1.158   5.232  10.464 -0.1084  2.0892  0.9547
11414TIP3    H255658   1.070   5.116  10.505 -0.7117  1.3228 -2.2508
11415TIP3   OH255659   3.698   5.481   0.719  0.6428  0.1041 -0.8454
11415TIP3    H155660   3.684   5.490   0.624 -0.0222  1.0275 -0.6734
11415TIP3    H255661   3.683   5.569   0.753  1.0557 -0.1857  0.1050
11416TIP3   OH255662   4.750   2.835  11.575 -0.5398  0.6301 -0.3302
11416TIP3    H155663   4.775   2.746  11.551 -0.2440  0.5089  0.4301
11416TIP3    H255664   4.772   2.843  11.668 -1.5791  1.1318 -0.1108
11417TIP3   OH255665   3.995   5.681  16.688 -0.2376 -0.1654 -0.2580
11417TIP3    H155666   3.900   5.691  16.674 -0.4699 -1.6988  0.0561
11417TIP3    H255667   4.032   5.685  16.600 -0.2907  2.8101 -0.2307
11418TIP3   OH255668   0.449   1.068  16.632  0.5208  0.0035  0.1794
11418TIP3    H155669   0.532   1.031  16.661  1.1100 -0.3873 -1.8467
11418TIP3    H255670   0.383   1.005  16.661  1.3649 -1.9188 -1.8011
11419TIP3   OH255671   0.025   2.644  12.752  0.9199 -0.6672  0.5361
11419TIP3    H155672  -0.037   2.597  12.808 -0.2228 -0.3018 -0.3911
11419TIP3    H255673  -0.030   2.687  12.686  1.9407  1.6710  1.1096
11420TIP3   OH255674   2.051   2.193  15.318  0.3143 -0.0861 -0.3460
11420TIP3    H155675   2.008   2.263  15.269  0.1024  0.1292  0.1432
11420TIP3    H255676   2.070   2.126  15.252  0.5312  0.4362 -0.8190
11421TIP3   OH255677   3.120   1.341   2.167  0.1958 -0.4153 -0.3961
11421TIP3    H155678   3.085   1.392   2.240  2.7093  2.8622 -1.2330
11421TIP3    H255679   3.067   1.368   2.092 -0.7066 -1.8105 -0.3015
11422TIP3   OH255680   0.105   4.338  12.382 -0.2746 -0.3659  0.8488
11422TIP3    H155681   0.105   4.429  12.352  0.1626 -0.2687  1.1488
11422TIP3    H255682   0.158   4.291  12.318  1.6546  0.0457  2.0560
11423TIP3   OH255683   0.689   2.772   1.717  0.0001 -0.4522  0.3378
11423TIP3    H155684   0.625   2.716   1.761 -1.2560  0.5297 -0.1904
11423TIP3    H255685   0.666   2.766   1.624 -1.2787  2.2124  0.3959
11424TIP3   OH255686   0.349   3.664  12.686  0.1224  0.3749 -0.0309
11424TIP3    H155687   0.442   3.677  12.705  0.5081 -1.2311 -0.6472
11424TIP3    H255688   0.316   3.615  12.762 -0.2068  0.8599  0.1432
11425TIP3   OH255689   2.701   5.665   3.667  0.3753 -0.0141 -0.0819
11425TIP3    H155690   2.766   5.735   3.670 -1.1624  1.4450  1.6140
11425TIP3    H255691   2.744   5.590   3.709  1.0643  0.8189  0.7465
11426TIP3   OH255692   2.702   1.029  15.959  0.1197  0.2287  0.3932
11426TIP3    H155693   2.698   1.032  16.055 -1.7273  1.7505  0.3056
11426TIP3    H255694   2.732   1.116  15.933 -0.5118  0.2040 -0.4530
11427TIP3   OH255695   0.162   6.222  10.921  0.0832  0.6908  0.3505
11427TIP3    H155696   0.207   6.154  10.971  0.4254  1.0453  0.5321
11427TIP3    H255697   0.232   6.281  10.892 -0.2535  1.2476  0.6380
11428TIP3   OH255698   6.034   4.597   2.489  0.5839 -0.2989  0.0637
11428TIP3    H155699   6.086   4.657   2.542 -1.2118  0.8843  0.5968
11428TIP3    H255700   5.943   4.619   2.511 -0.1807 -3.1385  0.1751
11429TIP3   OH255701   3.112   6.186  16.293 -0.2680  0.0914 -0.1876
11429TIP3    H155702   3.021   6.195  16.266 -0.5902  0.6542  1.0233
11429TIP3    H255703   3.107   6.171  16.388  0.9038  0.4066 -0.0653
11430TIP3   OH255704   6.739   3.831  13.619 -0.4006 -0.1426 -0.2637
11430TIP3    H155705   6.651   3.865  13.637  0.6654  1.1437  3.6820
11430TIP3    H255706   6.727   3.736  13.611 -2.1998  0.0591 -0.4565
11431TIP3   OH255707   4.143   4.982   5.049 -0.6160 -0.0591 -0.2359
11431TIP3    H155708   4.090   4.987   5.129 -0.0353  0.2660  0.1369
11431TIP3    H255709   4.116   5.058   4.998  0.7356  1.1442  0.7534
11432TIP3   OH255710   1.024   4.599   4.759 -0.4927 -0.2636 -0.1328
11432TIP3    H155711   0.978   4.515   4.759 -1.3740  0.2053  0.2443
11432TIP3    H255712   1.064   4.605   4.673 -1.2241 -0.6469 -0.5113
11433TIP3   OH255713   0.590   4.507   5.591  0.1861  0.0238 -0.1888
11433TIP3    H155714   0.576   4.550   5.675 -0.5461  0.5607 -0.5821
11433TIP3    H255715   0.513   4.452   5.578  0.5525 -0.4828 -0.2558
11434TIP3   OH255716   1.893   6.469  16.211 -0.3869 -0.3223  0.2248
11434TIP3    H155717   1.951   6.483  16.286 -0.3680 -0.1009  0.1708
11434TIP3    H255718   1.813   6.434  16.250  0.0043 -1.2526  0.2327
11435TIP3   OH255719   2.765   5.687   4.317  0.1219  0.1587 -0.3098
11435TIP3    H155720   2.833   5.648   4.372 -1.4741  0.4125  1.9776
11435TIP3    H255721   2.752   5.624   4.247  2.4409 -0.0430 -0.6374
11436TIP3   OH255722   6.260   3.527   5.768  0.3321 -0.0040 -0.8367
11436TIP3    H155723   6.298   3.605   5.807  0.4020  0.2382 -1.3789
11436TIP3    H255724   6.196   3.496   5.833 -0.8611  1.4119 -1.2778
11437TIP3   OH255725   1.598   5.932  16.990  0.3750 -0.4060  0.3581
11437TIP3    H155726   1.513   5.947  17.034 -0.0297  1.4018 -0.9280
11437TIP3    H255727   1.646   5.876  17.050 -1.2484 -0.3959  1.7488
11438TIP3   OH255728   3.131   4.504  12.764  0.6573 -0.1047  0.2522
11438TIP3    H155729   3.192   4.446  12.810  1.0641  0.4202  0.3764
11438TIP3    H255730   3.185   4.547  12.697  0.3211  0.0032  0.0504
11439TIP3   OH255731   5.152   5.719  14.067 -0.1654 -0.1508 -0.1013
11439TIP3    H155732   5.090   5.695  14.135 -0.4605  0.6054 -0.0941
11439TIP3    H255733   5.236   5.725  14.112 -0.0707 -1.1718 -0.1116
11440TIP3   OH255734   0.167   4.876   1.553  0.4040 -0.0743 -0.0599
11440TIP3    H155735   0.108   4.805   1.578  0.1204  1.0287  2.8602
11440TIP3    H255736   0.255   4.839   1.564  0.2558 -0.4071  0.0136
11441TIP3   OH255737   0.968   5.475   5.752 -0.2414 -0.2412  0.5049
11441TIP3    H155738   1.008   5.389   5.745 -0.7069 -0.4275  0.1234
11441TIP3    H255739   0.873   5.459   5.750 -0.3340  0.3217 -0.1895
11442TIP3   OH255740   3.709   1.934   0.735 -0.3039 -0.4318 -0.5914
11442TIP3    H155741   3.794   1.891   0.738 -0.0752 -0.0286 -1.2429
11442TIP3    H255742   3.653   1.875   0.685 -0.0969 -0.1633 -1.1441
11443TIP3   OH255743   6.710   5.458   2.709 -0.2532 -0.6977  0.0794
11443TIP3    H155744   6.739   5.423   2.794 -1.3573 -0.4152  0.5862
11443TIP3    H255745   6.622   5.490   2.726  0.6378  2.2569 -0.3938
11444TIP3   OH255746   1.662   5.229  14.329 -0.1707 -0.3961 -0.1072
11444TIP3    H155747   1.753   5.232  14.359 -0.3102 -0.5069  0.3327
11444TIP3    H255748   1.610   5.231  14.410 -0.5577 -0.3938 -0.3540
11445TIP3   OH255749   0.732   2.126   2.207 -0.1674  0.0907 -0.6153
11445TIP3    H155750   0.662   2.062   2.194 -0.2824 -0.1535  1.0330
11445TIP3    H255751   0.745   2.165   2.120 -2.2051  0.0064 -1.0131
11446TIP3   OH255752   5.748   5.891  11.966  0.5095 -0.4961 -0.7182
11446TIP3    H155753   5.814   5.853  12.023 -1.2418 -2.5693  0.0511
11446TIP3    H255754   5.718   5.969  12.012  0.8724 -0.7638 -0.0184
11447TIP3   OH255755   3.540   5.812   5.208 -0.0932  0.2280 -0.6964
11447TIP3    H155756   3.608   5.784   5.147  0.2668  2.2815 -1.3371
11447TIP3    H255757   3.461   5.819   5.153 -0.4803 -0.6720 -0.2803
11448TIP3   OH255758   3.224   6.069   3.191  0.4439  0.0460  0.1878
11448TIP3    H155759   3.250   6.057   3.100  2.6119 -0.0543  0.7583
11448TIP3    H255760   3.218   6.164   3.203 -0.8035  0.0420 -0.2731
11449TIP3   OH255761   1.765   5.402   2.462  0.2236 -0.4026 -0.9225
11449TIP3    H155762   1.704   5.393   2.535  1.7632  0.1683  0.4919
11449TIP3    H255763   1.709   5.422   2.386 -1.3589 -0.3407  0.2166
11450TIP3   OH255764   3.659   1.285  15.689 -0.1308 -0.0265  0.0696
11450TIP3    H155765   3.585   1.345  15.703 -1.1388 -1.0782 -0.5281
11450TIP3    H255766   3.625   1.220  15.628  1.2354 -0.6735 -0.0297
11451TIP3   OH255767   2.966   3.223   1.267 -0.0100  0.0304  0.2005
11451TIP3    H155768   2.872   3.206   1.274 -0.3516  1.9351  1.0087
11451TIP3    H255769   2.994   3.238   1.357  0.5584  1.7565 -0.2261
11452TIP3   OH255770   4.957   0.685  13.819  0.1816  0.1303 -0.1586
11452TIP3    H155771   5.013   0.640  13.882 -0.2822 -1.2458 -0.6800
11452TIP3    H255772   5.016   0.744  13.772  1.2845 -1.4072 -0.8098
11453TIP3   OH255773   6.207   0.617  15.284  0.0634 -0.2810  0.2915
11453TIP3    H155774   6.272   0.683  15.262  0.5411 -0.5035  1.0029
11453TIP3    H255775   6.194   0.568  15.202  0.5667 -0.0454  0.0655
11454TIP3   OH255776   2.877   3.001   4.839 -0.5237  0.7437 -0.4172
11454TIP3    H155777   2.832   3.072   4.885 -0.6543  1.1914 -1.2270
11454TIP3    H255778   2.950   3.044   4.795 -0.9050  0.4658 -1.3350
11455TIP3   OH255779   3.362   5.470   3.407 -0.1017  0.0292 -0.1402
11455TIP3    H155780   3.315   5.551   3.428  0.6183  0.3910  0.0807
11455TIP3    H255781   3.330   5.406   3.471 -1.0285  0.0000 -0.6161
11456TIP3   OH255782   2.412   6.241  13.125 -0.4369 -0.0815  0.3389
11456TIP3    H155783   2.499   6.220  13.161 -0.6197  0.0921  0.8898
11456TIP3    H255784   2.351   6.190  13.178 -0.9284  2.0751  1.9686
11457TIP3   OH255785   1.183   5.361  14.098 -0.0319  0.2379  0.2588
11457TIP3    H155786   1.181   5.271  14.068  2.6112  0.3886 -0.6997
11457TIP3    H255787   1.245   5.361  14.171 -1.1024  1.0593  1.2112
11458TIP3   OH255788   6.556   2.983   5.573 -0.5194 -0.1145  0.1894
11458TIP3    H155789   6.577   3.010   5.662  0.6731 -0.3730  0.0053
11458TIP3    H255790   6.621   2.916   5.552 -1.1176 -0.4363 -0.6814
11459TIP3   OH255791   3.399   6.628  17.017 -0.0810  0.0609  0.3378
11459TIP3    H155792   3.344   6.614  17.093 -1.4088 -1.1656 -0.7821
11459TIP3    H255793   3.418   6.540  16.985  1.2364  0.5220 -0.2119
11460TIP3   OH255794   1.463   6.127   1.603 -0.0380  0.3610 -0.6326
11460TIP3    H155795   1.410   6.154   1.679  1.6192  1.3727  0.2077
11460TIP3    H255796   1.496   6.040   1.627  2.3242  1.5712  0.9075
11461TIP3   OH255797   2.530   5.556  15.822 -0.2146 -0.3277  0.2371
11461TIP3    H155798   2.548   5.517  15.736 -1.8061 -0.1504 -0.2092
11461TIP3    H255799   2.575   5.500  15.884 -0.1060 -1.2162 -0.6290
11462TIP3   OH255800   6.448   0.862   4.282 -0.3000 -0.5747 -0.2221
11462TIP3    H155801   6.415   0.806   4.352  2.5311  2.2353  3.8629
11462TIP3    H255802   6.521   0.814   4.245 -0.4682 -1.2446  0.2983
11463TIP3   OH255803   5.603   3.523  15.182  0.0527  0.0157 -0.0508
11463TIP3    H155804   5.530   3.536  15.243  0.8935  0.1669  0.9423
11463TIP3    H255805   5.629   3.432  15.194  1.5502  0.5790  1.3715
11464TIP3   OH255806   5.324   2.745  12.414  0.0472 -0.5448  0.0862
11464TIP3    H155807   5.233   2.729  12.441  0.0980 -0.5453  0.2637
11464TIP3    H255808   5.354   2.662  12.379 -0.7819  0.0760 -2.2502
11465TIP3   OH255809   2.515   5.976  11.564  0.0285  0.6388  0.3813
11465TIP3    H155810   2.449   5.995  11.630  0.0328  0.2787  0.4908
11465TIP3    H255811   2.467   5.981  11.481  0.1084  1.4695  0.3802
11466TIP3   OH255812   3.897   4.187  11.727 -0.1416 -0.3668 -0.7432
11466TIP3    H155813   3.939   4.101  11.734  1.3848  0.3603 -0.4845
11466TIP3    H255814   3.869   4.207  11.817  3.2310  1.1272  0.1442
11467TIP3   OH255815   3.589   5.115  16.257  0.1315 -0.3858 -0.8279
11467TIP3    H155816   3.576   5.170  16.180  1.7279  2.9765  1.0797
11467TIP3    H255817   3.679   5.085  16.250  0.8426  1.3051  0.4101
11468TIP3   OH255818   3.045   0.555   5.200  0.5260 -0.2010  0.7261
11468TIP3    H155819   3.002   0.635   5.170 -0.3081 -1.4085 -1.4860
11468TIP3    H255820   3.120   0.545   5.141  0.9895 -0.7309  1.3914
11469TIP3   OH255821   5.554   2.068  12.466 -0.2451 -0.1966  0.1683
11469TIP3    H155822   5.461   2.062  12.446 -0.4737  2.2258  0.2534
11469TIP3    H255823   5.588   2.134  12.405  1.1112  0.0391  1.1331
11470TIP3   OH255824   0.330   0.064   1.714  0.1203 -0.3235  0.3859
11470TIP3    H155825   0.290   0.082   1.799 -0.2786 -0.7758  0.2965
11470TIP3    H255826   0.384  -0.013   1.727 -2.7123 -2.6690 -0.5412
11471TIP3   OH255827   6.670   1.402  15.120 -0.1063 -0.3836 -0.1498
11471TIP3    H155828   6.747   1.400  15.063 -0.1785 -0.9845 -0.2344
11471TIP3    H255829   6.652   1.495  15.133  1.0545 -0.2258  0.4461
11472TIP3   OH255830   3.769   5.776   0.163  0.0985 -0.1077 -0.1945
11472TIP3    H155831   3.808   5.731   0.238 -0.4594 -0.7232 -0.2576
11472TIP3    H255832   3.703   5.834   0.202 -1.2906 -1.5613 -0.2605
11473TIP3   OH255833   4.564   3.531   5.890 -0.1798 -0.3522 -0.2134
11473TIP3    H155834   4.523   3.512   5.975 -0.4987 -2.4596 -0.7860
11473TIP3    H255835   4.647   3.572   5.912  2.4080 -5.6171  1.5514
11474TIP3   OH255836   5.817   0.521  12.756  0.0252  0.3028 -0.0908
11474TIP3    H155837   5.856   0.434  12.764 -0.9871 -0.2578 -0.9737
11474TIP3    H255838   5.822   0.558  12.844  0.1304 -0.8100  0.3826
11475TIP3   OH255839   2.170   3.476   6.410 -0.2182 -0.3397 -0.5795
11475TIP3    H155840   2.142   3.525   6.333  0.9778 -1.1814 -1.5872
11475TIP3    H255841   2.233   3.412   6.377  1.2437  0.0503  1.2579
11476TIP3   OH255842   3.569   1.279  16.882  0.1908  0.1236 -0.1111
11476TIP3    H155843   3.577   1.302  16.789  2.7098 -0.2177 -0.0382
11476TIP3    H255844   3.478   1.253  16.892 -0.3644  0.9930 -2.2865
11477TIP3   OH255845   0.924   1.983  16.155 -0.0143  0.0567 -0.2817
11477TIP3    H155846   1.015   1.961  16.175 -0.1927  0.3629  0.9560
11477TIP3    H255847   0.875   1.949  16.230 -0.7768  0.9893 -0.3463
11478TIP3   OH255848   6.469   5.901   4.160 -0.3250  0.0546  0.0892
11478TIP3    H155849   6.404   5.920   4.092 -0.2003 -0.9967 -0.3444
11478TIP3    H255850   6.419   5.856   4.228 -0.1877 -0.0958  0.0890
11479TIP3   OH255851   4.244   2.143  10.243  0.2874 -0.3425 -1.0232
11479TIP3    H155852   4.302   2.211  10.208 -0.5303  0.1737 -1.4146
11479TIP3    H255853   4.186   2.121  10.170 -1.6618  0.9632  0.0312
11480TIP3   OH255854   4.519   1.102   4.670  0.3220 -0.4513  0.4409
11480TIP3    H155855   4.604   1.130   4.703 -0.0429  0.3162  0.7393
11480TIP3    H255856   4.507   1.015   4.709  0.1672  0.1806  1.8762
11481TIP3   OH255857   4.133   5.992  11.555  0.3996  0.1949 -0.3723
11481TIP3    H155858   4.067   6.061  11.557  0.4796  0.2545  0.3748
11481TIP3    H255859   4.217   6.039  11.552  0.4899  0.1487  1.1012
11482TIP3   OH255860   0.009   1.330   5.836 -0.1331 -0.0972  0.6862
11482TIP3    H155861   0.024   1.272   5.910 -0.8417 -0.9886  0.1437
11482TIP3    H255862   0.065   1.406   5.854 -0.4626 -0.1933  2.2284
11483TIP3   OH255863   4.774   0.959  13.535  0.2204 -0.1371 -0.1615
11483TIP3    H155864   4.761   1.029  13.471 -0.6371 -0.8955 -0.8289
11483TIP3    H255865   4.864   0.972  13.565  0.9522 -0.2724 -2.1523
11484TIP3   OH255866   5.298   4.337  14.900  0.3682 -0.0993  0.3559
11484TIP3    H155867   5.331   4.406  14.958 -1.5773  0.5691  0.7722
11484TIP3    H255868   5.326   4.363  14.813  0.6889  0.5830  0.6540
11485TIP3   OH255869   6.244   1.586  14.134  0.0998  0.0051  0.4075
11485TIP3    H155870   6.170   1.545  14.091 -0.7279  1.3535  0.4978
11485TIP3    H255871   6.227   1.575  14.228  0.1736  0.0483  0.4267
11486TIP3   OH255872   3.742   5.525   0.338 -0.0040 -0.0438 -0.4807
11486TIP3    H155873   3.661   5.501   0.381 -0.3858 -0.9230 -1.6317
11486TIP3    H255874   3.719   5.535   0.246  0.7640  1.8511 -0.5258
11487TIP3   OH255875   3.279   3.188   2.239  0.2768  0.2314  0.1756
11487TIP3    H155876   3.236   3.114   2.282 -0.3018 -0.8367 -2.0617
11487TIP3    H255877   3.281   3.163   2.146  2.1297  2.0489 -0.3392
11488TIP3   OH255878   6.008   3.874  10.553 -0.1359 -0.0154 -0.6664
11488TIP3    H155879   5.962   3.794  10.528  0.4075 -0.3014 -0.7508
11488TIP3    H255880   6.099   3.848  10.561 -0.0139  0.5085 -0.3028
11489TIP3   OH255881   0.489   1.452   4.701  0.1141 -0.0174 -0.4305
11489TIP3    H155882   0.489   1.514   4.775 -1.4909 -0.8757  0.3549
11489TIP3    H255883   0.553   1.488   4.640 -1.5528  3.1244 -0.5750
11490TIP3   OH255884   1.526   1.198   1.857  0.3788  0.5298  0.3891
11490TIP3    H155885   1.475   1.150   1.792 -0.2317  0.8389  0.6255
11490TIP3    H255886   1.596   1.239   1.807 -0.1909  0.9190 -0.1141
11491TIP3   OH255887   5.322   6.394   1.716 -0.1764  0.0082 -0.4026
11491TIP3    H155888   5.387   6.326   1.694 -0.8126 -0.3421 -1.2563
11491TIP3    H255889   5.245   6.370   1.665  0.1010  2.2817 -1.9978
11492TIP3   OH255890   4.265   5.238   3.603 -0.0335  0.4976  0.2353
11492TIP3    H155891   4.283   5.262   3.513 -0.4614  0.5804  0.1698
11492TIP3    H255892   4.271   5.142   3.604 -1.7238  0.3490 -0.2770
11493TIP3   OH255893   1.037   5.248  12.263  0.0995 -0.1914  0.5310
11493TIP3    H155894   1.131   5.235  12.263  0.0186 -0.8561  1.3956
11493TIP3    H255895   1.007   5.206  12.343 -0.6254  2.2165  1.6012
11494TIP3   OH255896   4.986   2.591  16.695 -0.1400 -0.3126 -0.1511
11494TIP3    H155897   5.064   2.634  16.732  0.0636 -0.5735 -0.2777
11494TIP3    H255898   5.010   2.499  16.691 -0.1917 -0.2940 -0.8691
11495TIP3   OH255899   3.300   5.288   1.458 -0.1049  0.7608 -0.5023
11495TIP3    H155900   3.374   5.260   1.511  0.2623  0.1598 -1.3122
11495TIP3    H255901   3.335   5.356   1.401  0.3219 -0.7451 -2.1391
11496TIP3   OH255902   2.899   4.585   1.567 -0.2617 -0.5995  0.1345
11496TIP3    H155903   2.971   4.628   1.613 -0.3387  1.8878 -1.8125
11496TIP3    H255904   2.821   4.634   1.596 -0.8854 -1.8250  0.5699
11497TIP3   OH255905   5.588   3.845   4.396  0.4055 -0.0443 -0.1363
11497TIP3    H155906   5.499   3.877   4.383 -0.0437 -1.0854  0.2222
11497TIP3    H255907   5.619   3.891   4.474  1.0894  2.0949 -1.5877
11498TIP3   OH255908   5.851   0.826  11.900  0.3718  0.7486  0.5702
11498TIP3    H155909   5.928   0.883  11.898  0.4512  0.6373  0.3964
11498TIP3    H255910   5.876   0.753  11.956 -0.0861  1.3804  1.6288
11499TIP3   OH255911   1.938   1.667  15.735 -0.1530 -0.2825 -0.0312
11499TIP3    H155912   2.013   1.680  15.676 -0.2240 -0.7612 -0.2299
11499TIP3    H255913   1.960   1.588  15.784  0.2288  0.4922  1.0979
11500TIP3   OH255914   6.071   0.126   0.634  0.1359  0.3980  0.6780
11500TIP3    H155915   6.073   0.187   0.708 -2.5154  2.5242 -0.8656
11500TIP3    H255916   5.982   0.091   0.634  0.7171 -1.1769 -0.3035
11501TIP3   OH255917   0.953   5.307   2.133 -0.2710  0.0385  0.4845
11501TIP3    H155918   0.931   5.220   2.100 -1.6145 -0.0053  1.4109
11501TIP3    H255919   0.891   5.366   2.090 -0.3822  0.3224  1.0215
11502TIP3   OH255920   6.584   5.015  16.609  0.0888 -0.0123 -0.2266
11502TIP3    H155921   6.629   4.987  16.529  0.5822 -0.8238  0.3180
11502TIP3    H255922   6.647   5.000  16.679  0.5281  2.8714  0.1073
11503TIP3   OH255923   2.464   3.102  12.257 -0.7591  0.3579 -0.2490
11503TIP3    H155924   2.388   3.047  12.276 -0.3677  0.0784  0.5207
11503TIP3    H255925   2.534   3.068  12.313 -0.2127  0.9530 -0.5550
11504TIP3   OH255926   0.591   5.665  15.767  0.1165  0.2848 -0.5948
11504TIP3    H155927   0.596   5.760  15.756  1.3152  0.2089 -0.9082
11504TIP3    H255928   0.558   5.633  15.683 -0.2966  0.4210 -0.4865
11505TIP3   OH255929   6.168   3.900  13.187  0.1207 -0.7724  0.0375
11505TIP3    H155930   6.208   3.983  13.215  0.8310 -0.6911 -1.1461
11505TIP3    H255931   6.091   3.891  13.243  0.8201 -0.0361  1.1644
11506TIP3   OH255932   5.342   2.438   1.692  0.2866 -0.2731 -0.4738
11506TIP3    H155933   5.295   2.454   1.610  2.0687  1.4419 -1.2400
11506TIP3    H255934   5.288   2.481   1.759 -0.9470 -1.2912 -0.7812
11507TIP3   OH255935   3.552   0.772   6.060 -0.6473  0.0026 -0.0827
11507TIP3    H155936   3.518   0.751   6.147 -1.8834  0.7987 -0.3433
11507TIP3    H255937   3.495   0.724   6.000  1.6717 -2.5563 -0.4657
11508TIP3   OH255938   2.354   3.276  14.762  0.0940 -0.9063 -0.0714
11508TIP3    H155939   2.316   3.209  14.705 -0.3999 -1.0900  0.4648
11508TIP3    H255940   2.383   3.345  14.703  0.5031 -1.5396 -0.6267
11509TIP3   OH255941   4.742   0.457   0.935  0.0696 -0.4131 -0.0780
11509TIP3    H155942   4.784   0.449   0.850  0.6073  2.6561 -0.2086
11509TIP3    H255943   4.682   0.382   0.940 -0.7903 -0.1120 -3.5969
11510TIP3   OH255944   4.039   0.877  16.239 -0.1069 -0.7196  0.6812
11510TIP3    H155945   4.088   0.869  16.157 -0.6619  1.4928  0.0690
11510TIP3    H255946   4.036   0.788  16.274  1.0345 -1.5442 -1.1741
11511TIP3   OH255947   0.847   5.661  12.091  0.1330 -0.0921  0.3075
11511TIP3    H155948   0.758   5.626  12.085  0.4358 -0.8588  0.2188
11511TIP3    H255949   0.885   5.617  12.167  1.1949 -1.5549 -1.0011
11512TIP3   OH255950   1.935   5.104   3.640  0.0898 -0.3874  0.3397
11512TIP3    H155951   1.869   5.035   3.648 -1.1721  0.6676 -0.5845
11512TIP3    H255952   1.886   5.186   3.653  1.0284  0.4614 -1.1870
11513TIP3   OH255953   1.194   3.950  15.070 -0.7439 -0.3202  0.2532
11513TIP3    H155954   1.118   3.989  15.114  0.6219  1.4353  1.1704
11513TIP3    H255955   1.176   3.856  15.071 -3.0730  0.0688  0.0803
11514TIP3   OH255956   1.478   0.886   0.451  0.0006 -0.1564  0.6912
11514TIP3    H155957   1.403   0.892   0.510  0.1750  1.5806  0.7913
11514TIP3    H255958   1.523   0.969   0.462  0.7877 -0.3386 -0.9099
11515TIP3   OH255959   5.660   2.043   2.339 -0.1989  0.0094 -0.4698
11515TIP3    H155960   5.591   1.984   2.368  0.0245 -0.7427 -1.4367
11515TIP3    H255961   5.726   2.039   2.408  0.0047 -1.2000 -0.7202
11516TIP3   OH255962   1.428   5.654  14.570 -0.3293 -0.1471 -0.3057
11516TIP3    H155963   1.475   5.608  14.501 -0.7696 -1.0726 -0.0004
11516TIP3    H255964   1.338   5.660  14.538 -0.1385  1.1600 -0.6604
11517TIP3   OH255965   5.755   2.186   1.664  0.7570 -0.0162 -0.2294
11517TIP3    H155966   5.821   2.143   1.610 -1.5127 -1.9236 -1.7108
11517TIP3    H255967   5.713   2.249   1.605 -0.6497 -0.9522 -0.3046
11518TIP3   OH255968   5.411   1.964   3.444 -0.2974  0.2446  0.1326
11518TIP3    H155969   5.504   1.966   3.420 -0.5090  0.4171 -0.7034
11518TIP3    H255970   5.365   1.987   3.363 -1.0011  1.8405  0.9580
11519TIP3   OH255971   1.591   4.080   4.875 -0.2438  0.0241 -0.6163
11519TIP3    H155972   1.603   4.060   4.782  1.8639  2.5397 -0.9926
11519TIP3    H255973   1.654   4.024   4.920 -0.0342  0.0502 -0.8745
11520TIP3   OH255974   6.268   3.761  16.725 -0.2749  0.3130  0.0230
11520TIP3    H155975   6.218   3.826  16.775  0.3812  1.0309 -0.2353
11520TIP3    H255976   6.206   3.727  16.661 -0.7070  0.4567  0.3584
11521TIP3   OH255977   3.715   0.780   1.114  0.0452 -0.2533  0.0052
11521TIP3    H155978   3.688   0.749   1.200 -2.5662  2.9529  0.5390
11521TIP3    H255979   3.640   0.762   1.057 -0.0109  1.4088 -0.5210
11522TIP3   OH255980   5.080   0.133  15.884  0.3776  0.2254  0.1964
11522TIP3    H155981   5.101   0.225  15.896  2.7238 -0.1297 -0.6532
11522TIP3    H255982   5.134   0.087  15.949 -1.3208 -0.5740  1.1404
11523TIP3   OH255983   5.932   0.374  14.839  0.0277 -0.2206  0.1113
11523TIP3    H155984   5.971   0.462  14.842 -1.1007  0.2792  0.6351
11523TIP3    H255985   5.881   0.374  14.758 -1.2744  0.1949  0.9077
11524TIP3   OH255986   0.549   2.667   5.560  0.3268  0.3476 -0.1056
11524TIP3    H155987   0.644   2.664   5.572  0.2875  0.7391  0.3189
11524TIP3    H255988   0.537   2.712   5.476  0.5340 -0.3937 -0.5430
11525TIP3   OH255989   3.409   3.477   3.564 -0.4501 -0.0214 -0.2583
11525TIP3    H155990   3.431   3.416   3.635  1.5848  0.5547 -0.3448
11525TIP3    H255991   3.350   3.426   3.507 -1.2579 -0.8535  1.2434
11526TIP3   OH255992   6.410   3.304   4.207  0.4585  0.0680 -0.5347
11526TIP3    H155993   6.370   3.291   4.293  0.8965  1.7487 -0.0274
11526TIP3    H255994   6.500   3.273   4.218 -0.0711 -1.7110 -1.0413
11527TIP3   OH255995   0.150   6.387  14.389 -0.4112 -0.4777  0.1129
11527TIP3    H155996   0.241   6.356  14.400 -0.3344 -0.2527  0.1144
11527TIP3    H255997   0.117   6.337  14.314 -0.5755 -1.2135  0.6601
11528TIP3   OH255998   6.544   5.238  11.949 -0.1744 -0.4674 -0.3784
11528TIP3    H155999   6.526   5.331  11.934 -1.1107 -0.7839 -1.2988
11528TIP3    H256000   6.511   5.221  12.038  1.8441  0.5195  0.6130
11529TIP3   OH256001   1.905   2.038  15.621  0.0442  0.7140 -0.0726
11529TIP3    H156002   1.990   2.072  15.594 -0.4736  1.7471 -0.4645
11529TIP3    H256003   1.909   2.039  15.717  0.6435  0.2955 -0.0895
11530TIP3   OH256004   6.658   4.116  15.063 -0.2162  0.8764 -0.0516
11530TIP3    H156005   6.631   4.072  15.143 -0.4972 -1.7577 -1.4838
11530TIP3    H256006   6.588   4.097  15.000  0.0793  2.7233 -1.0006
11531TIP3   OH256007   3.878   4.392   4.018  0.4093  0.3715  0.9662
11531TIP3    H156008   3.825   4.415   3.942  0.3755  1.8141  1.4060
11531TIP3    H256009   3.843   4.308   4.047 -0.5086  0.4947  0.2453
11532TIP3   OH256010   4.871   0.921   1.503  0.3287 -0.0173 -0.2307
11532TIP3    H156011   4.943   0.860   1.493  1.6481  1.6098 -1.2084
11532TIP3    H256012   4.812   0.901   1.430  1.0988  0.3165 -0.9507
11533TIP3   OH256013   3.786   3.717  16.333  0.1328 -0.3326  0.2865
11533TIP3    H156014   3.828   3.712  16.419 -0.7156 -1.0828  0.6697
11533TIP3    H256015   3.694   3.734  16.352  0.3296  2.1575 -0.5661
11534TIP3   OH256016   2.322   2.492   1.666  0.2010  0.1435 -0.0729
11534TIP3    H156017   2.300   2.585   1.660  0.4283  0.1358 -1.1136
11534TIP3    H256018   2.275   2.451   1.593  1.7846 -0.2211 -0.9370
11535TIP3   OH256019   4.862   3.610   6.321 -0.5761 -0.4159 -0.3801
11535TIP3    H156020   4.955   3.616   6.340 -1.1153 -0.6145  3.1066
11535TIP3    H256021   4.856   3.552   6.245  2.1336  0.1904 -1.1543
11536TIP3   OH256022   4.095   0.254   5.631 -0.1093  0.8438  0.8237
11536TIP3    H156023   4.082   0.344   5.660 -1.4923  0.4372  1.5490
11536TIP3    H256024   4.010   0.212   5.645  0.7974 -0.8483  1.5037
11537TIP3   OH256025   5.797   5.831   5.771 -0.3336 -0.0745  0.1331
11537TIP3    H156026   5.855   5.769   5.728 -0.2153  1.0740 -1.4502
11537TIP3    H256027   5.856   5.891   5.818 -0.2835  0.4072 -0.5313
11538TIP3   OH256028   4.415   1.880   3.320  0.4003  0.1394 -0.4388
11538TIP3    H156029   4.489   1.941   3.320 -0.7467  1.6213  0.5997
11538TIP3    H256030   4.338   1.936   3.329 -0.7087 -1.4660  0.6442
11539TIP3   OH256031   0.416   1.109   4.058 -0.3047  0.3242  0.4941
11539TIP3    H156032   0.447   1.176   4.120 -1.6785  1.3994  0.0875
11539TIP3    H256033   0.387   1.036   4.113  1.8661 -0.2724  0.9188
11540TIP3   OH256034   1.169   4.453   0.321  0.5510  0.0738  0.1965
11540TIP3    H156035   1.227   4.378   0.309  0.9769  0.2985  0.8202
11540TIP3    H256036   1.081   4.416   0.316  0.7518 -0.6120  1.3269
11541TIP3   OH256037   2.190   5.675   3.933 -0.0914  0.3345  0.4592
11541TIP3    H156038   2.203   5.750   3.874 -0.8504 -0.0595 -0.2334
11541TIP3    H256039   2.249   5.608   3.899  1.6696  1.0614  1.9482
11542TIP3   OH256040   1.996   4.789  14.499  0.2913  0.8859  0.1433
11542TIP3    H156041   1.953   4.708  14.526 -0.7003  1.5913  0.7523
11542TIP3    H256042   1.961   4.855  14.558 -0.5454  2.1625 -1.7111
11543TIP3   OH256043   1.302   4.695  16.355  0.5433 -0.2964 -0.0821
11543TIP3    H156044   1.386   4.651  16.355  0.7928  0.0793 -2.0941
11543TIP3    H256045   1.275   4.696  16.263 -1.9090 -0.8639  0.5551
11544TIP3   OH256046   0.900   5.833  12.593  0.1851  0.2349  0.4867
11544TIP3    H156047   0.839   5.890  12.640 -0.6720 -0.2942  0.0274
11544TIP3    H256048   0.849   5.798  12.521  1.2999  0.5102 -0.4603
11545TIP3   OH256049   0.563   2.489   2.579  0.1463 -0.3788  0.6855
11545TIP3    H156050   0.499   2.457   2.516 -1.5386  3.8845 -0.0965
11545TIP3    H256051   0.520   2.478   2.664  0.9056 -2.7291  0.8524
11546TIP3   OH256052   4.599   5.468  15.652 -0.0528 -0.3495 -0.6139
11546TIP3    H156053   4.590   5.557  15.618  2.1479  0.3836  0.5236
11546TIP3    H256054   4.536   5.464  15.724  1.1622  0.9916  0.5755
11547TIP3   OH256055   4.315   5.924   2.105 -0.0718 -0.1265  0.2946
11547TIP3    H156056   4.323   5.868   2.028 -1.0196  1.0829 -0.7131
11547TIP3    H256057   4.235   5.893   2.149 -0.4876  0.3050 -0.1549
11548TIP3   OH256058   6.104   0.126  11.497 -0.1957 -0.3843 -0.3670
11548TIP3    H156059   6.196   0.152  11.493  0.4247 -2.2432  0.4802
11548TIP3    H256060   6.079   0.142  11.588 -1.6043  2.6421 -1.1564
11549TIP3   OH256061   4.665   6.779  11.329 -0.3293  0.0858  0.0212
11549TIP3    H156062   4.620   6.863  11.313  0.3023  0.5277  0.5393
11549TIP3    H256063   4.607   6.732  11.389 -1.0340 -0.1568 -0.8244
11550TIP3   OH256064   5.181   4.515  14.560 -0.3781  0.3276  0.0522
11550TIP3    H156065   5.231   4.444  14.518 -0.8416 -0.2332  0.4245
11550TIP3    H256066   5.101   4.520  14.509 -0.4117  0.4800  0.1221
11551TIP3   OH256067   0.865   6.360  14.739  0.5784  0.0927  0.3484
11551TIP3    H156068   0.946   6.343  14.787  0.9477 -1.1962 -0.6603
11551TIP3    H256069   0.818   6.276  14.742  0.2835  0.2010 -0.9056
11552TIP3   OH256070   2.860   0.632  11.476  0.2247 -0.3187 -0.0307
11552TIP3    H156071   2.810   0.601  11.552 -0.9254 -1.1071 -1.0928
11552TIP3    H256072   2.946   0.654  11.513 -0.3080 -0.6446  1.5095
11553TIP3   OH256073   2.604   2.985   3.388  0.1210 -0.0870 -0.1849
11553TIP3    H156074   2.564   2.911   3.343 -0.5011 -0.6221  1.2036
11553TIP3    H256075   2.602   2.962   3.481  1.0751  1.1188  0.1745
11554TIP3   OH256076   5.345   3.960   0.033 -0.9212  0.1758 -0.4851
11554TIP3    H156077   5.262   3.992   0.069 -1.3443 -0.3241 -0.9842
11554TIP3    H256078   5.383   3.908   0.103 -2.6614 -2.4238 -1.3196
11555TIP3   OH256079   0.388   5.193  13.012  0.4573  0.0299  0.6720
11555TIP3    H156080   0.418   5.279  13.042 -1.8386  1.0606  0.2333
11555TIP3    H256081   0.417   5.189  12.920  0.4533  0.3943  0.6532
11556TIP3   OH256082   4.476   1.256  13.532 -0.6337  0.7341 -0.0958
11556TIP3    H156083   4.498   1.262  13.625  0.9397  0.5307 -0.4207
11556TIP3    H256084   4.544   1.307  13.488 -1.2524  0.6799 -1.1493
11557TIP3   OH256085   0.643   4.628   0.573 -0.2848  0.2921  0.0339
11557TIP3    H156086   0.558   4.620   0.617 -0.2722  0.8437  0.1690
11557TIP3    H256087   0.690   4.695   0.624 -0.2897  0.9749 -0.8370
11558TIP3   OH256088   0.706   5.504   0.980  0.0526  0.1004 -0.3107
11558TIP3    H156089   0.769   5.560   0.935 -0.6656  0.9915 -0.2528
11558TIP3    H256090   0.661   5.458   0.910  1.6529 -1.5808 -0.3025
11559TIP3   OH256091   4.680   5.079   2.306  0.3724  0.0182 -0.2789
11559TIP3    H156092   4.756   5.136   2.291  0.2955 -0.5675 -3.8744
11559TIP3    H256093   4.716   5.004   2.353  1.5271  0.7935  0.1357
11560TIP3   OH256094   4.098   3.656  13.620  0.3323  0.2753 -0.5557
11560TIP3    H156095   4.170   3.631  13.677 -0.2385  0.8503  0.4454
11560TIP3    H256096   4.019   3.628  13.666 -0.0899 -0.9101 -1.9220
11561TIP3   OH256097   6.299   5.251  11.183 -0.0299 -0.6807 -0.1697
11561TIP3    H156098   6.365   5.240  11.252  0.9325 -0.1485 -0.9921
11561TIP3    H256099   6.347   5.242  11.101 -0.7058  1.0644 -0.8037
11562TIP3   OH256100   1.257   5.091   2.356  0.1948 -0.3918 -0.0807
11562TIP3    H156101   1.296   5.012   2.317  2.4265  0.5483  0.1119
11562TIP3    H256102   1.302   5.102   2.439 -1.5700 -0.0129  0.8884
11563TIP3   OH256103   4.520   2.348   2.532  0.5347 -0.1277 -0.8118
11563TIP3    H156104   4.532   2.441   2.550 -0.3387 -0.1031 -0.2744
11563TIP3    H256105   4.461   2.346   2.456 -1.3924 -0.1993  0.5995
11564TIP3   OH256106   4.355   3.549  11.791  0.6831 -0.0537  0.4505
11564TIP3    H156107   4.381   3.582  11.705  2.1737  0.9308  1.2193
11564TIP3    H256108   4.377   3.456  11.788 -0.0966 -0.2251 -0.5079
11565TIP3   OH256109   1.106   4.393  10.927  0.5375 -0.1591 -0.1132
11565TIP3    H156110   1.120   4.473  10.876  1.1923  0.6722  1.3125
11565TIP3    H256111   1.186   4.382  10.977 -0.0228 -1.0385  0.6226
11566TIP3   OH256112   0.066   4.607  12.359 -0.0093 -0.1798  0.2217
11566TIP3    H156113   0.138   4.662  12.391  2.3385 -2.0384 -1.4302
11566TIP3    H256114  -0.012   4.662  12.366  1.5947  2.0673  1.8529
11567TIP3   OH256115   3.729   0.860  13.171 -0.5127  0.6897 -0.1626
11567TIP3    H156116   3.688   0.936  13.129 -1.2620  0.8357  0.8073
11567TIP3    H256117   3.706   0.787  13.114 -1.1901  0.9442 -0.2294
11568TIP3   OH256118   0.246   0.530  14.704 -0.6331  0.4910  0.0272
11568TIP3    H156119   0.279   0.570  14.624 -1.0116 -0.5576 -0.6656
11568TIP3    H256120   0.263   0.596  14.772 -0.6974  1.5774 -0.9700
11569TIP3   OH256121   4.482   6.360   3.469  0.0290 -0.2390 -0.1403
11569TIP3    H156122   4.428   6.436   3.449  1.3845  1.6480  2.8544
11569TIP3    H256123   4.515   6.375   3.557  1.8826 -3.4399 -0.1188
11570TIP3   OH256124   0.189   0.255  11.973  0.7031 -0.2095 -0.2347
11570TIP3    H156125   0.231   0.301  12.046 -2.2985  3.3528 -0.4408
11570TIP3    H256126   0.117   0.206  12.013 -0.1685  0.7239 -0.6151
11571TIP3   OH256127   4.882   0.288  16.406 -0.2337 -0.1945  0.4701
11571TIP3    H156128   4.810   0.351  16.406 -0.2119 -0.1602 -0.0663
11571TIP3    H256129   4.935   0.313  16.330  1.1647  0.7061  1.6957
11572TIP3   OH256130   0.484   3.885  12.564 -0.3071  0.4607  0.0634
11572TIP3    H156131   0.523   3.968  12.589 -1.7818  1.2348 -0.1002
11572TIP3    H256132   0.417   3.868  12.631  1.6688 -1.9562  1.6335
11573TIP3   OH256133   1.567   4.637  16.947  0.1115 -0.3531  0.1920
11573TIP3    H156134   1.619   4.564  16.979  1.0381 -0.8140 -2.1120
11573TIP3    H256135   1.582   4.637  16.852 -2.5375  0.7407 -0.3372
11574TIP3   OH256136   2.800   6.753  16.597  0.3715  0.7492 -0.1634
11574TIP3    H156137   2.729   6.691  16.616 -0.2234  1.4221 -0.1535
11574TIP3    H256138   2.876   6.716  16.641  0.0955 -0.1311 -0.4050
11575TIP3   OH256139   4.872   5.490  14.505  0.1704 -0.1583  0.3732
11575TIP3    H156140   4.863   5.397  14.483  0.5227 -0.1539  0.2060
11575TIP3    H256141   4.816   5.535  14.442 -1.1396 -0.3516  1.3611
11576TIP3   OH256142   2.067   4.685  15.143  0.2352  0.4123  0.2420
11576TIP3    H156143   2.143   4.719  15.096 -0.1714  0.8560 -0.1043
11576TIP3    H256144   2.010   4.761  15.155 -1.8805 -0.5245 -2.8350
11577TIP3   OH256145   5.033   2.130  15.987 -0.1914  0.1698 -0.2701
11577TIP3    H156146   5.060   2.045  16.022  0.3101 -0.3483 -1.8152
11577TIP3    H256147   5.070   2.194  16.047 -0.4032 -0.6924  0.8074
11578TIP3   OH256148   2.484   6.478  15.702  0.3619  0.1070 -0.2238
11578TIP3    H156149   2.482   6.528  15.784 -0.5621 -1.3766  0.7249
11578TIP3    H256150   2.495   6.544  15.633 -1.5112  1.6915  0.8845
11579TIP3   OH256151   1.926   4.378   4.909  0.4889 -0.3535  0.2680
11579TIP3    H156152   1.846   4.365   4.959  0.2567 -1.1396 -0.2938
11579TIP3    H256153   1.979   4.437   4.963 -1.8597  3.1157 -0.9195
11580TIP3   OH256154   0.055   5.998   3.850 -0.0858  0.1168 -0.1389
11580TIP3    H156155   0.054   6.070   3.914  1.3558 -2.0846  2.6277
11580TIP3    H256156   0.089   6.038   3.770  0.3215  2.5816  1.1487
11581TIP3   OH256157   6.683   2.667  16.605 -0.1865 -0.4316 -0.1661
11581TIP3    H156158   6.652   2.609  16.536 -2.8160 -0.0305  0.5789
11581TIP3    H256159   6.622   2.653  16.678 -0.4362  2.5933  0.3306
11582TIP3   OH256160   5.321   6.031  11.767 -0.0542  0.3295  0.2168
11582TIP3    H156161   5.377   6.061  11.695 -0.5786 -1.2182 -0.8850
11582TIP3    H256162   5.382   6.006  11.836  0.5849 -0.3293 -0.5657
11583TIP3   OH256163   1.118   4.220  16.003  0.7103 -0.0063 -0.6199
11583TIP3    H156164   1.092   4.307  15.972  0.5367 -0.3760 -1.5527
11583TIP3    H256165   1.203   4.234  16.044  0.1738  0.7968  0.2815
11584TIP3   OH256166   0.422   4.866   4.779  0.1477 -0.0098 -0.3894
11584TIP3    H156167   0.402   4.947   4.732  1.0930  1.1705  1.1640
11584TIP3    H256168   0.510   4.879   4.814 -0.0979 -1.2798  0.7818
11585TIP3   OH256169   5.397   0.012  10.601 -0.1990  0.5799  0.8087
11585TIP3    H156170   5.478   0.011  10.551 -1.0225  2.1496 -0.7044
11585TIP3    H256171   5.390   0.101  10.635 -0.3867 -0.0562  2.5630
11586TIP3   OH256172   3.147   6.522   0.027 -0.0434 -0.1967 -0.8446
11586TIP3    H156173   3.115   6.611   0.036 -0.3082 -0.1728 -1.9189
11586TIP3    H256174   3.100   6.472   0.093 -1.0633  0.1617 -1.2889
11587TIP3   OH256175   0.935   2.498   3.402 -0.4589 -0.1359 -0.5058
11587TIP3    H156176   0.864   2.559   3.382 -0.7202 -0.7007 -1.3813
11587TIP3    H256177   0.891   2.414   3.416  0.0098 -0.4373 -0.7975
11588TIP3   OH256178   6.664   5.549  11.344 -0.1290  0.0643 -0.2516
11588TIP3    H156179   6.611   5.482  11.301  0.8230 -0.4877 -0.5924
11588TIP3    H256180   6.689   5.609  11.273 -1.1641  0.9308  0.0885
11589TIP3   OH256181   0.369   2.244  16.217  0.3625 -0.4285 -0.9151
11589TIP3    H156182   0.359   2.148  16.219 -2.0497 -0.2725  2.0477
11589TIP3    H256183   0.419   2.265  16.296 -0.3482  0.8115 -0.7657
11590TIP3   OH256184   5.736   3.576   2.414  0.0985  0.3428  0.0976
11590TIP3    H156185   5.734   3.516   2.339  1.6935 -0.0405  0.3176
11590TIP3    H256186   5.817   3.553   2.460  0.6880  2.5771  0.2786
11591TIP3   OH256187   1.989   1.484  14.751  0.2759  0.1725  0.1713
11591TIP3    H156188   1.907   1.492  14.800 -0.9588  0.3542 -1.8311
11591TIP3    H256189   1.979   1.544  14.677  1.4544 -1.1519 -1.1258
11592TIP3   OH256190   4.564   5.523   1.836 -0.2295 -0.4495  0.4842
11592TIP3    H156191   4.643   5.469   1.842 -0.1990 -0.5718 -0.7943
11592TIP3    H256192   4.492   5.461   1.845 -0.2783 -1.3000 -3.8968
11593TIP3   OH256193   3.890   5.213  14.126 -0.5067  0.1302 -0.0806
11593TIP3    H156194   3.848   5.295  14.098 -0.0051  0.4592  0.1024
11593TIP3    H256195   3.887   5.157  14.049 -0.7397  0.3718 -0.2506
11594TIP3   OH256196   4.208   0.377  11.651 -0.0945 -0.3384  0.6453
11594TIP3    H156197   4.237   0.364  11.561 -0.2839 -1.5938  0.7463
11594TIP3    H256198   4.239   0.464  11.674 -0.8859  0.4149 -0.9518
11595TIP3   OH256199   0.165   2.931  14.695 -0.4565  0.1087  0.3056
11595TIP3    H156200   0.081   2.931  14.741 -0.4279 -1.1728  0.3877
11595TIP3    H256201   0.141   2.937  14.602 -0.6649 -0.7694  0.3004
11596TIP3   OH256202   1.947   3.095   4.678 -0.6159  0.4105  0.2927
11596TIP3    H156203   2.025   3.142   4.649 -1.4889  0.1596 -2.7951
11596TIP3    H256204   1.979   3.008   4.701  0.0209  0.2391 -1.1484
11597TIP3   OH256205   1.142   6.011  13.721  0.0036 -0.7232  0.0239
11597TIP3    H156206   1.067   6.068  13.704  1.2498  0.7352 -0.8444
11597TIP3    H256207   1.105   5.922  13.716 -1.4935 -0.0969 -1.4043
11598TIP3   OH256208   5.700   2.352  14.457 -0.6478 -0.6096  0.0478
11598TIP3    H156209   5.789   2.322  14.439 -0.7532 -0.9372  0.0516
11598TIP3    H256210   5.710   2.440  14.492 -0.2570 -1.0377  1.0387
11599TIP3   OH256211   6.369   1.869   5.149 -0.1912 -0.0590  0.7810
11599TIP3    H156212   6.455   1.847   5.187 -0.0931  0.5174  0.9087
11599TIP3    H256213   6.385   1.872   5.055  0.1228  0.7858  0.8428
11600TIP3   OH256214   4.508   0.348   5.846 -0.3446 -0.0765 -0.1098
11600TIP3    H156215   4.426   0.328   5.891 -1.1204 -0.0008 -1.4310
11600TIP3    H256216   4.562   0.391   5.912 -2.1555  1.7628  0.2746
11601TIP3   OH256217   0.127   4.802  11.615 -0.1213  0.5247 -0.2767
11601TIP3    H156218   0.053   4.852  11.651 -0.3241  0.0858 -0.0830
11601TIP3    H256219   0.202   4.830  11.667 -0.6576 -1.1856  1.5073
11602TIP3   OH256220   5.842   1.231  13.140 -0.2870 -0.6848  0.2018
11602TIP3    H156221   5.794   1.226  13.223 -1.1625  1.3874 -0.1298
11602TIP3    H256222   5.776   1.258  13.076  0.7858 -0.3612 -0.7942
11603TIP3   OH256223   6.791   1.671  14.758  1.1388  0.3649 -0.2760
11603TIP3    H156224   6.744   1.588  14.770  0.3235  0.9417  0.6036
11603TIP3    H256225   6.882   1.645  14.744  0.8593 -0.6847 -0.2283
11604TIP3   OH256226   5.777   4.499   1.661  0.3924 -0.4777 -0.0597
11604TIP3    H156227   5.808   4.513   1.571 -0.0168  1.3664  0.0596
11604TIP3    H256228   5.682   4.509   1.655  0.3382 -0.6262  0.5395
11605TIP3   OH256229   0.178   1.291   4.154  0.4123  0.0299 -0.2142
11605TIP3    H156230   0.235   1.365   4.135 -0.6189  1.2985  1.3893
11605TIP3    H256231   0.136   1.271   4.070  0.7019  1.2767 -0.6746
11606TIP3   OH256232   2.560   0.885  14.489 -0.1656 -0.5808  0.3579
11606TIP3    H156233   2.544   0.797  14.522 -0.1076 -0.7486 -0.0591
11606TIP3    H256234   2.490   0.938  14.528 -0.9083 -1.0344 -0.3289
11607TIP3   OH256235   4.630   5.364  12.261  0.2890 -0.3692 -0.1365
11607TIP3    H156236   4.621   5.459  12.247  0.9973 -0.3699 -0.6416
11607TIP3    H256237   4.663   5.356  12.350 -3.2193 -0.3176  1.3316
11608TIP3   OH256238   1.129   1.758   0.753  0.2720 -0.1268  0.6543
11608TIP3    H156239   1.136   1.843   0.708 -2.0372 -0.4027 -0.3670
11608TIP3    H256240   1.035   1.742   0.760  0.6029 -1.5822  2.8912
11609TIP3   OH256241   1.605   2.810  16.272  0.0203 -0.0602 -0.2151
11609TIP3    H156242   1.551   2.748  16.321 -0.8341 -0.4635 -1.6006
11609TIP3    H256243   1.543   2.872  16.235  0.8970  1.9884  1.5454
11610TIP3   OH256244   4.556   6.706  11.895 -0.3323  0.2816  0.3204
11610TIP3    H156245   4.476   6.655  11.879  0.6331 -1.2772  0.3307
11610TIP3    H256246   4.611   6.688  11.819  0.3666  0.6589  0.7314
11611TIP3   OH256247   1.605   0.879  14.672 -0.4971  0.2750  0.2925
11611TIP3    H156248   1.697   0.905  14.675 -0.3217 -0.1324 -0.9906
11611TIP3    H256249   1.584   0.855  14.762  1.1963 -1.4299  0.2984
11612TIP3   OH256250   6.419   3.601   3.884 -0.1609 -0.6272 -0.2155
11612TIP3    H156251   6.342   3.568   3.929 -0.4646 -0.1058 -0.3492
11612TIP3    H256252   6.394   3.688   3.854 -0.4299 -1.4167 -2.4914
11613TIP3   OH256253   0.971   4.660   1.544  0.1696 -0.1631 -0.1286
11613TIP3    H156254   1.021   4.614   1.612  0.1046 -1.2294 -0.7754
11613TIP3    H256255   1.030   4.661   1.468 -0.1753  0.0400 -0.3958
11614TIP3   OH256256   3.949   5.154   3.626 -0.2968  0.0552 -0.4507
11614TIP3    H156257   3.871   5.199   3.595 -0.2591 -0.1601 -0.8729
11614TIP3    H256258   4.010   5.158   3.552  0.0548  0.1381 -0.1575
11615TIP3   OH256259   1.938   6.657   5.171 -0.0430 -0.3837 -0.3966
11615TIP3    H156260   1.919   6.750   5.158  1.1898  0.0920  0.9173
11615TIP3    H256261   1.877   6.629   5.238  0.8435  0.0007  0.6001
11616TIP3   OH256262   6.397   1.781  14.000 -0.2645  0.5506 -0.0427
11616TIP3    H156263   6.335   1.748  14.065 -1.5449  1.9725 -0.4765
11616TIP3    H256264   6.354   1.764  13.916  1.3377 -1.2147 -0.5621
11617TIP3   OH256265   5.697   3.529   4.730  0.1996  0.4764 -0.7791
11617TIP3    H156266   5.738   3.543   4.645  1.5045  0.1352 -0.2229
11617TIP3    H256267   5.770   3.513   4.790 -0.6862  0.8886  0.4464
11618TIP3   OH256268   4.368   0.529  15.275  0.2849  0.4111 -0.1025
11618TIP3    H156269   4.290   0.492  15.317  0.4924  1.5247  1.3365
11618TIP3    H256270   4.357   0.624  15.283  1.9867  0.5814  0.5119
11619TIP3   OH256271   3.896   2.834   1.778 -0.6447  0.5436  0.1876
11619TIP3    H156272   3.941   2.918   1.789 -0.7299  0.5327  0.6621
11619TIP3    H256273   3.876   2.807   1.868 -0.8452  0.1411  0.0197
11620TIP3   OH256274   6.264   6.766  13.584 -0.0206 -0.6738 -0.0031
11620TIP3    H156275   6.244   6.780  13.676  1.8862 -3.1025  0.8886
11620TIP3    H256276   6.272   6.854  13.548  0.0038  0.3620  2.3364
11621TIP3   OH256277   1.430   5.485   5.507 -0.1235  0.2188  0.8732
11621TIP3    H156278   1.438   5.441   5.592  1.6635 -0.2810  0.4713
11621TIP3    H256279   1.488   5.560   5.513 -0.1725  0.3157  0.1822
11622TIP3   OH256280   3.637   2.580   5.555 -1.0721  0.1047 -0.6391
11622TIP3    H156281   3.584   2.656   5.579 -2.2945 -0.6871 -0.7275
11622TIP3    H256282   3.590   2.540   5.481  0.0490 -0.2209 -1.2051
11623TIP3   OH256283   1.661   2.584   5.341 -0.1796  0.3018 -0.0078
11623TIP3    H156284   1.662   2.626   5.427  0.7396  0.1575  0.0619
11623TIP3    H256285   1.616   2.500   5.356 -0.8845  0.6999  0.1183
11624TIP3   OH256286   5.963   0.952   1.534  0.2274 -0.1663  0.2891
11624TIP3    H156287   5.955   0.883   1.600  0.1232  2.6285  3.4992
11624TIP3    H256288   5.879   0.998   1.537  0.6947  0.8066 -0.8780
11625TIP3   OH256289   6.121   6.646   3.341 -0.0581  0.2679 -0.1428
11625TIP3    H156290   6.207   6.668   3.306 -0.6468  1.1716 -1.0820
11625TIP3    H256291   6.102   6.715   3.404  0.3487 -0.5209  0.8629
11626TIP3   OH256292   0.166   0.427   0.910  0.0303 -0.2035 -0.1819
11626TIP3    H156293   0.098   0.362   0.922  0.1298 -0.4493 -0.8936
11626TIP3    H256294   0.166   0.478   0.991 -0.2689 -0.8776  0.2432
11627TIP3   OH256295   6.038   1.789  13.801  0.1638 -0.3598  0.6467
11627TIP3    H156296   6.000   1.815  13.885 -0.6962 -0.2523  0.2413
11627TIP3    H256297   5.962   1.766  13.747  0.4009  2.4793 -1.0965
11628TIP3   OH256298   0.925   4.153   1.221 -0.0318 -0.3385 -0.0411
11628TIP3    H156299   0.928   4.170   1.316 -2.5622 -0.8666  0.1988
11628TIP3    H256300   0.869   4.223   1.187  0.5794 -0.3626 -1.1309
11629TIP3   OH256301   3.038   0.381  13.482 -0.1478 -0.0429 -0.1925
11629TIP3    H156302   3.041   0.291  13.449 -0.9531 -0.1194 -0.0596
11629TIP3    H256303   3.114   0.388  13.540 -0.2902 -0.7395  0.0747
11630TIP3   OH256304   6.198   4.145   3.850  0.0810 -0.8893  0.4991
11630TIP3    H156305   6.107   4.117   3.860 -0.6150  0.8469 -0.5318
11630TIP3    H256306   6.196   4.239   3.865  2.1460 -1.1108  2.8092
11631TIP3   OH256307   6.744   6.048  16.934  0.9783 -0.1047 -0.0315
11631TIP3    H156308   6.751   6.118  16.999  2.1856  1.1353 -1.4187
11631TIP3    H256309   6.808   6.072  16.867 -0.7932 -0.8522 -2.0985
11632TIP3   OH256310   1.926   6.179   2.936  0.8688  0.3155 -0.5352
11632TIP3    H156311   1.951   6.226   2.857  1.4954  1.7864  0.4944
11632TIP3    H256312   1.877   6.103   2.905 -0.3494  1.7433 -2.2551
11633TIP3   OH256313   2.790   5.602   5.600  0.2081 -0.1345 -0.3730
11633TIP3    H156314   2.875   5.646   5.591  0.4767 -0.9496 -2.2980
11633TIP3    H256315   2.779   5.590   5.694  1.2706  1.7957  0.0598
11634TIP3   OH256316   5.014   0.819   4.793  0.0667  0.1523  0.2333
11634TIP3    H156317   5.046   0.840   4.881  1.5613 -1.5298  0.1330
11634TIP3    H256318   5.064   0.743   4.766 -0.9202  0.1463 -1.7922
11635TIP3   OH256319   5.719   3.633   1.642 -0.0284 -0.3047 -0.4566
11635TIP3    H156320   5.777   3.558   1.630 -1.4958 -1.5538 -0.0914
11635TIP3    H256321   5.745   3.670   1.726 -1.0508 -2.1398  0.7543
11636TIP3   OH256322   1.954   6.260  15.938  0.3278 -0.2103 -0.5427
11636TIP3    H156323   1.968   6.231  15.848  0.8077 -0.7340 -0.3044
11636TIP3    H256324   1.869   6.222  15.963  0.6068 -0.7995 -0.4809
11637TIP3   OH256325   0.127   3.838  13.421  0.4405 -0.3383  0.3318
11637TIP3    H156326   0.174   3.763  13.459 -0.5198 -0.1173  2.0560
11637TIP3    H256327   0.059   3.858  13.485 -1.4667 -0.0997 -1.6833
11638TIP3   OH256328   5.390   4.788   3.670  0.6355 -0.3450  0.0483
11638TIP3    H156329   5.358   4.872   3.702 -0.0244 -1.1489  1.6150
11638TIP3    H256330   5.481   4.783   3.700  0.1745 -0.8715  1.4610
11639TIP3   OH256331   4.459   5.431  11.393 -0.0282  0.2260 -0.3528
11639TIP3    H156332   4.407   5.511  11.400 -0.0250  0.1638  0.4135
11639TIP3    H256333   4.520   5.435  11.466 -1.1638 -1.2908  0.7347
11640TIP3   OH256334   3.909   4.675  15.498 -0.0745 -0.0610 -0.3732
11640TIP3    H156335   3.869   4.674  15.585  1.8418 -0.9009  0.5463
11640TIP3    H256336   3.951   4.761  15.492  1.6668 -0.7902  0.4969
11641TIP3   OH256337   5.864   0.445  13.073  0.5135  0.3143 -0.7503
11641TIP3    H156338   5.930   0.412  13.134 -0.0022 -2.8337 -1.7093
11641TIP3    H256339   5.805   0.497  13.127 -0.7053 -3.4257  1.9159
11642TIP3   OH256340   4.103   6.542   4.648  0.0525  0.6255 -0.0277
11642TIP3    H156341   4.195   6.515   4.640 -0.2132 -0.6610  0.9748
11642TIP3    H256342   4.068   6.488   4.719 -1.2626  1.7062  0.1917
11643TIP3   OH256343   0.816   6.422   1.093 -0.2067 -0.3119  0.3438
11643TIP3    H156344   0.822   6.513   1.064 -0.5352 -0.3765  0.0695
11643TIP3    H256345   0.738   6.388   1.051 -1.5937  0.0123  2.4867
11644TIP3   OH256346   1.562   1.788   3.811 -0.6139  0.5967 -0.6910
11644TIP3    H156347   1.654   1.797   3.836 -0.3870 -2.0217 -0.2494
11644TIP3    H256348   1.532   1.877   3.795  1.9355  1.5396 -0.6344
11645TIP3   OH256349   4.880   5.168   1.917  0.5526 -0.7177  0.0532
11645TIP3    H156350   4.872   5.155   1.823 -2.5938 -0.0825  0.1071
11645TIP3    H256351   4.857   5.083   1.955 -1.6078 -0.1169  0.2133
11646TIP3   OH256352   5.705   6.565   5.942  0.0152 -0.1001  0.4054
11646TIP3    H156353   5.662   6.494   5.894 -1.1418 -0.0711  1.3684
11646TIP3    H256354   5.634   6.610   5.987  0.8967  0.8525  0.8799
11647TIP3   OH256355   4.035   1.672   1.341 -0.0374  0.1700 -0.0709
11647TIP3    H156356   3.955   1.724   1.336 -0.2610 -0.2358 -0.9109
11647TIP3    H256357   4.100   1.724   1.293 -0.6411 -0.9647 -2.2404
11648TIP3   OH256358   3.133   3.153   2.647  0.3626 -0.8383  0.3178
11648TIP3    H156359   3.074   3.081   2.668 -1.9261  1.3633  2.0533
11648TIP3    H256360   3.091   3.199   2.575  0.1793  0.4809  1.2364
11649TIP3   OH256361   1.859   2.369  14.662  0.2332  0.9970 -0.2336
11649TIP3    H156362   1.925   2.388  14.729  1.0711  0.5723 -0.9101
11649TIP3    H256363   1.816   2.289  14.692  0.6714  0.7549 -0.2422
11650TIP3   OH256364   0.580   0.166   2.000 -0.1327  0.4019 -0.4959
11650TIP3    H156365   0.578   0.220   2.079 -0.2385 -0.4502  0.1042
11650TIP3    H256366   0.671   0.135   1.994 -0.5452 -1.0945  0.4090
11651TIP3   OH256367   0.725   0.022  12.066 -0.7397 -0.7633  0.8268
11651TIP3    H156368   0.670   0.053  12.138 -1.8727 -1.1979  0.1694
11651TIP3    H256369   0.701  -0.070  12.056 -0.9677 -0.5873 -0.4328
11652TIP3   OH256370   2.841   6.109   2.256 -0.1811 -0.6026 -0.0948
11652TIP3    H156371   2.931   6.137   2.272 -0.1967 -1.1722  1.1838
11652TIP3    H256372   2.824   6.045   2.326 -2.5530  1.6500  1.5904
11653TIP3   OH256373   1.488   1.405  14.083 -0.3907 -0.2716 -0.2891
11653TIP3    H156374   1.463   1.342  14.015 -0.3082  0.6291 -1.1814
11653TIP3    H256375   1.502   1.487  14.035  0.7138  0.1309  0.6705
11654TIP3   OH256376   0.690   5.176  12.894  0.4476 -0.2063 -0.2158
11654TIP3    H156377   0.639   5.223  12.828 -1.2653  0.8201  1.6947
11654TIP3    H256378   0.775   5.219  12.893  0.4956 -0.2735 -1.7761
11655TIP3   OH256379   6.741   2.398   1.221  0.3663  0.1885  0.1250
11655TIP3    H156380   6.657   2.368   1.256  0.6376  0.0538  0.6784
11655TIP3    H256381   6.718   2.466   1.157 -0.1439  0.4837  0.6122
11656TIP3   OH256382   1.345   1.497   1.687  0.3222  0.4836 -0.0303
11656TIP3    H156383   1.300   1.549   1.621  0.2347  0.2691 -0.1424
11656TIP3    H256384   1.315   1.407   1.671  1.5351  0.1844 -0.7244
11657TIP3   OH256385   4.895   0.051   2.031 -0.5697  0.2018 -0.6844
11657TIP3    H156386   4.803   0.056   2.058 -0.6228 -0.1990 -0.7891
11657TIP3    H256387   4.934   0.131   2.066 -0.2509 -1.0016  1.9855
11658TIP3   OH256388   4.734   6.247  14.544  0.0645  0.7001  0.2664
11658TIP3    H156389   4.714   6.328  14.590  0.2433  1.0290 -0.2262
11658TIP3    H256390   4.828   6.234  14.555 -0.2219 -0.3606  1.7988
11659TIP3   OH256391   3.535   1.839   2.772  0.2842  0.3482 -0.5313
11659TIP3    H156392   3.530   1.871   2.682  0.5808  0.9497 -0.3391
11659TIP3    H256393   3.453   1.868   2.812 -0.1498 -0.4963 -0.7833
11660TIP3   OH256394   6.298   2.870   0.180  0.0441 -0.4429 -0.0750
11660TIP3    H156395   6.274   2.789   0.134 -0.8900 -2.2529  3.2271
11660TIP3    H256396   6.378   2.900   0.137 -1.1237 -1.4780 -3.2296
11661TIP3   OH256397   5.493   3.867  11.647 -0.2606 -0.4673 -0.3407
11661TIP3    H156398   5.544   3.902  11.720 -2.0138  0.8459  0.3093
11661TIP3    H256399   5.557   3.853  11.577  1.2994 -0.8639  1.1239
11662TIP3   OH256400   3.226   6.291  13.471 -0.3333 -0.5177 -0.2138
11662TIP3    H156401   3.151   6.315  13.417 -1.5304 -0.4519  1.3930
11662TIP3    H256402   3.300   6.339  13.433 -1.3534  0.3837 -1.1061
11663TIP3   OH256403   5.087   5.812   1.217  0.3803 -0.2631 -0.3740
11663TIP3    H156404   5.043   5.817   1.132  1.6372  0.2777 -1.0069
11663TIP3    H256405   5.143   5.734   1.210  2.1213  0.9774 -0.8711
11664TIP3   OH256406   6.290   6.807   1.329  0.1529 -0.3691 -0.7970
11664TIP3    H156407   6.258   6.826   1.241 -1.8387  0.0707 -0.0178
11664TIP3    H256408   6.289   6.891   1.374 -1.3319 -0.9683  0.3854
11665TIP3   OH256409   0.512   6.747  14.229  0.2052 -0.5517 -0.8428
11665TIP3    H156410   0.528   6.692  14.305  1.0720 -0.8948 -1.2603
11665TIP3    H256411   0.442   6.807  14.257  1.9364  0.7615  0.9816
11666TIP3   OH256412   3.512   5.431   0.450  0.3175 -0.3242 -0.2374
11666TIP3    H156413   3.455   5.356   0.437  1.2363 -1.7364  2.8757
11666TIP3    H256414   3.464   5.486   0.512  0.9081  0.1719 -0.2143
11667TIP3   OH256415   1.961   2.570  13.317  0.1634 -0.1628 -0.4658
11667TIP3    H156416   2.025   2.628  13.276 -0.2488  0.4314 -0.2870
11667TIP3    H256417   1.958   2.599  13.409 -0.0008 -0.5072 -0.3599
11668TIP3   OH256418   5.704   6.489  11.451  0.0347 -0.2192  0.3763
11668TIP3    H156419   5.621   6.444  11.468  0.3631 -2.0182 -2.2286
11668TIP3    H256420   5.685   6.548  11.379  0.8942 -0.2869  0.0864
11669TIP3   OH256421   6.183   2.599   0.100  0.0533 -0.5312  0.2673
11669TIP3    H156422   6.151   2.642   0.021 -1.1564  2.2455  2.0816
11669TIP3    H256423   6.110   2.544   0.129 -1.2516  1.7129  1.5714
11670TIP3   OH256424   2.226   0.200   4.569  0.0568 -0.0778 -0.2279
11670TIP3    H156425   2.158   0.267   4.560 -1.8861 -1.9569 -0.2823
11670TIP3    H256426   2.200   0.131   4.509  1.2047 -1.4931  0.8305
11671TIP3   OH256427   0.517   3.627   4.874 -0.0274 -1.0049  0.3756
11671TIP3    H156428   0.577   3.688   4.831 -1.5527  1.2178  1.1876
11671TIP3    H256429   0.560   3.542   4.867  3.0904  0.3907  0.7038
11672TIP3   OH256430   5.471   0.178  15.610 -0.1432 -0.0061  0.5004
11672TIP3    H156431   5.500   0.105  15.556  0.3788  0.2194  0.4641
11672TIP3    H256432   5.515   0.254  15.572  0.8655  0.0510  1.7108
11673TIP3   OH256433   0.712   1.088  11.979 -0.1692 -0.3891 -0.6941
11673TIP3    H156434   0.747   1.166  12.023 -0.3559 -0.1305 -0.9986
11673TIP3    H256435   0.730   1.016  12.039 -0.7091  0.0064 -0.0499
11674TIP3   OH256436   3.860   1.691   4.260 -0.2537  0.2642  0.1035
11674TIP3    H156437   3.823   1.680   4.172  0.0887 -0.5116  0.0482
11674TIP3    H256438   3.811   1.630   4.315 -0.6275  0.9131  0.5172
11675TIP3   OH256439   0.235   4.218  10.649  0.5101 -0.0908  0.0444
11675TIP3    H156440   0.305   4.221  10.584 -0.3421 -1.1589 -0.9625
11675TIP3    H256441   0.203   4.128  10.646 -3.3241  1.1180 -2.1801
11676TIP3   OH256442   0.257   6.568  12.666  0.1329 -0.4214 -0.5161
11676TIP3    H156443   0.169   6.535  12.648 -0.5281  0.1137  1.5284
11676TIP3    H256444   0.284   6.524  12.746  0.7786  1.1266  0.1617
11677TIP3   OH256445   1.185   2.328  15.626 -0.4046  0.0681 -0.3282
11677TIP3    H156446   1.241   2.273  15.682  0.9814  0.9807 -0.7760
11677TIP3    H256447   1.183   2.281  15.543 -1.1913 -0.5015  0.0026
11678TIP3   OH256448   1.631   6.337  15.510 -0.1652 -0.3331 -0.3636
11678TIP3    H156449   1.566   6.288  15.560 -0.4890  0.6956  0.2606
11678TIP3    H256450   1.655   6.411  15.567 -0.3508  0.7207 -1.5994
11679TIP3   OH256451   3.056   0.996   3.701  0.6876  0.1396  0.4000
11679TIP3    H156452   3.145   0.971   3.725  0.6758  0.1454  0.4476
11679TIP3    H256453   3.000   0.955   3.766  0.5450 -1.0506 -0.4530
11680TIP3   OH256454   5.464   4.316   3.124 -0.0065  0.1149 -0.3595
11680TIP3    H156455   5.402   4.373   3.169  1.3984  0.7052  0.9123
11680TIP3    H256456   5.429   4.228   3.136 -1.4760  0.5622 -1.1621
11681TIP3   OH256457   4.478   3.131  12.701 -0.3123 -0.2332 -0.8597
11681TIP3    H156458   4.543   3.194  12.670  0.0239 -0.8591 -1.4499
11681TIP3    H256459   4.520   3.087  12.775  0.6046 -1.7523 -2.2157
11682TIP3   OH256460   6.781   4.000   0.876  0.4521 -0.1517 -0.1393
11682TIP3    H156461   6.707   4.021   0.932 -0.4766 -0.2840 -1.2862
11682TIP3    H256462   6.851   3.977   0.937 -0.2614  0.5371  0.9762
11683TIP3   OH256463   1.478   4.470  15.810  0.4946  0.2202  0.2068
11683TIP3    H156464   1.476   4.394  15.868 -1.3776 -0.8357 -1.1511
11683TIP3    H256465   1.561   4.513  15.831  1.0958 -1.5548  1.7924
11684TIP3   OH256466   1.130   1.982   0.625  0.3389 -0.6325 -0.0018
11684TIP3    H156467   1.090   2.041   0.560  1.9338  1.1012  0.5257
11684TIP3    H256468   1.111   2.023   0.709  1.0007 -1.1716  0.4136
11685TIP3   OH256469   2.998   3.971   1.965 -0.1805  0.0838  0.3543
11685TIP3    H156470   2.950   4.023   2.030 -0.5693 -1.1597  1.1021
11685TIP3    H256471   2.936   3.956   1.894 -0.1472  0.4210  0.2538
11686TIP3   OH256472   6.496   6.322  11.013 -0.2852  0.2247  0.0969
11686TIP3    H156473   6.554   6.273  11.071 -1.1526 -0.6419  0.2750
11686TIP3    H256474   6.438   6.370  11.072  2.3408  3.8606 -0.0128
11687TIP3   OH256475   4.271   0.919  12.102  0.0877  0.5937 -0.1053
11687TIP3    H156476   4.307   0.947  12.018  1.5495  2.5087  1.0457
11687TIP3    H256477   4.348   0.897  12.155 -0.8730 -3.5893 -0.0844
11688TIP3   OH256478   4.372   5.327  12.415  0.0135 -0.5008  0.0414
11688TIP3    H156479   4.411   5.363  12.335  0.4867 -0.5010  0.2682
11688TIP3    H256480   4.301   5.388  12.436 -0.1680 -0.5497 -0.4267
11689TIP3   OH256481   3.363   4.894   0.713  0.2987 -0.0228 -0.3248
11689TIP3    H156482   3.291   4.934   0.761 -1.5196 -3.2099 -0.1328
11689TIP3    H256483   3.322   4.857   0.635  2.2047  0.1639 -1.4727
11690TIP3   OH256484   2.658   4.208   5.734 -0.0063 -0.4416 -0.0964
11690TIP3    H156485   2.687   4.165   5.814  1.7270  1.2314  0.2379
11690TIP3    H256486   2.613   4.287   5.764 -0.1136 -0.2425 -0.7673
11691TIP3   OH256487   3.911   1.995  15.113 -0.2135  0.0994  0.2630
11691TIP3    H156488   3.875   1.963  15.196 -0.6878 -0.8617 -0.3014
11691TIP3    H256489   3.863   1.947  15.046 -0.0015  1.0392 -0.5858
11692TIP3   OH256490   0.556   5.601  16.523 -0.3833  0.1430  0.6322
11692TIP3    H156491   0.506   5.674  16.487  0.5841  0.7105  0.4071
11692TIP3    H256492   0.525   5.524  16.473  0.6043  0.8380 -1.1597
11693TIP3   OH256493   6.210   5.765  16.456 -0.1642 -0.3763  0.6924
11693TIP3    H156494   6.294   5.738  16.494 -0.5573 -1.7952  0.5957
11693TIP3    H256495   6.147   5.754  16.526 -0.2371  1.0387  0.8724
11694TIP3   OH256496   2.625   4.790   0.952 -0.8902  0.0630 -0.7488
11694TIP3    H156497   2.559   4.788   0.883 -0.6210 -1.1406 -0.9800
11694TIP3    H256498   2.574   4.803   1.032 -1.5029 -1.6106 -0.8393
11695TIP3   OH256499   2.324   1.415  13.663  0.1447 -0.2715 -0.0239
11695TIP3    H156500   2.324   1.496  13.714  0.2415  0.3691 -1.0001
11695TIP3    H256501   2.291   1.348  13.723  0.1714  0.4715  0.8335
11696TIP3   OH256502   2.321   2.500  12.546 -0.5605  0.1553 -0.3797
11696TIP3    H156503   2.375   2.423  12.565 -2.0854 -1.0474 -0.7466
11696TIP3    H256504   2.362   2.538  12.468 -0.7619 -1.2996 -1.2379
11697TIP3   OH256505   2.677   1.273   5.225 -0.6008 -0.3527  0.5664
11697TIP3    H156506   2.727   1.194   5.206  1.1753  0.7004  0.6375
11697TIP3    H256507   2.728   1.344   5.186 -2.5333  0.7181 -0.1940
11698TIP3   OH256508   4.953   2.781   5.185 -0.1294  0.1865 -0.0056
11698TIP3    H156509   5.022   2.846   5.169 -0.9640  1.1023  0.0329
11698TIP3    H256510   4.991   2.721   5.248  1.3383 -0.4628 -1.4382
11699TIP3   OH256511   6.246   2.706  16.334  0.1812  0.5341  0.2600
11699TIP3    H156512   6.163   2.659  16.342  0.9259 -1.2112 -1.5499
11699TIP3    H256513   6.280   2.709  16.424 -0.4490 -1.4266  0.6075
11700TIP3   OH256514   3.494   5.381   5.206 -0.2865  0.0710  0.2269
11700TIP3    H156515   3.577   5.425   5.223  1.2271  0.1067 -5.3823
11700TIP3    H256516   3.511   5.288   5.225  0.4947  0.2925  0.6350
11701TIP3   OH256517   6.650   2.465   5.219 -0.3617  0.6845 -0.8507
11701TIP3    H156518   6.683   2.550   5.248  0.4665  0.2247 -0.3857
11701TIP3    H256519   6.594   2.435   5.291 -1.2743  1.1637 -1.3461
11702TIP3   OH256520   4.497   1.780  11.525  0.4991  0.0752 -0.0555
11702TIP3    H156521   4.496   1.686  11.542  0.0489 -0.4202 -2.3968
11702TIP3    H256522   4.470   1.788  11.433 -0.1414  2.5472  0.2703
11703TIP3   OH256523   2.851   0.500   3.152 -0.0642  0.4431  0.1077
11703TIP3    H156524   2.808   0.491   3.067 -1.7722 -0.4544  1.0109
11703TIP3    H256525   2.838   0.592   3.175 -0.0892  0.5579 -0.3465
11704TIP3   OH256526   0.158   6.554   2.478 -0.4152  0.7513 -0.6036
11704TIP3    H156527   0.248   6.525   2.467 -0.4936  0.3518 -0.1982
11704TIP3    H256528   0.164   6.649   2.492  0.1199  0.4168  1.6882
11705TIP3   OH256529   4.867   5.581  10.670  0.4633 -0.4116  0.2506
11705TIP3    H156530   4.953   5.612  10.701  0.1798  0.6842 -0.0184
11705TIP3    H256531   4.809   5.656  10.683 -0.7913 -1.5768  1.7360
11706TIP3   OH256532   5.415   5.716  16.744 -0.1131  0.5208 -0.0220
11706TIP3    H156533   5.333   5.668  16.760 -0.5043  0.6255 -1.6170
11706TIP3    H256534   5.412   5.789  16.806 -1.3630  0.6797 -0.2418
11707TIP3   OH256535   6.568   1.984  13.143  0.5025 -0.6892  0.6694
11707TIP3    H156536   6.612   1.908  13.181 -1.0066 -0.9259  2.0481
11707TIP3    H256537   6.476   1.959  13.138 -0.0213  1.0145  1.1053
11708TIP3   OH256538   4.549   2.594   2.615  0.1876 -0.4440  0.1961
11708TIP3    H156539   4.637   2.600   2.652  0.2358  0.5460 -0.0593
11708TIP3    H256540   4.526   2.684   2.593 -0.3024 -0.8726 -1.1094
11709TIP3   OH256541   5.636   1.930   0.311 -0.2169  0.2129 -0.4836
11709TIP3    H156542   5.638   1.911   0.405  1.8811  1.4858 -0.1925
11709TIP3    H256543   5.652   1.846   0.269  1.6690  0.0525  0.4460
11710TIP3   OH256544   0.660   1.552   3.236 -0.4920 -0.5398 -1.0723
11710TIP3    H156545   0.659   1.589   3.147 -1.2969 -0.8591 -1.2060
11710TIP3    H256546   0.745   1.509   3.243 -0.2123 -0.0776 -1.5049
11711TIP3   OH256547   1.190   5.689  14.410 -0.0203  0.1985  0.3614
11711TIP3    H156548   1.115   5.638  14.441  0.6068 -1.6276 -0.9066
11711TIP3    H256549   1.161   5.780  14.412 -1.7840 -0.3567  1.1838
11712TIP3   OH256550   4.081   2.832   3.041 -0.2936 -0.7865  0.1482
11712TIP3    H156551   4.134   2.824   2.962  0.0943  0.3552  0.2743
11712TIP3    H256552   4.127   2.780   3.107  0.9525  0.5443  0.3774
11713TIP3   OH256553   4.666   4.664  12.628 -0.0184 -0.6144 -0.5161
11713TIP3    H156554   4.760   4.650  12.640 -0.2335 -2.1344 -0.4373
11713TIP3    H256555   4.634   4.584  12.586 -1.5016 -0.7425  0.7283
11714TIP3   OH256556   2.236   0.216  11.504  0.4105 -0.6706  0.3422
11714TIP3    H156557   2.280   0.212  11.419 -0.6693  1.3190 -0.3856
11714TIP3    H256558   2.150   0.254  11.484 -0.5469 -1.8133  2.0940
11715TIP3   OH256559   0.973   6.381  11.973  0.1865  0.5193 -0.9154
11715TIP3    H156560   0.922   6.338  11.904  0.0247 -0.9708  0.0923
11715TIP3    H256561   1.063   6.354  11.957  0.1491  0.1777 -0.5433
11716TIP3   OH256562   3.137   3.585  12.955  0.0602 -0.1805 -0.5130
11716TIP3    H156563   3.165   3.539  13.034  2.6562  0.4073 -0.9714
11716TIP3    H256564   3.170   3.531  12.883 -1.9125 -0.4996 -1.2244
11717TIP3   OH256565   5.945   1.107  15.979 -0.3056  0.6610  0.6912
11717TIP3    H156566   6.021   1.164  15.984 -0.1546  0.6119 -0.5858
11717TIP3    H256567   5.964   1.034  16.038  0.0933  1.2586  1.2990
11718TIP3   OH256568   4.268   0.013   0.502 -0.0084 -0.0940 -0.4299
11718TIP3    H156569   4.355   0.051   0.508  0.5537 -0.9298 -2.3827
11718TIP3    H256570   4.210   0.088   0.489  0.4464  0.4436  0.5543
11719TIP3   OH256571   6.160   4.590   5.641 -0.3519  0.1858  0.2570
11719TIP3    H156572   6.187   4.642   5.566 -0.9407 -0.1283 -0.1857
11719TIP3    H256573   6.065   4.584   5.634 -0.3717 -0.2657  0.7481
11720TIP3   OH256574   1.633   3.392  16.772  0.1009  0.0183 -0.0030
11720TIP3    H156575   1.599   3.367  16.686  0.6593 -0.9320  0.0387
11720TIP3    H256576   1.666   3.481  16.760 -0.5480  0.1914 -0.5596
11721TIP3   OH256577   6.233   6.511  13.406 -0.3136  1.1355  0.0938
11721TIP3    H156578   6.250   6.417  13.395 -3.8596  0.5065 -1.2126
11721TIP3    H256579   6.273   6.532  13.490  0.5635 -1.5473  0.4545
11722TIP3   OH256580   2.008   0.373   4.594  0.4661  0.4949  0.1074
11722TIP3    H156581   1.926   0.421   4.609  0.1528 -0.0871  0.2964
11722TIP3    H256582   2.075   0.428   4.635  0.0201  0.4493  0.9340
11723TIP3   OH256583   4.761   4.551   3.249 -0.3926  0.6374 -0.2386
11723TIP3    H156584   4.716   4.615   3.194 -2.2532 -0.3465  0.0513
11723TIP3    H256585   4.760   4.589   3.337  0.2953  1.0767 -0.4155
11724TIP3   OH256586   3.161   2.661   0.433  0.2289  0.2897  0.2597
11724TIP3    H156587   3.215   2.732   0.398 -0.2172  0.2524 -0.5160
11724TIP3    H256588   3.090   2.705   0.479 -1.0664  0.3914 -1.7621
11725TIP3   OH256589   3.887   3.618  13.393  0.7963 -0.0877  0.0419
11725TIP3    H156590   3.833   3.558  13.445 -0.4458  1.2915  0.4102
11725TIP3    H256591   3.962   3.637  13.448 -0.1977  0.8669  1.1204
11726TIP3   OH256592   1.152   0.041  15.270  0.2183 -0.3882  1.1679
11726TIP3    H156593   1.199   0.117  15.304  0.5216  0.1510 -0.4143
11726TIP3    H256594   1.206  -0.034  15.296  2.0601  0.2196 -0.6691
11727TIP3   OH256595   5.542   6.808   3.290 -0.5927  0.3826  0.0589
11727TIP3    H156596   5.468   6.766   3.333 -0.0260 -1.2903 -0.5189
11727TIP3    H256597   5.560   6.753   3.214  0.3122  1.5961 -0.6249
11728TIP3   OH256598   5.594   2.532   1.672 -0.4577  0.5624 -0.0632
11728TIP3    H156599   5.622   2.493   1.755 -1.1608 -0.1858 -0.1701
11728TIP3    H256600   5.503   2.505   1.662 -1.5852  3.6298  0.6870
11729TIP3   OH256601   4.860   1.490  14.981 -0.0686 -0.1394 -0.2360
11729TIP3    H156602   4.941   1.522  15.020 -0.4120  0.4372  0.0229
11729TIP3    H256603   4.877   1.486  14.888 -0.4889  2.3534 -0.4999
11730TIP3   OH256604   6.475   6.725   0.091 -0.1074 -0.2628 -0.4247
11730TIP3    H156605   6.443   6.783   0.160  0.7360 -1.1878  0.7836
11730TIP3    H256606   6.524   6.782   0.032 -1.6789  0.7143 -0.8528
11731TIP3   OH256607   0.953   2.321  10.446 -0.3733 -0.5196  0.3042
11731TIP3    H156608   0.938   2.376  10.523 -1.5783  1.4774 -1.2559
11731TIP3    H256609   1.032   2.357  10.405 -0.8780 -0.2813 -0.4657
11732TIP3   OH256610   0.060   1.010   4.076 -0.3198 -0.0511  0.0946
11732TIP3    H156611   0.117   1.060   4.136  0.1173 -1.4763  0.9176
11732TIP3    H256612   0.010   1.077   4.030 -1.2174  1.1390  2.5792
11733TIP3   OH256613   6.288   3.381   1.374 -0.0126  0.3507 -0.0008
11733TIP3    H156614   6.356   3.358   1.436  0.9734  0.5145 -0.9801
11733TIP3    H256615   6.219   3.317   1.388  1.8191 -2.0528 -1.3428
11734TIP3   OH256616   0.968   1.457  16.159 -0.0426  0.9654  0.2987
11734TIP3    H156617   0.886   1.412  16.179  0.9956 -1.7864 -1.0934
11734TIP3    H256618   1.035   1.389  16.168  2.1716  3.1772  1.6523
11735TIP3   OH256619   1.181   4.809   2.986  0.0980  0.2827 -0.4642
11735TIP3    H156620   1.141   4.873   3.045  0.0627 -0.4211  0.3068
11735TIP3    H256621   1.266   4.847   2.963  1.1054 -0.4072  1.8667
11736TIP3   OH256622   3.642   4.159  12.155 -0.0820 -0.2134  0.3018
11736TIP3    H156623   3.674   4.130  12.241  0.7038 -0.6715 -0.1333
11736TIP3    H256624   3.547   4.165  12.166 -0.0138 -0.4917  1.1360
11737TIP3   OH256625   3.965   0.950   3.921  0.4132 -0.1157 -0.2777
11737TIP3    H156626   3.974   0.910   4.007 -0.3082 -0.5500 -0.3903
11737TIP3    H256627   4.050   0.989   3.903  0.1518  1.2987  1.2879
11738TIP3   OH256628   2.629   1.667   3.222 -0.2442  0.1045 -0.0552
11738TIP3    H156629   2.544   1.661   3.265  0.9708 -3.9157  2.4325
11738TIP3    H256630   2.609   1.661   3.128 -2.7106 -0.0328  0.4117
11739TIP3   OH256631   2.636   0.434  15.980  0.1312  0.0483  0.1995
11739TIP3    H156632   2.720   0.408  16.017 -0.1721 -0.3594  0.6145
11739TIP3    H256633   2.650   0.523  15.947  0.9314 -0.2907 -0.4104
11740TIP3   OH256634   5.215   0.666  12.518  0.4963 -0.2895  0.2600
11740TIP3    H156635   5.137   0.697  12.472  0.6506  0.1806  0.3114
11740TIP3    H256636   5.274   0.639  12.448 -0.1185 -1.6662  0.2459
11741TIP3   OH256637   5.724   1.292   4.880  0.1309 -0.7223  0.2787
11741TIP3    H156638   5.764   1.222   4.932 -1.1564 -1.3146  0.5148
11741TIP3    H256639   5.718   1.366   4.940 -0.3075 -1.0399  0.6266
11742TIP3   OH256640   6.491   0.991   2.468 -0.5534  0.2535  0.2795
11742TIP3    H156641   6.457   0.905   2.491 -0.3361  0.5344  1.7200
11742TIP3    H256642   6.510   0.985   2.374 -1.8385 -0.8159  0.0664
11743TIP3   OH256643   0.398   2.309   5.894 -0.6392 -0.4357 -0.4549
11743TIP3    H156644   0.429   2.229   5.936 -1.6807 -0.6148  0.0253
11743TIP3    H256645   0.475   2.364   5.887  0.1917 -1.6526 -1.2139
11744TIP3   OH256646   2.395   2.048   0.700 -0.3191 -0.0842 -0.2556
11744TIP3    H156647   2.395   1.953   0.709  0.3021 -0.0716 -0.0737
11744TIP3    H256648   2.477   2.068   0.654 -0.4533  0.3588 -0.3061
11745TIP3   OH256649   5.022   2.525   1.311  0.3201 -0.2723  0.2132
11745TIP3    H156650   4.928   2.523   1.290  0.4161  1.4128 -0.5152
11745TIP3    H256651   5.056   2.598   1.261  2.2840 -1.5598 -0.4536
11746TIP3   OH256652   5.144   4.074  16.717  0.3515  0.8290  0.3470
11746TIP3    H156653   5.210   4.033  16.773  0.3486  1.2777  0.6862
11746TIP3    H256654   5.185   4.156  16.688  0.2787  0.6896 -0.1571
11747TIP3   OH256655   6.654   1.478   5.586 -0.0721  0.3243  0.0893
11747TIP3    H156656   6.610   1.536   5.649 -1.6201 -2.9603  2.2979
11747TIP3    H256657   6.610   1.496   5.503  0.4187  3.1379  0.3178
11748TIP3   OH256658   0.875   4.059   2.298  0.6327  0.2897  0.1228
11748TIP3    H156659   0.787   4.058   2.261  0.8353 -2.4718 -0.5415
11748TIP3    H256660   0.917   4.134   2.257 -1.2354  1.3505  0.0481
11749TIP3   OH256661   5.563   2.521  15.010 -0.8470 -0.0527  0.4075
11749TIP3    H156662   5.637   2.504  14.952 -0.0510 -1.2611  1.7141
11749TIP3    H256663   5.602   2.536  15.096 -1.9747  2.0175  0.6311
11750TIP3   OH256664   4.194   1.937  15.934  0.0614 -0.1887 -0.4719
11750TIP3    H156665   4.255   1.962  16.003  0.0281  2.0762 -1.1695
11750TIP3    H256666   4.137   2.014  15.924 -1.2963 -1.2852 -1.5528
11751TIP3   OH256667   3.662   2.691  13.687  0.0472  0.2455  0.0692
11751TIP3    H156668   3.687   2.779  13.717 -0.5962  0.8141 -0.9960
11751TIP3    H256669   3.584   2.670  13.738 -0.0859  0.5063 -0.0217
11752TIP3   OH256670   5.633   3.701  15.769 -0.1008  0.3728  0.3521
11752TIP3    H156671   5.551   3.747  15.752  0.8646  1.2764 -2.4497
11752TIP3    H256672   5.620   3.614  15.732  0.2463  0.6011 -0.3322
11753TIP3   OH256673   0.173   2.341  15.833  0.0394 -0.0206 -0.1523
11753TIP3    H156674   0.127   2.364  15.914  2.5635  0.0830  1.3461
11753TIP3    H256675   0.207   2.424  15.800 -1.8553  0.1091 -2.0099
11754TIP3   OH256676   4.779   1.165   5.009  0.4954 -0.2193  0.6172
11754TIP3    H156677   4.779   1.084   4.959  0.2653  0.9025 -1.3193
11754TIP3    H256678   4.850   1.155   5.072  2.0145 -1.0386 -1.1388
11755TIP3   OH256679   1.751   4.645  16.288 -0.0478  0.4377  0.1673
11755TIP3    H156680   1.807   4.582  16.243 -0.2139  1.3343 -1.3545
11755TIP3    H256681   1.782   4.644  16.379  2.8841  1.3441 -0.7156
11756TIP3   OH256682   1.198   6.072  10.685 -0.1923  0.2635  0.1208
11756TIP3    H156683   1.159   5.985  10.672  1.3704 -0.5589  0.6974
11756TIP3    H256684   1.192   6.113  10.599  0.1436 -0.8971 -0.4846
11757TIP3   OH256685   6.795   6.400  16.206  0.0562  0.5069 -0.4745
11757TIP3    H156686   6.778   6.411  16.113  1.3838  0.7565 -0.7194
11757TIP3    H256687   6.782   6.307  16.222 -0.2828  0.4818 -0.8884
11758TIP3   OH256688   6.548   3.549  14.114 -0.4295 -0.0594  0.4245
11758TIP3    H156689   6.644   3.546  14.115 -0.4053  0.4367  0.0186
11758TIP3    H256690   6.523   3.564  14.205 -0.1656 -1.2889  0.7160
11759TIP3   OH256691   4.928   4.100   1.175  0.0684 -0.6379  0.0784
11759TIP3    H156692   4.868   4.155   1.225  1.5799  0.8113  0.3889
11759TIP3    H256693   4.872   4.056   1.111 -1.4472 -0.0943  0.9749
11760TIP3   OH256694   2.067   6.537  16.413  0.5976  0.5720  0.0187
11760TIP3    H156695   2.065   6.529  16.508  3.6055  1.5142  0.2763
11760TIP3    H256696   2.157   6.560  16.393  0.3120 -0.5822 -3.1857
11761TIP3   OH256697   5.334   2.651  16.029  0.0327  0.1980  0.0776
11761TIP3    H156698   5.296   2.579  15.978 -0.0033  0.7212 -0.6508
11761TIP3    H256699   5.260   2.708  16.048  0.4652  1.4467 -1.7212
11762TIP3   OH256700   1.006   1.619  15.601  0.6106 -0.3086 -0.1343
11762TIP3    H156701   0.996   1.709  15.632 -0.7232 -0.4983  0.0546
11762TIP3    H256702   1.036   1.629  15.511 -1.3482  0.4225 -0.7789
11763TIP3   OH256703   6.560   6.447   3.265 -0.8389  0.0386  0.4088
11763TIP3    H156704   6.571   6.494   3.347 -1.5892  2.1430 -0.6036
11763TIP3    H256705   6.623   6.489   3.205 -2.1074  0.3551 -0.7502
11764TIP3   OH256706   0.755   1.494   1.553  0.2946  0.4000  0.3862
11764TIP3    H156707   0.682   1.468   1.496  0.8597  0.3555 -0.3430
11764TIP3    H256708   0.759   1.589   1.544 -0.4484  0.5343  1.4015
11765TIP3   OH256709   3.094   3.431  10.673  0.2229  0.4492  0.5691
11765TIP3    H156710   3.133   3.344  10.667 -1.2896 -0.3169  1.3549
11765TIP3    H256711   3.007   3.422  10.634  0.2002  1.7294  0.2664
11766TIP3   OH256712   3.608   5.019   3.996 -0.1118 -0.6169 -0.0991
11766TIP3    H156713   3.586   5.083   4.063  1.4545  1.3612 -1.3410
11766TIP3    H256714   3.524   4.994   3.958 -0.8462 -0.1560  1.1769
11767TIP3   OH256715   5.235   0.184   4.876 -0.1126  1.3600  0.3522
11767TIP3    H156716   5.187   0.266   4.865  0.6551  2.0710  2.0053
11767TIP3    H256717   5.308   0.207   4.934 -0.7307 -0.7996  2.1077
11768TIP3   OH256718   3.605   4.484   5.095 -0.4567 -0.1929  0.6948
11768TIP3    H156719   3.583   4.454   5.184 -0.0338  0.2667  0.9594
11768TIP3    H256720   3.538   4.444   5.039  1.4330 -3.6982  0.6349
11769TIP3   OH256721   5.459   0.982  14.906 -0.0084 -0.1667  1.1655
11769TIP3    H156722   5.460   1.071  14.942 -1.8282 -0.2748  1.6136
11769TIP3    H256723   5.502   0.990  14.821 -0.3522  1.2135  1.0922
11770TIP3   OH256724   0.814   4.266  16.044 -0.5589  0.0166  0.5004
11770TIP3    H156725   0.868   4.340  16.015  0.1099 -0.3839  0.7191
11770TIP3    H256726   0.738   4.268  15.984  0.3264 -0.2034 -0.6698
11771TIP3   OH256727   2.573   4.241  16.529  0.0975 -0.5582  0.2472
11771TIP3    H156728   2.536   4.323  16.561  0.1588 -0.4460  0.0336
11771TIP3    H256729   2.638   4.268  16.464 -0.1924 -0.7861 -0.1402
11772TIP3   OH256730   1.646   4.508  11.087 -0.1361 -0.1961  0.0544
11772TIP3    H156731   1.646   4.462  11.004  0.0924 -1.2077  0.5994
11772TIP3    H256732   1.716   4.573  11.078 -1.3134  0.9544 -1.1816
11773TIP3   OH256733   1.146   6.689   0.405  0.7309  0.3665 -0.2063
11773TIP3    H156734   1.201   6.742   0.347  0.2607 -0.3109 -1.2993
11773TIP3    H256735   1.060   6.688   0.363  0.1099  0.6381  1.0047
11774TIP3   OH256736   2.934   2.352  16.132  0.0977  0.2127 -0.4497
11774TIP3    H156737   2.849   2.378  16.098 -1.1585 -1.2801  1.3765
11774TIP3    H256738   2.966   2.286  16.070 -1.4265 -1.3092  0.3099
11775TIP3   OH256739   4.349   4.884   1.362  0.0316  0.4110 -0.9612
11775TIP3    H156740   4.333   4.854   1.272 -0.6800 -0.3735 -0.5830
11775TIP3    H256741   4.403   4.963   1.351  0.5187 -0.0486 -2.0480
11776TIP3   OH256742   2.429   5.376  14.972 -0.6853 -0.2155 -0.2243
11776TIP3    H156743   2.492   5.411  14.908  2.0809  0.6412  2.6688
11776TIP3    H256744   2.415   5.285  14.945 -0.4256  0.3755 -2.5489
11777TIP3   OH256745   2.946   2.341  10.763 -0.5969 -0.0942  0.1330
11777TIP3    H156746   3.039   2.319  10.764 -0.7931 -0.9599 -0.1952
11777TIP3    H256747   2.944   2.437  10.757  0.2681  0.0011  1.0570
11778TIP3   OH256748   1.309   6.554   4.802  0.0689  0.0492  0.1680
11778TIP3    H156749   1.336   6.463   4.808 -1.1580 -0.3273  0.2655
11778TIP3    H256750   1.388   6.601   4.776  0.7604 -1.0090  0.3066
11779TIP3   OH256751   4.465   4.632   0.360 -0.6081  0.5378  0.0994
11779TIP3    H156752   4.509   4.711   0.329  0.2206  0.4359  0.9883
11779TIP3    H256753   4.376   4.640   0.325  0.0972  0.7033 -1.7913
11780TIP3   OH256754   4.423   6.335   1.265  0.0251  0.4166 -0.2220
11780TIP3    H156755   4.434   6.376   1.350  1.2144  0.4203 -0.3615
11780TIP3    H256756   4.348   6.380   1.226 -0.9311 -0.0066  1.0517
11781TIP3   OH256757   3.570   4.481   3.469 -0.3465 -0.4234  0.0404
11781TIP3    H156758   3.506   4.431   3.519  0.5683 -0.8010  0.8713
11781TIP3    H256759   3.549   4.573   3.487 -0.0955 -0.5545  1.0597
11782TIP3   OH256760   3.263   6.096  14.860  0.1197  0.0113  0.0954
11782TIP3    H156761   3.226   6.025  14.912  0.0667 -0.0659 -0.0478
11782TIP3    H256762   3.350   6.111  14.898  0.9514 -1.4582 -1.1008
11783TIP3   OH256763   0.188   3.020   2.164 -0.3376 -0.2800 -0.4557
11783TIP3    H156764   0.226   2.960   2.100 -1.5706 -0.3981 -1.0927
11783TIP3    H256765   0.158   3.094   2.112 -1.4956 -0.4503 -0.0519
11784TIP3   OH256766   4.301   2.646  11.206  0.3506 -0.1216  0.7954
11784TIP3    H156767   4.363   2.655  11.133 -0.5564  0.6479  0.0871
11784TIP3    H256768   4.218   2.675  11.169 -0.2467 -0.2909  1.9864
11785TIP3   OH256769   5.468   2.071   3.745 -0.3253 -0.1956 -0.4121
11785TIP3    H156770   5.484   2.045   3.654 -0.8596 -2.2491  0.0311
11785TIP3    H256771   5.549   2.050   3.791 -0.4530 -0.2315 -0.2034
11786TIP3   OH256772   1.031   5.203  16.701 -0.7078 -0.0623 -0.6990
11786TIP3    H156773   0.989   5.239  16.623 -1.7743 -1.0654 -0.6257
11786TIP3    H256774   1.000   5.112  16.705  0.4079 -0.4335  0.1422
11787TIP3   OH256775   4.557   0.571  14.413  0.6717 -0.1554 -0.3786
11787TIP3    H156776   4.560   0.479  14.388 -0.2822  0.0813 -1.4187
11787TIP3    H256777   4.577   0.618  14.333 -2.4991  0.6270 -0.8492
11788TIP3   OH256778   4.877   4.536   2.047 -0.1714 -0.0943 -0.4080
11788TIP3    H156779   4.853   4.461   2.102 -1.1554 -1.6170 -2.7649
11788TIP3    H256780   4.893   4.607   2.109 -0.6833 -1.8321  1.8479
11789TIP3   OH256781   1.284   0.693   5.551 -0.1144  0.1958 -0.0449
11789TIP3    H156782   1.362   0.746   5.531 -1.0878  1.4777 -0.5556
11789TIP3    H256783   1.214   0.733   5.501 -0.7597 -2.1011 -1.1149
11790TIP3   OH256784   2.043   1.233  13.524  0.0318  0.6218 -0.5486
11790TIP3    H156785   2.086   1.258  13.606  0.4955  1.6823 -1.0983
11790TIP3    H256786   1.950   1.222  13.548  0.5235 -1.5775  0.6243
11791TIP3   OH256787   5.179   4.193  13.304 -0.2646 -0.3057  0.0651
11791TIP3    H156788   5.242   4.243  13.357 -0.8830  1.0518 -0.4319
11791TIP3    H256789   5.150   4.123  13.362 -0.7536  1.0030  1.4818
11792TIP3   OH256790   5.386   2.194   0.104 -0.5576  0.0621 -0.0891
11792TIP3    H156791   5.370   2.168   0.013 -0.0356  1.1681 -0.5069
11792TIP3    H256792   5.476   2.166   0.121  0.5566  2.7758 -1.0273
11793TIP3   OH256793   5.033   2.476  16.428  0.3382  0.0958 -0.1936
11793TIP3    H156794   4.956   2.531  16.413 -0.7881 -1.4385 -0.2630
11793TIP3    H256795   5.032   2.458  16.522 -1.4110 -2.6937 -0.6589
11794TIP3   OH256796   0.706   5.600   3.388  0.0891 -0.0743 -0.4941
11794TIP3    H156797   0.682   5.513   3.356  2.4864 -1.8317  1.9884
11794TIP3    H256798   0.765   5.635   3.321 -0.6010 -0.4825 -1.3378
11795TIP3   OH256799   5.173   3.526  12.514 -0.1165  0.3030  0.4014
11795TIP3    H156800   5.215   3.441  12.498 -1.7775 -0.7890  1.5132
11795TIP3    H256801   5.117   3.539  12.438 -0.1139  0.2292  0.3855
11796TIP3   OH256802   2.462   4.160  10.642  0.7050  0.2476  0.0121
11796TIP3    H156803   2.432   4.109  10.567 -0.0538  0.0603  0.4349
11796TIP3    H256804   2.459   4.100  10.715  1.2740  0.4820  0.2363
11797TIP3   OH256805   3.606   5.953   3.684  0.4796 -0.0080 -0.1212
11797TIP3    H156806   3.625   5.880   3.742 -0.2972  0.0202  0.1839
11797TIP3    H256807   3.689   5.973   3.642  0.7739 -0.8576  0.0315
11798TIP3   OH256808   3.414   1.342  15.279  0.3609  0.4266  0.0847
11798TIP3    H156809   3.459   1.298  15.351 -1.0595 -1.1133  0.0957
11798TIP3    H256810   3.479   1.346  15.209  0.5708 -1.7802  0.0823
11799TIP3   OH256811   1.409   2.312   4.606 -0.4368 -0.4016 -0.3410
11799TIP3    H156812   1.427   2.330   4.698  0.2059  2.6485 -0.9647
11799TIP3    H256813   1.443   2.223   4.592 -1.1017 -1.2037  2.4327
11800TIP3   OH256814   4.192   2.526  11.431 -0.2367  0.4826 -0.0571
11800TIP3    H156815   4.232   2.581  11.363 -1.0737  0.9485 -0.1896
11800TIP3    H256816   4.182   2.585  11.506 -1.0282  0.4810 -0.1563
11801TIP3   OH256817   6.212   2.444  10.794  0.1972 -0.4934 -0.1567
11801TIP3    H156818   6.253   2.529  10.781  0.3280 -0.5029  0.1861
11801TIP3    H256819   6.282   2.381  10.778  0.6628 -0.4799  1.6430
11802TIP3   OH256820   4.283   5.337   2.353  0.4597 -0.0196  0.2235
11802TIP3    H156821   4.237   5.411   2.393 -0.0207  0.2735 -0.8340
11802TIP3    H256822   4.376   5.361   2.358  0.3052  0.6594 -0.1239
11803TIP3   OH256823   4.218   5.121   4.549 -0.5666  0.0446 -0.2057
11803TIP3    H156824   4.207   5.185   4.619 -0.9839 -0.2673  0.0162
11803TIP3    H256825   4.173   5.159   4.474 -0.0582  0.4123 -0.3321
11804TIP3   OH256826   2.625   1.799   0.056 -0.0510  0.1532  0.2691
11804TIP3    H156827   2.542   1.828   0.094 -0.1946  1.2488 -0.8223
11804TIP3    H256828   2.691   1.825   0.120 -0.2643  2.1121 -0.2380
11805TIP3   OH256829   4.801   2.632  14.814  0.6025  0.0478  0.1855
11805TIP3    H156830   4.882   2.661  14.773  1.0765  0.4181  1.3358
11805TIP3    H256831   4.803   2.537  14.807  0.0004  0.1458 -1.8489
11806TIP3   OH256832   1.087   5.785   2.667 -0.4119 -0.5893 -0.2534
11806TIP3    H156833   0.997   5.752   2.674 -0.0104 -1.7752 -0.3638
11806TIP3    H256834   1.125   5.771   2.753 -0.7018  1.1231  0.1798
11807TIP3   OH256835   6.743   3.286  16.749  0.1917 -0.2363  0.0441
11807TIP3    H156836   6.806   3.274  16.820 -0.5186  0.0546  0.7419
11807TIP3    H256837   6.721   3.380  16.752 -0.6874 -0.4368  0.1757
11808TIP3   OH256838   5.865   2.508  16.187 -0.0963  0.4476  0.4892
11808TIP3    H156839   5.852   2.526  16.094  0.1405 -1.0490  0.1302
11808TIP3    H256840   5.776   2.502  16.223 -0.1894  2.3159  0.6727
11809TIP3   OH256841   3.127   2.859   2.927 -0.2540 -0.4396  0.7205
11809TIP3    H156842   3.055   2.855   2.863  0.6662  1.1132 -0.5015
11809TIP3    H256843   3.114   2.943   2.971  2.0668  1.0782 -1.2144
11810TIP3   OH256844   4.295   1.681  14.274 -0.0919 -0.1094 -0.3507
11810TIP3    H156845   4.326   1.771  14.276  2.0429 -0.7194  3.2617
11810TIP3    H256846   4.305   1.654  14.182  0.2494  2.9247 -1.3099
11811TIP3   OH256847   3.018   3.966  15.910  0.0035  0.5055  0.2018
11811TIP3    H156848   2.924   3.985  15.908  0.1526  1.9243  2.8096
11811TIP3    H256849   3.047   3.979  15.819 -2.1119  1.0987 -0.4427
11812TIP3   OH256850   1.832   6.293   5.823  0.0407 -0.1935  0.3389
11812TIP3    H156851   1.897   6.363   5.826 -0.4118  0.5265 -2.9051
11812TIP3    H256852   1.885   6.213   5.822  0.9529  0.3634 -1.7826
11813TIP3   OH256853   1.936   0.695  14.349  0.2443 -0.1738 -0.0637
11813TIP3    H156854   1.883   0.775  14.353  0.6515  0.0332  2.5558
11813TIP3    H256855   2.026   0.726  14.356  0.4559 -0.8073  0.0804
11814TIP3   OH256856   2.660   5.393  16.005  0.0425  0.1315  0.3359
11814TIP3    H156857   2.719   5.364  16.075  0.2737  0.7442  0.4022
11814TIP3    H256858   2.681   5.337  15.931 -1.8920 -2.2213  1.4370
11815TIP3   OH256859   4.706   2.249  15.071 -0.1272 -0.1009  0.1967
11815TIP3    H156860   4.731   2.172  15.020  0.4830 -0.6045  1.2275
11815TIP3    H256861   4.643   2.295  15.016 -0.1236 -1.0750 -0.6433
11816TIP3   OH256862   4.837   1.684  14.768 -0.5319 -0.1445 -1.2623
11816TIP3    H156863   4.876   1.607  14.727  0.0228 -0.6412  0.1273
11816TIP3    H256864   4.906   1.750  14.767  0.3614 -0.9605  1.0216
11817TIP3   OH256865   3.038   2.154   4.347 -0.0763  0.1027  0.1060
11817TIP3    H156866   3.083   2.188   4.424 -2.3492  2.0191  0.7020
11817TIP3    H256867   2.995   2.074   4.377 -1.1098  0.9439  0.9223
11818TIP3   OH256868   5.266   4.342  16.130  0.1157  0.2966 -0.0293
11818TIP3    H156869   5.183   4.300  16.107  0.9538 -1.2465 -0.3544
11818TIP3    H256870   5.298   4.291  16.205  1.9256 -0.7373 -1.4202
11819TIP3   OH256871   5.583   4.520  15.494 -0.5639 -0.1205 -0.3907
11819TIP3    H156872   5.584   4.518  15.590 -0.9840 -0.6923 -0.3922
11819TIP3    H256873   5.504   4.570  15.473 -1.0967 -0.9680 -0.4371
11820TIP3   OH256874   1.618   3.429   3.196 -0.6280 -0.7207  1.4102
11820TIP3    H156875   1.617   3.393   3.284 -2.3976 -0.7769  1.4029
11820TIP3    H256876   1.533   3.472   3.186  0.9066  2.5241  1.0056
11821TIP3   OH256877   2.251   1.754   1.932 -0.3836  0.2063  0.0518
11821TIP3    H156878   2.169   1.769   1.884 -1.2483  3.1034  2.1963
11821TIP3    H256879   2.226   1.696   2.004 -0.0649 -0.4674 -0.3623
11822TIP3   OH256880   3.680   4.314  13.283 -0.1737  0.8035 -0.0178
11822TIP3    H156881   3.687   4.232  13.333 -0.2710  0.0162 -1.2383
11822TIP3    H256882   3.770   4.336  13.261 -0.0612  1.6174  1.2053
11823TIP3   OH256883   3.389   5.154  14.398 -0.1017  0.3964 -0.5620
11823TIP3    H156884   3.361   5.108  14.319  1.5974  1.5178 -1.8781
11823TIP3    H256885   3.481   5.130  14.409 -0.6592 -0.9074  1.9866
11824TIP3   OH256886   3.340   3.976   3.804 -0.2036  0.2526  0.5118
11824TIP3    H156887   3.352   3.930   3.887  0.4281  0.4239  0.5277
11824TIP3    H256888   3.316   4.065   3.830 -0.8167  0.0960  0.4923
11825TIP3   OH256889   3.697   5.422  13.331 -0.2664  0.1812  0.7342
11825TIP3    H156890   3.745   5.374  13.263 -0.6197 -3.2684  2.6995
11825TIP3    H256891   3.755   5.494  13.354  2.2454 -1.5276  0.2718
11826TIP3   OH256892   1.391   4.104  11.203 -0.6568 -0.0431 -0.1884
11826TIP3    H156893   1.342   4.167  11.150  1.3615  0.6906 -1.3129
11826TIP3    H256894   1.473   4.150  11.224  0.6788 -2.1002 -0.6386
11827TIP3   OH256895   2.621   6.444   0.328 -0.0297  0.1420 -0.3805
11827TIP3    H156896   2.659   6.433   0.416  0.2640  3.0014 -0.0699
11827TIP3    H256897   2.641   6.362   0.284  1.2337 -0.7791  1.7152
11828TIP3   OH256898   3.842   4.205   2.633 -0.6163 -0.2102 -0.5505
11828TIP3    H156899   3.903   4.279   2.629  1.1724 -1.4631  1.2876
11828TIP3    H256900   3.897   4.128   2.619 -1.8645 -1.3663  0.6081
11829TIP3   OH256901   4.980   3.215   1.999  0.1120  0.2079 -0.1673
11829TIP3    H156902   4.955   3.123   2.011 -0.9433  0.5649  0.4984
11829TIP3    H256903   5.007   3.221   1.907 -0.8943 -0.5286 -0.5295
11830TIP3   OH256904   5.623   3.014  10.845 -0.6918  0.0159 -0.2260
11830TIP3    H156905   5.598   3.015  10.937 -0.6296 -0.9958 -0.1785
11830TIP3    H256906   5.541   3.012  10.797 -0.7231 -0.4369 -0.1575
11831TIP3   OH256907   6.646   2.434  14.025  0.6540 -0.2508  0.5005
11831TIP3    H156908   6.590   2.357  14.030  0.3927 -0.0872  0.1202
11831TIP3    H256909   6.615   2.482  13.948  2.0437 -0.7393 -0.4136
11832TIP3   OH256910   3.857   0.948   6.257  0.6832  0.6581  0.3583
11832TIP3    H156911   3.871   0.970   6.165 -0.3063 -0.9346 -0.2082
11832TIP3    H256912   3.923   1.000   6.304  1.9101  0.7079 -1.3271
11833TIP3   OH256913   0.484   5.768  13.944 -0.2125 -0.2472  0.5855
11833TIP3    H156914   0.460   5.724  14.025  0.0607 -3.3976 -0.9082
11833TIP3    H256915   0.401   5.795  13.905 -0.3297  1.5684  1.9525
11834TIP3   OH256916   6.071   6.750  15.656 -0.1898  0.0557 -0.7407
11834TIP3    H156917   6.023   6.671  15.680 -0.4627  0.4729  0.1370
11834TIP3    H256918   6.162   6.721  15.646 -0.1367 -0.2319  0.4160
11835TIP3   OH256919   0.242   5.411  10.411  0.1131 -0.1865 -0.2409
11835TIP3    H156920   0.331   5.377  10.402 -0.0599 -1.5446  2.2305
11835TIP3    H256921   0.187   5.334  10.424 -1.4306  0.6401 -1.5416
11836TIP3   OH256922   2.731   5.863  15.668 -0.0978 -0.4603 -0.0775
11836TIP3    H156923   2.719   5.942  15.722  0.6414 -0.4708  0.1110
11836TIP3    H256924   2.812   5.824  15.701 -0.2343 -1.0719 -0.4594
11837TIP3   OH256925   3.252   0.237  12.213 -0.3050  0.0751  0.7849
11837TIP3    H156926   3.321   0.300  12.194 -1.1310  1.7136  2.8295
11837TIP3    H256927   3.184   0.254  12.148  0.7765 -0.9411 -0.6719
11838TIP3   OH256928   1.984   6.272  12.451  0.1495 -0.4112  0.4730
11838TIP3    H156929   1.994   6.366  12.467 -0.5029 -0.2440 -0.0727
11838TIP3    H256930   2.061   6.247  12.400  0.2013 -0.1242  0.4118
11839TIP3   OH256931   6.449   5.455   4.721 -0.1293 -0.4676 -0.0987
11839TIP3    H156932   6.359   5.424   4.732 -0.6860  1.0142 -0.1913
11839TIP3    H256933   6.502   5.389   4.765 -1.1829 -1.7700 -0.6896
11840TIP3   OH256934   4.139   6.768  11.135 -0.4238 -0.1004  0.0214
11840TIP3    H156935   4.211   6.830  11.124  0.7032 -1.6277 -1.7766
11840TIP3    H256936   4.102   6.759  11.048  0.8491 -3.5045 -0.3010
11841TIP3   OH256937   5.701   6.277   0.029  0.1524 -0.3343  0.1320
11841TIP3    H156938   5.635   6.300  -0.037 -2.3100 -2.5626  1.6545
11841TIP3    H256939   5.752   6.357   0.039 -1.2945  1.0291 -2.2611
11842TIP3   OH256940   2.824   2.527   3.608  0.6010  0.0421  0.4955
11842TIP3    H156941   2.749   2.469   3.592  0.9875 -0.0238 -1.3190
11842TIP3    H256942   2.788   2.615   3.600  0.8703  0.0203 -1.5594
11843TIP3   OH256943   5.200   5.259  11.310 -0.2191  0.4667 -0.0327
11843TIP3    H156944   5.266   5.242  11.378 -0.5047  1.0368  0.4045
11843TIP3    H256945   5.245   5.314  11.247 -0.6809  2.2018  1.0629
11844TIP3   OH256946   5.080   5.326  15.022 -0.2398  0.8072  0.0515
11844TIP3    H156947   5.105   5.415  15.047 -0.9917  0.8927  0.5088
11844TIP3    H256948   5.029   5.337  14.942  0.7132  0.6719 -0.5974
11845TIP3   OH256949   2.688   3.045  12.431  0.0513 -0.3456  0.0484
11845TIP3    H156950   2.784   3.044  12.430  0.1154  1.3194  0.9394
11845TIP3    H256951   2.666   3.019  12.520 -0.3580 -1.0556 -0.2523
11846TIP3   OH256952   0.429   5.535  11.567 -0.0377  0.2962 -0.6737
11846TIP3    H156953   0.510   5.566  11.527  0.7043 -0.0499  0.5046
11846TIP3    H256954   0.361   5.561  11.505  0.8948  1.1920 -1.3748
11847TIP3   OH256955   5.669   3.335  16.646 -0.3227 -0.0124 -0.7182
11847TIP3    H156956   5.677   3.402  16.714 -0.9629  0.0652 -0.7080
11847TIP3    H256957   5.612   3.375  16.581 -0.2101 -0.3204 -1.0046
11848TIP3   OH256958   1.077   0.550  11.089  0.0329 -0.0836  0.4175
11848TIP3    H156959   1.154   0.539  11.034 -0.1433 -1.2896  0.3801
11848TIP3    H256960   1.006   0.509  11.040 -0.8114  1.6070  0.1352
11849TIP3   OH256961   6.260   0.198  16.883  0.3512  0.5028 -0.8201
11849TIP3    H156962   6.318   0.199  16.959 -0.0833  1.0308 -0.4935
11849TIP3    H256963   6.317   0.170  16.811  1.1048  1.3676 -0.5787
11850TIP3   OH256964   2.269   0.909  13.213 -0.3263 -0.2467 -0.3041
11850TIP3    H156965   2.210   0.870  13.149 -0.0359 -0.2200 -0.5881
11850TIP3    H256966   2.326   0.837  13.241  0.8437  0.1534 -1.5368
11851TIP3   OH256967   5.428   6.426  11.359 -0.0351  0.3103  0.1268
11851TIP3    H156968   5.416   6.501  11.418  0.5093  0.1045  0.5108
11851TIP3    H256969   5.480   6.461  11.286 -0.0778  0.3921  0.1351
11852TIP3   OH256970   5.710   3.383   5.263  0.0662  0.6947 -0.0136
11852TIP3    H156971   5.659   3.409   5.187 -0.1845 -1.2001 -0.5466
11852TIP3    H256972   5.676   3.297   5.287  0.2516  1.1605  2.1689
11853TIP3   OH256973   6.341   4.028  11.849  0.0904  0.0844 -0.0993
11853TIP3    H156974   6.379   4.102  11.802  0.8367 -0.3161 -0.1458
11853TIP3    H256975   6.260   4.008  11.802 -0.7402  1.6244  0.6268
11854TIP3   OH256976   0.389   2.389   2.812 -0.0967  0.4207  0.2452
11854TIP3    H156977   0.412   2.325   2.879  1.4965 -0.0990 -0.7481
11854TIP3    H256978   0.348   2.337   2.743  1.1513  0.4302 -0.5417
11855TIP3   OH256979   3.474   6.601  14.900  0.0801 -0.0436  0.2451
11855TIP3    H156980   3.476   6.636  14.990 -0.3413 -1.5732  0.8773
11855TIP3    H256981   3.515   6.515  14.907  1.6140  0.5113 -1.3949
11856TIP3   OH256982   1.129   1.086  15.020  0.0435  0.7285  0.0574
11856TIP3    H156983   1.145   1.143  14.945  0.2019 -1.1625 -1.4114
11856TIP3    H256984   1.202   1.024  15.019 -0.3892  0.1782  1.2901
11857TIP3   OH256985   4.803   6.213   5.020 -0.4475  0.0005 -0.2249
11857TIP3    H156986   4.854   6.286   4.982  0.2358  0.4246  1.4225
11857TIP3    H256987   4.778   6.160   4.945 -0.8123  1.8363 -1.4713
11858TIP3   OH256988   6.691   4.764  10.462  0.7623  0.1938  0.0943
11858TIP3    H156989   6.777   4.722  10.457  0.2377 -1.1759  1.5148
11858TIP3    H256990   6.703   4.836  10.523  0.4399 -1.4544  2.2277
11859TIP3   OH256991   0.455   2.106  10.306  1.1724 -0.0666  0.0227
11859TIP3    H156992   0.489   2.195  10.301 -0.7827  0.6801 -1.3171
11859TIP3    H256993   0.485   2.064  10.225  1.8248 -0.5383  0.5006
11860TIP3   OH256994   4.657   4.439  14.679  0.2637  0.1760 -0.1908
11860TIP3    H156995   4.590   4.397  14.733  1.3358 -0.7602  0.4432
11860TIP3    H256996   4.657   4.531  14.708 -1.0215  0.3015 -0.5035
11861TIP3   OH256997   1.673   5.403  16.115  0.1287 -0.4494 -0.0815
11861TIP3    H156998   1.748   5.405  16.056  0.7746 -1.4977  0.6696
11861TIP3    H256999   1.641   5.313  16.110 -1.7098  0.2097 -1.1197
11862TIP3   OH257000   0.317   0.029   2.284  0.4217 -0.2173  0.3983
11862TIP3    H157001   0.238   0.082   2.286  0.4079 -0.2580  1.4996
11862TIP3    H257002   0.294  -0.051   2.331  0.6168 -0.9602 -0.7370
11863TIP3   OH257003   0.371   1.219  13.001 -0.3108  0.8261 -0.1229
11863TIP3    H157004   0.342   1.129  13.016  1.2436  0.3116 -0.0019
11863TIP3    H257005   0.436   1.211  12.930  0.2187  1.7725  0.2411
11864TIP3   OH257006   1.806   3.076   1.724  0.0495 -0.2571  0.1376
11864TIP3    H157007   1.836   3.160   1.690  0.5125 -0.5895 -0.2781
11864TIP3    H257008   1.769   3.031   1.648 -1.6776  0.2072  0.6609
11865TIP3   OH257009   0.988   3.593  12.430 -0.0249 -0.5335  0.4159
11865TIP3    H157010   0.927   3.666  12.419  0.9537  0.3597  0.7052
11865TIP3    H257011   0.968   3.533  12.358  1.7742  1.9289 -2.3645
11866TIP3   OH257012   4.443   4.488   4.396  0.2226  0.0995 -0.6109
11866TIP3    H157013   4.410   4.517   4.310 -0.6791  2.4638  0.4261
11866TIP3    H257014   4.369   4.443   4.436 -0.3522  1.4798 -0.0353
11867TIP3   OH257015   1.489   1.677  15.340 -0.2892 -0.2214  0.1009
11867TIP3    H157016   1.504   1.620  15.416 -1.4131 -1.0159 -0.2312
11867TIP3    H257017   1.434   1.748  15.374 -0.7663 -0.5600  0.0525
11868TIP3   OH257018   1.889   5.684  16.950 -0.1282 -0.0878  0.6571
11868TIP3    H157019   1.964   5.632  16.977  0.5331  0.4343 -0.1290
11868TIP3    H257020   1.847   5.710  17.031  0.6785 -0.1839  1.1095
11869TIP3   OH257021   5.782   4.307  12.522  0.0637 -0.4917  0.3493
11869TIP3    H157022   5.759   4.286  12.613  0.2294 -4.3894 -0.3118
11869TIP3    H257023   5.705   4.281  12.471  1.3579 -2.2189 -0.8590
11870TIP3   OH257024   2.941   0.187  13.783  0.1607 -0.2613 -0.2412
11870TIP3    H157025   3.012   0.216  13.841  0.1320  2.1401 -1.2559
11870TIP3    H257026   2.977   0.111  13.737  0.7014 -1.3217  1.8132
11871TIP3   OH257027   0.316   6.035   3.584  0.2735 -0.2071  0.4444
11871TIP3    H157028   0.224   6.061   3.584  0.5778  0.9557  0.9061
11871TIP3    H257029   0.319   5.955   3.637 -0.4293 -0.0906  0.6649
11872TIP3   OH257030   0.189   0.800  14.452 -0.4950  0.3381 -0.0775
11872TIP3    H157031   0.210   0.849  14.373 -1.6911  0.2745 -0.4503
11872TIP3    H257032   0.183   0.709  14.424 -0.6161  0.2744  0.1506
11873TIP3   OH257033   1.314   2.686   5.775 -0.0617 -0.0442 -0.3222
11873TIP3    H157034   1.324   2.723   5.862  0.6670 -0.1043 -0.3745
11873TIP3    H257035   1.403   2.685   5.738 -0.1325 -1.3122 -0.5357
11874TIP3   OH257036   2.852   4.354   2.233  0.1638  0.2206 -0.0371
11874TIP3    H157037   2.760   4.340   2.210  0.2720 -0.6504  0.0382
11874TIP3    H257038   2.856   4.335   2.327  0.2087  1.3681  0.2140
11875TIP3   OH257039   3.442   3.125   5.285  0.6029 -0.2648 -0.2816
11875TIP3    H157040   3.431   3.218   5.304 -1.7351 -0.6685  0.7395
11875TIP3    H257041   3.446   3.083   5.371  0.7089 -1.1835 -0.7191
11876TIP3   OH257042   6.711   1.942   5.247 -0.1078 -0.5191 -0.3862
11876TIP3    H157043   6.767   1.994   5.304 -0.7567  0.6442 -0.7613
11876TIP3    H257044   6.722   1.852   5.278 -0.1904  0.0232  1.3621
11877TIP3   OH257045   1.401   3.526  15.471  0.0884  0.7570  0.0593
11877TIP3    H157046   1.329   3.530  15.534  1.2299  0.7838  1.3884
11877TIP3    H257047   1.418   3.432  15.459 -0.5684  0.7254 -0.7632
11878TIP3   OH257048   4.179   4.394   0.745 -0.3694  0.0960  0.2218
11878TIP3    H157049   4.240   4.436   0.685 -0.0996  0.1578  0.5351
11878TIP3    H257050   4.093   4.408   0.705 -0.3629  1.5251  0.6418
11879TIP3   OH257051   1.269   3.738  16.633 -0.0871 -0.4292 -0.0113
11879TIP3    H157052   1.308   3.692  16.707  0.5977  1.6405  0.9792
11879TIP3    H257053   1.187   3.774  16.667 -0.0708  0.0312 -0.4445
11880TIP3   OH257054   6.532   0.323   3.264  0.2395 -0.2046  0.8215
11880TIP3    H157055   6.553   0.412   3.235 -1.0019  0.1806  1.0537
11880TIP3    H257056   6.614   0.290   3.301  1.4306 -0.0753 -1.4837
11881TIP3   OH257057   1.702   2.970   2.394 -0.1968  0.3355 -0.1454
11881TIP3    H157058   1.680   2.957   2.487  0.5373  1.1445  0.1540
11881TIP3    H257059   1.694   3.064   2.381 -0.3590  0.2142 -0.9322
11882TIP3   OH257060   0.053   0.913  14.170  0.3468 -0.3275 -0.0165
11882TIP3    H157061   0.114   0.898  14.097  2.1351  0.9374  1.1358
11882TIP3    H257062   0.085   0.994  14.211 -2.1050  0.3552  0.6892
11883TIP3   OH257063   0.169   4.867  10.793  0.2937  0.4998 -0.4475
11883TIP3    H157064   0.116   4.807  10.845  0.3057  0.5311 -0.4000
11883TIP3    H257065   0.258   4.832  10.800  0.1245 -0.1524 -1.3647
11884TIP3   OH257066   2.965   4.895   4.640 -0.4641  0.9803 -0.3655
11884TIP3    H157067   2.989   4.916   4.730 -1.3223  3.1134 -0.5786
11884TIP3    H257068   2.930   4.977   4.605  1.1197  0.5948 -3.0944
11885TIP3   OH257069   3.562   0.199   1.348 -0.0160 -0.3741  0.3098
11885TIP3    H157070   3.554   0.162   1.260  0.6766 -1.4345  0.6647
11885TIP3    H257071   3.545   0.125   1.406 -3.2823  0.8945  1.1573
11886TIP3   OH257072   4.707   3.390   1.642 -0.2845  0.0661 -0.5518
11886TIP3    H157073   4.794   3.421   1.668  0.5548 -1.5108 -1.3127
11886TIP3    H257074   4.691   3.316   1.700 -1.1773  0.4020 -0.3619
11887TIP3   OH257075   6.112   0.521  13.683  0.5686  0.1635  0.4624
11887TIP3    H157076   6.179   0.510  13.615 -0.4625  1.1791 -0.7644
11887TIP3    H257077   6.157   0.568  13.753  1.0543  1.2366 -0.5332
11888TIP3   OH257078   2.299   0.555   3.883 -0.2616 -0.3134  0.2579
11888TIP3    H157079   2.309   0.570   3.977 -0.2104  1.4314  0.0072
11888TIP3    H257080   2.280   0.642   3.847  3.6011 -0.1430 -1.8565
11889TIP3   OH257081   4.037   0.172  14.888  0.6478  0.4603 -0.4355
11889TIP3    H157082   3.956   0.172  14.837 -0.5226 -0.3645  1.3211
11889TIP3    H257083   4.107   0.163  14.823 -0.8077 -1.8808 -1.8208
11890TIP3   OH257084   2.600   0.563  14.927 -0.2738  0.4437 -0.2798
11890TIP3    H157085   2.598   0.477  14.886 -1.9208  1.4812 -2.5822
11890TIP3    H257086   2.656   0.616  14.871  1.0061  0.8437  1.3040
11891TIP3   OH257087   2.863   6.303   4.606  0.2626  0.6053 -0.2938
11891TIP3    H157088   2.883   6.259   4.523 -0.3664 -1.0652  0.3940
11891TIP3    H257089   2.949   6.319   4.645  0.5737  1.5131 -1.2922
11892TIP3   OH257090   1.209   1.420  14.141  0.4653 -0.0963 -0.2984
11892TIP3    H157091   1.299   1.396  14.120  0.5570  0.7000 -0.8723
11892TIP3    H257092   1.217   1.502  14.190  0.1301 -0.8262  1.0149
11893TIP3   OH257093   3.398   1.753   1.279  0.4526  0.2622  0.7970
11893TIP3    H157094   3.456   1.829   1.281 -0.1275  0.8693 -1.9240
11893TIP3    H257095   3.444   1.689   1.226 -0.5801  0.0784  0.0901
11894TIP3   OH257096   0.472   0.841   2.859 -0.1308 -0.0407 -0.8336
11894TIP3    H157097   0.536   0.910   2.875 -0.5196 -0.0032  0.6657
11894TIP3    H257098   0.469   0.791   2.941 -0.5425 -1.2710 -1.5649
11895TIP3   OH257099   0.460   3.321  12.068  0.8692 -0.4711 -0.0673
11895TIP3    H157100   0.391   3.258  12.047 -0.4065  0.6013  0.7588
11895TIP3    H257101   0.537   3.268  12.084 -0.5527 -1.9823  2.2007
11896TIP3   OH257102   3.879   1.100   0.902  0.5811 -0.4632 -1.0533
11896TIP3    H157103   3.873   1.057   0.988  0.1342 -0.3166 -1.0091
11896TIP3    H257104   3.911   1.031   0.844  1.5331 -0.3849 -0.6435
11897TIP3   OH257105   6.280   2.843   0.739 -0.4297  0.1852  0.7016
11897TIP3    H157106   6.236   2.910   0.687 -1.4857 -0.9189  0.1113
11897TIP3    H257107   6.361   2.884   0.768 -0.8814  1.5837  0.0544
11898TIP3   OH257108   0.344   3.598   2.410 -0.2478 -0.2817 -0.0256
11898TIP3    H157109   0.337   3.583   2.316 -0.9596 -0.2661  0.0212
11898TIP3    H257110   0.438   3.610   2.425 -0.2520  1.2314 -0.9778
11899TIP3   OH257111   2.938   4.660   5.532  0.2910 -0.1481 -0.4961
11899TIP3    H157112   2.889   4.695   5.606  0.2566 -1.3600  0.0763
11899TIP3    H257113   3.028   4.691   5.546  0.3823 -0.7532  0.3220
11900TIP3   OH257114   1.677   1.028   0.232 -0.1073 -0.3098 -0.1338
11900TIP3    H157115   1.758   1.053   0.186 -0.8396 -0.8851 -1.8365
11900TIP3    H257116   1.706   0.999   0.318  1.3598  0.7160 -0.2488
11901TIP3   OH257117   4.908   1.139  14.598 -0.2109  0.0935 -0.2117
11901TIP3    H157118   4.952   1.068  14.644  0.9993  0.8430 -0.1642
11901TIP3    H257119   4.979   1.189  14.558 -1.0829  0.8646 -0.8372
11902TIP3   OH257120   1.572   3.955  16.800 -0.4558  0.6286 -0.5498
11902TIP3    H157121   1.652   3.916  16.764 -0.8166 -3.0788  2.1033
11902TIP3    H257122   1.604   4.024  16.859  0.6867  0.1889 -0.6226
11903TIP3   OH257123   1.309   6.667  15.382  0.2415  0.1100 -0.2953
11903TIP3    H157124   1.362   6.608  15.328  0.7117 -0.4457  0.7480
11903TIP3    H257125   1.373   6.722  15.427 -0.1299  0.4133 -0.1363
11904TIP3   OH257126   5.261   1.748   2.620 -0.5766  0.6809 -0.0422
11904TIP3    H157127   5.285   1.787   2.704  0.7140  0.0228 -0.0701
11904TIP3    H257128   5.178   1.704   2.636 -0.7918  1.3188  0.6452
11905TIP3   OH257129   2.963   2.039  16.105 -0.0150  0.3187 -0.3022
11905TIP3    H157130   2.877   2.072  16.131  0.0393  0.5674 -0.4297
11905TIP3    H257131   2.962   2.039  16.010  0.0822  0.2059 -0.3050
11906TIP3   OH257132   3.613   4.897  13.786 -0.0452  0.3145  0.1019
11906TIP3    H157133   3.546   4.944  13.736  0.5455  2.0910  0.9348
11906TIP3    H257134   3.589   4.804  13.775 -1.3635  0.7775 -1.3999
11907TIP3   OH257135   5.060   3.815   2.837  0.1458  0.1461 -0.2806
11907TIP3    H157136   5.066   3.833   2.744 -0.7029  1.2992 -0.1259
11907TIP3    H257137   5.029   3.897   2.876 -0.9897 -0.7644  0.8260
11908TIP3   OH257138   3.123   5.225   3.267  0.3576  0.9534 -0.1411
11908TIP3    H157139   3.096   5.291   3.331  0.4403 -0.0622  0.9631
11908TIP3    H257140   3.052   5.161   3.267  1.6146 -0.5077  1.0319
11909TIP3   OH257141   6.587   2.454  13.080 -0.1016 -0.2453 -0.3923
11909TIP3    H157142   6.640   2.446  13.159  0.1679  0.1430 -0.5267
11909TIP3    H257143   6.586   2.367  13.041 -1.7834 -0.9140  1.0066
11910TIP3   OH257144   2.483   0.373  15.216 -0.2907 -0.0411 -0.1163
11910TIP3    H157145   2.558   0.346  15.164  1.3143  2.6464  0.6339
11910TIP3    H257146   2.463   0.462  15.186 -1.7219  0.1648  1.2738
11911TIP3   OH257147   5.979   3.955  13.364  0.0552 -0.0494  0.4033
11911TIP3    H157148   5.963   3.871  13.405 -0.3595  0.3482  1.0822
11911TIP3    H257149   6.032   4.004  13.428 -1.0024  0.7484  0.7030
11912TIP3   OH257150   1.327   2.841  16.470  0.2061 -0.1069  0.3390
11912TIP3    H157151   1.322   2.764  16.413  1.4326  0.4736 -0.5944
11912TIP3    H257152   1.236   2.868  16.483 -0.1114 -0.3866 -1.1550
11913TIP3   OH257153   2.031   1.581  14.295  0.7069 -0.0594  0.2580
11913TIP3    H157154   1.944   1.580  14.255  0.5475 -0.4034  0.6045
11913TIP3    H257155   2.082   1.519  14.243  0.4274 -0.7029  0.7402
11914TIP3   OH257156   1.409   4.666   0.385 -0.2857  0.6413 -0.0222
11914TIP3    H157157   1.355   4.605   0.336  0.6281  0.0682 -0.3229
11914TIP3    H257158   1.495   4.625   0.390  0.1369  1.5437  0.4500
11915TIP3   OH257159   5.331   4.327  13.494  0.0395  0.0278  0.1419
11915TIP3    H157160   5.417   4.367  13.484  0.2286  0.8407  3.7602
11915TIP3    H257161   5.349   4.237  13.521 -0.1890  0.4172  1.6488
11916TIP3   OH257162   0.867   3.771  16.499 -0.1606  0.3634  0.1348
11916TIP3    H157163   0.801   3.785  16.432  0.0673  0.5754 -0.0456
11916TIP3    H257164   0.944   3.820  16.468  0.0983  0.0719  0.3129
11917TIP3   OH257165   6.134   4.130  14.208  0.3753  0.2256 -0.1850
11917TIP3    H157166   6.191   4.074  14.155 -0.5755 -1.6245  0.6500
11917TIP3    H257167   6.080   4.069  14.257 -0.3907  1.9031  1.1595
11918TIP3   OH257168   3.690   0.335   0.642  0.4883  0.2251  0.4190
11918TIP3    H157169   3.685   0.253   0.593  1.3817  1.2264 -1.4735
11918TIP3    H257170   3.599   0.359   0.660  0.0612  0.1756 -1.4663
11919TIP3   OH257171   3.470   3.057  15.371 -0.0922  0.1193 -0.0103
11919TIP3    H157172   3.374   3.058  15.375 -0.0646  0.3403  0.6306
11919TIP3    H257173   3.496   3.004  15.446  0.3492  1.8727  1.1393
11920TIP3   OH257174   2.549   5.505   1.161 -0.0841 -1.1970 -0.1881
11920TIP3    H157175   2.612   5.574   1.140  0.5259 -2.1074 -1.4699
11920TIP3    H257176   2.567   5.482   1.251 -0.2537  0.2489  0.2516
11921TIP3   OH257177   3.901   2.367  15.729  0.2888 -0.6309  0.0987
11921TIP3    H157178   3.943   2.402  15.808 -0.0831 -0.8446  0.3931
11921TIP3    H257179   3.815   2.336  15.758 -0.2521  0.1844 -0.5719
11922TIP3   OH257180   5.492   0.725   3.046  0.1197  0.2782 -0.3606
11922TIP3    H157181   5.484   0.731   3.142  1.9379  1.0099 -0.2253
11922TIP3    H257182   5.471   0.813   3.015  0.5026  0.2991 -0.5592
11923TIP3   OH257183   3.595   5.201   3.262 -0.3503 -0.2686  0.4169
11923TIP3    H157184   3.541   5.213   3.183 -0.4672 -1.0833  0.3650
11923TIP3    H257185   3.681   5.236   3.238 -0.9762  1.5538  0.6795
11924TIP3   OH257186   3.438   5.319   4.509 -0.7365 -0.8546 -0.1229
11924TIP3    H157187   3.347   5.348   4.507 -0.4560  0.1865  0.7122
11924TIP3    H257188   3.447   5.271   4.591  0.3565  2.4826  1.9066
11925TIP3   OH257189   4.683   2.781  10.644  0.5377 -0.5339  0.4016
11925TIP3    H157190   4.592   2.753  10.659  0.5420  0.2540  2.1843
11925TIP3    H257191   4.675   2.869  10.606  0.4630  0.7839  3.1951
11926TIP3   OH257192   3.110   5.372   3.754 -0.4679  0.6274  0.6062
11926TIP3    H157193   3.173   5.349   3.822 -1.7714 -1.0626  1.3147
11926TIP3    H257194   3.120   5.304   3.688  0.1800  1.7755 -0.5221
11927TIP3   OH257195   2.617   2.025  14.780 -0.2273  0.3013 -0.1331
11927TIP3    H157196   2.710   2.048  14.775  0.0698 -0.4336  1.5595
11927TIP3    H257197   2.572   2.104  14.749  0.9270  0.9427 -0.2625
11928TIP3   OH257198   5.022   0.491   5.422  0.3508  0.3287  0.1303
11928TIP3    H157199   5.019   0.468   5.329  0.2581 -1.8657  0.6121
11928TIP3    H257200   5.020   0.406   5.467 -0.7630  1.3706  2.1631
11929TIP3   OH257201   5.027   1.048   0.206 -1.0056 -0.0542 -0.1343
11929TIP3    H157202   5.011   1.067   0.113  1.8657  2.2236 -0.3328
11929TIP3    H257203   5.082   0.970   0.204  0.7150  1.0927 -0.6106
11930TIP3   OH257204   6.375   0.006   3.178 -0.1240 -0.0361  0.1283
11930TIP3    H157205   6.379  -0.034   3.092 -1.3766 -0.9730  0.4763
11930TIP3    H257206   6.439  -0.043   3.231 -0.6222 -0.6405  0.1802
11931TIP3   OH257207   2.005   2.582   6.236 -0.4279 -0.1639 -0.1057
11931TIP3    H157208   1.993   2.632   6.317  0.8280  0.0758 -0.0543
11931TIP3    H257209   1.946   2.507   6.245 -1.5619  0.7436  0.2758
11932TIP3   OH257210   0.593   1.592   1.993  0.2733 -0.3569 -0.3602
11932TIP3    H157211   0.600   1.571   2.086 -0.0682  0.2155 -0.1965
11932TIP3    H257212   0.618   1.511   1.947 -0.0934 -0.8129  0.2338
11933TIP3   OH257213   0.786   0.031  13.429  0.6666 -0.1496 -0.4326
11933TIP3    H157214   0.881   0.021  13.415  0.7977  0.1900  0.1474
11933TIP3    H257215   0.774   0.008  13.521  0.2946  0.5125 -0.3096
11934TIP3   OH257216   1.861   1.293  10.790 -0.6648 -0.0859 -0.1569
11934TIP3    H157217   1.794   1.356  10.764 -1.3659 -1.1704 -1.0919
11934TIP3    H257218   1.931   1.304  10.725 -0.9227 -0.4538 -0.5074
11935TIP3   OH257219   3.383   2.598   2.332  0.5592 -0.0983  0.1151
11935TIP3    H157220   3.397   2.527   2.268  2.3409  1.6557 -1.5683
11935TIP3    H257221   3.471   2.630   2.351 -0.0999  0.6183  2.1161
11936TIP3   OH257222   5.558   1.075   2.443  0.2375 -0.5079 -0.4672
11936TIP3    H157223   5.496   1.071   2.516 -0.4077  2.4395 -0.7221
11936TIP3    H257224   5.643   1.090   2.485  0.7928 -3.7265 -0.1673
11937TIP3   OH257225   6.648   0.851  13.288  0.0165 -0.0689  0.4104
11937TIP3    H157226   6.731   0.863  13.334  0.0819  0.4549  0.1669
11937TIP3    H257227   6.582   0.858  13.356  0.2298 -3.1574  1.1060
11938TIP3   OH257228   4.217   0.297  12.900 -0.2586 -0.3174 -0.2513
11938TIP3    H157229   4.136   0.252  12.875  0.1922 -0.7937 -0.8823
11938TIP3    H257230   4.191   0.353  12.973 -0.5193 -2.7930  1.7084
11939TIP3   OH257231   3.311   3.763   4.012 -0.2111 -0.0526  0.3188
11939TIP3    H157232   3.399   3.727   4.013  0.1509  0.7399 -1.0398
11939TIP3    H257233   3.254   3.688   4.030  0.6365 -0.9582 -0.6437
11940TIP3   OH257234   1.813   6.139  14.240  0.1343  0.0339 -0.0051
11940TIP3    H157235   1.874   6.162  14.170  1.5255  1.1233  1.4631
11940TIP3    H257236   1.741   6.202  14.231  1.0507  1.1761  0.4249
11941TIP3   OH257237   1.863   0.654   6.451  0.0947  0.0504 -0.3802
11941TIP3    H157238   1.950   0.652   6.492 -0.6058  1.1519  1.2894
11941TIP3    H257239   1.832   0.564   6.456 -0.0521  0.1714  1.8551
11942TIP3   OH257240   6.125   3.222  11.391  0.4462  0.2355 -0.3359
11942TIP3    H157241   6.085   3.236  11.305  0.4975 -0.3929 -0.4678
11942TIP3    H257242   6.130   3.310  11.429  1.8562  0.7664 -1.6056
11943TIP3   OH257243   3.104   4.015   3.301 -0.0543  0.0560  0.5103
11943TIP3    H157244   3.109   3.981   3.212  0.9762  0.0115  0.5777
11943TIP3    H257245   3.020   3.982   3.334 -0.5682  0.2759 -0.5115
11944TIP3   OH257246   2.773   1.187   3.808 -0.0275 -0.5502 -0.0577
11944TIP3    H157247   2.816   1.234   3.880 -1.0114  0.3695 -0.0484
11944TIP3    H257248   2.823   1.106   3.800  1.3354  0.2072  0.3385
11945TIP3   OH257249   0.823   0.520   5.803 -0.0510  0.1006  0.3066
11945TIP3    H157250   0.801   0.579   5.731 -1.6682 -1.0173 -0.1588
11945TIP3    H257251   0.870   0.448   5.762 -3.1024 -1.7965 -0.1613
11946TIP3   OH257252   4.833   1.117  11.513 -0.0637  0.6177 -0.0875
11946TIP3    H157253   4.783   1.077  11.584  0.1560  0.1592 -0.1910
11946TIP3    H257254   4.861   1.044  11.458 -0.0602  0.9520 -0.5361
11947TIP3   OH257255   1.280   4.911   3.517 -0.0606 -0.3286  0.0355
11947TIP3    H157256   1.312   4.898   3.606  1.7321 -0.7951 -0.6251
11947TIP3    H257257   1.359   4.908   3.463 -1.1248 -0.2347 -1.5950
11948TIP3   OH257258   2.097   6.055  16.078 -0.1246  0.6839  0.3602
11948TIP3    H157259   2.126   6.034  15.989 -0.0278 -0.7347  0.7133
11948TIP3    H257260   2.099   6.151  16.081  0.7239  0.7330 -0.8773
11949TIP3   OH257261   1.792   2.076  14.694  0.3063 -0.2690  0.2847
11949TIP3    H157262   1.760   1.986  14.700  1.4144 -0.6992  0.1389
11949TIP3    H257263   1.838   2.080  14.610 -0.3091  0.6366 -0.0243
11950TIP3   OH257264   4.181   1.107   4.977  0.4402  0.0370  0.6827
11950TIP3    H157265   4.164   1.193   5.016  1.4061  1.1006 -1.1132
11950TIP3    H257266   4.094   1.067   4.968 -0.0763  1.0485  1.0212
11951TIP3   OH257267   1.561   6.718  13.360 -0.5668 -0.5599 -0.0364
11951TIP3    H157268   1.476   6.749  13.391  0.0045  1.2626 -0.1349
11951TIP3    H257269   1.624   6.777  13.402  0.5754 -1.2289 -0.7671
11952TIP3   OH257270   0.577   1.719  11.838  0.4826 -0.5608 -0.5453
11952TIP3    H157271   0.630   1.796  11.816  2.7800 -1.5133  1.1966
11952TIP3    H257272   0.517   1.710  11.765  0.6826  2.3704 -1.2265
11953TIP3   OH257273   4.475   5.318   4.271  0.0591  0.0675  0.1932
11953TIP3    H157274   4.529   5.359   4.203 -0.2224 -0.9554 -0.6728
11953TIP3    H257275   4.393   5.297   4.227 -0.6111  0.5307  1.1950
11954TIP3   OH257276   5.698   3.865  14.312 -0.2284  0.7203  0.1598
11954TIP3    H157277   5.757   3.938  14.290  0.2038  1.3066  2.8154
11954TIP3    H257278   5.623   3.877  14.255 -0.0064  3.0840  0.2279
11955TIP3   OH257279   5.109   1.280   5.537  0.2541 -0.5241  0.1129
11955TIP3    H157280   5.056   1.278   5.617 -0.8655 -0.3423 -0.5946
11955TIP3    H257281   5.177   1.345   5.554 -0.2564 -0.1483  0.7479
11956TIP3   OH257282   4.237   2.484   3.489  0.1219  0.3678  0.0241
11956TIP3    H157283   4.181   2.499   3.565  1.2022 -0.6343  1.0792
11956TIP3    H257284   4.178   2.484   3.414 -1.3171 -0.7333  1.0937
11957TIP3   OH257285   1.817   6.727  16.906  0.3336  0.4109 -0.0797
11957TIP3    H157286   1.781   6.643  16.879  1.3750 -0.1088  0.0847
11957TIP3    H257287   1.852   6.765  16.826 -1.1252  1.2189 -0.3630
11958TIP3   OH257288   2.722   2.077  13.289  0.3436 -0.4158 -0.0019
11958TIP3    H157289   2.672   2.003  13.256  1.5065 -1.1506 -0.1701
11958TIP3    H257290   2.690   2.090  13.378 -0.4066 -0.6136 -0.2353
11959TIP3   OH257291   6.750   2.578  11.933  0.1631 -0.3259 -0.1000
11959TIP3    H157292   6.739   2.486  11.908  2.8340 -1.5355  2.5809
11959TIP3    H257293   6.810   2.614  11.868  0.9752 -1.1849  0.1568
11960TIP3   OH257294   1.853   0.596   3.399  0.7553 -0.1804 -0.5153
11960TIP3    H157295   1.791   0.669   3.390  0.9394  0.0488  0.0288
11960TIP3    H257296   1.926   0.633   3.448  0.5045 -0.9393  0.4475
11961TIP3   OH257297   4.291   6.183  15.226 -0.1899 -0.2331 -0.1880
11961TIP3    H157298   4.336   6.115  15.277  0.7408  0.9849  0.6480
11961TIP3    H257299   4.356   6.251  15.214 -1.5995  1.2874  0.4464
11962TIP3   OH257300   2.938   4.834   2.383  0.0661 -0.1098 -0.8115
11962TIP3    H157301   2.935   4.864   2.291  0.3725  1.7339 -0.2765
11962TIP3    H257302   2.958   4.741   2.377 -1.4281 -0.3823 -2.6517
11963TIP3   OH257303   1.337   2.588   2.075  0.0879  0.3666 -0.1810
11963TIP3    H157304   1.291   2.662   2.035 -0.4633  0.4268  0.5280
11963TIP3    H257305   1.278   2.559   2.145  0.3211 -0.7228 -0.4262
11964TIP3   OH257306   2.574   3.609   3.156 -0.3530 -0.0888  0.3016
11964TIP3    H157307   2.651   3.554   3.139  0.1076  0.9047 -0.9675
11964TIP3    H257308   2.500   3.555   3.129  0.0468 -0.3263 -0.3440
11965TIP3   OH257309   3.781   5.126  14.674 -0.2143  0.2569  0.2184
11965TIP3    H157310   3.758   5.040  14.710  1.7901 -0.2746  0.2988
11965TIP3    H257311   3.758   5.120  14.581 -0.8118 -0.0691  0.3778
11966TIP3   OH257312   1.596   3.117  17.020 -0.1000  0.4653 -0.0155
11966TIP3    H157313   1.535   3.119  16.947  0.5173 -2.2660 -0.7294
11966TIP3    H257314   1.541   3.108  17.098 -0.7406 -2.2137 -0.6684
11967TIP3   OH257315   3.051   0.974   1.203  0.2081 -0.7130  0.4976
11967TIP3    H157316   3.121   0.911   1.221  0.2417 -0.6621  0.5462
11967TIP3    H257317   2.971   0.922   1.203  0.4320 -1.1396 -1.5169
11968TIP3   OH257318   5.625   5.091   3.578 -0.4193 -0.5330  0.0320
11968TIP3    H157319   5.611   5.052   3.664 -1.3618 -0.0943  0.0873
11968TIP3    H257320   5.657   5.019   3.524 -0.4531 -0.9667  0.5817
11969TIP3   OH257321   4.657   0.825   3.995  0.0731  0.0329  0.7028
11969TIP3    H157322   4.647   0.918   3.976  2.7391  0.8732  2.6872
11969TIP3    H257323   4.585   0.805   4.054 -0.8737  0.6485 -0.2015
11970TIP3   OH257324   1.975   2.700   3.420  0.1606  0.5036 -0.3876
11970TIP3    H157325   2.060   2.696   3.465  0.2119  1.1271 -0.4264
11970TIP3    H257326   1.922   2.759   3.474  0.2361  1.2911 -1.1503
11971TIP3   OH257327   2.816   4.510   0.661 -0.0701  0.0427  0.5099
11971TIP3    H157328   2.770   4.426   0.665  1.5298 -0.8510  0.8534
11971TIP3    H257329   2.765   4.562   0.599 -1.3135 -1.0287  0.5914
11972TIP3   OH257330   2.101   6.540  16.751  0.2977 -0.7773 -0.0020
11972TIP3    H157331   2.173   6.566  16.809  1.8852  0.9695 -2.5240
11972TIP3    H257332   2.062   6.624  16.725  0.7995 -1.3339 -2.7551
11973TIP3   OH257333   6.647   2.514  16.380  0.0008 -0.2179 -0.2642
11973TIP3    H157334   6.713   2.516  16.312  0.3480 -1.2992  0.0197
11973TIP3    H257335   6.572   2.470  16.340 -0.5043  0.8439 -0.5301
11974TIP3   OH257336   0.438   1.766  14.082  0.3793 -0.1679 -0.6812
11974TIP3    H157337   0.530   1.771  14.109  0.7198  0.7280 -1.9283
11974TIP3    H257338   0.432   1.682  14.036  0.9063  0.3201 -1.6815
11975TIP3   OH257339   4.955   6.074  14.267 -0.3782  0.4700  0.0014
11975TIP3    H157340   4.926   6.118  14.187  0.1546  0.1345 -0.3780
11975TIP3    H257341   4.917   5.986  14.261 -3.6569  1.5692  1.9857
11976TIP3   OH257342   1.440   6.738   2.321  0.0995  0.2156  0.2450
11976TIP3    H157343   1.468   6.652   2.291  1.7305  0.9969 -0.5693
11976TIP3    H257344   1.345   6.738   2.310 -0.0445 -1.7746  1.0972
11977TIP3   OH257345   0.792   6.425   4.863 -0.5170 -0.0784  0.8971
11977TIP3    H157346   0.821   6.464   4.780 -0.4948 -0.1565  0.8683
11977TIP3    H257347   0.712   6.378   4.840  0.3349 -1.4255  0.5995
11978TIP3   OH257348   1.835   3.043   5.482  0.0530  0.1612  0.6348
11978TIP3    H157349   1.881   2.985   5.542  1.2499  0.7656  0.3334
11978TIP3    H257350   1.825   3.125   5.531  1.2551  0.7397 -0.0375
11979TIP3   OH257351   0.646   4.239   4.902  0.1864  0.0911  0.0972
11979TIP3    H157352   0.626   4.291   4.979 -0.6813 -1.3317  0.8703
11979TIP3    H257353   0.574   4.257   4.841  0.1473  0.1649  0.1660
11980TIP3   OH257354   1.350   4.175   1.576  0.1642 -0.3751 -0.7261
11980TIP3    H157355   1.368   4.236   1.648  1.3491 -1.4780 -0.0403
11980TIP3    H257356   1.275   4.125   1.606  0.3275 -0.4770 -0.4824
11981TIP3   OH257357   5.201   2.484   6.182 -0.3892 -0.5027  0.2038
11981TIP3    H157358   5.257   2.486   6.260 -0.0671  0.7215 -0.0242
11981TIP3    H257359   5.115   2.459   6.214 -0.3411  0.3195  1.0302
11982TIP3   OH257360   4.618   5.631  12.156 -0.1038  0.2578  0.3859
11982TIP3    H157361   4.659   5.626  12.069  0.5728  0.6571  0.6737
11982TIP3    H257362   4.524   5.634  12.138 -0.0557 -1.2249 -0.2702
11983TIP3   OH257363   3.830   0.116  14.726 -0.2427 -0.2080 -0.9266
11983TIP3    H157364   3.815   0.110  14.631  1.3367 -0.8994 -1.1645
11983TIP3    H257365   3.810   0.028  14.759  1.8349 -0.7820 -1.0689
11984TIP3   OH257366   3.550   6.106   2.017 -0.2051  0.2594 -0.1604
11984TIP3    H157367   3.489   6.134   2.085 -1.3876  1.8025 -1.7543
11984TIP3    H257368   3.501   6.043   1.964  1.0916 -1.8368  1.0037
11985TIP3   OH257369   0.264   0.882  16.733  0.1150  0.6428  0.0484
11985TIP3    H157370   0.291   0.791  16.724 -0.1994  0.3590  1.6375
11985TIP3    H257371   0.210   0.883  16.813 -2.2760  1.6886 -1.4644
11986TIP3   OH257372   3.167   0.442   0.155  0.8686  0.4004 -0.0822
11986TIP3    H157373   3.094   0.488   0.113 -0.4145 -0.6979  0.8406
11986TIP3    H257374   3.168   0.475   0.245  1.0132 -0.1206  0.1145
11987TIP3   OH257375   5.176   0.821   3.379  0.3368  0.4445 -0.3479
11987TIP3    H157376   5.124   0.901   3.387  2.5209  1.8495  0.9792
11987TIP3    H257377   5.157   0.771   3.459  1.0859  1.0394  0.2202
11988TIP3   OH257378   1.375   2.774   3.272  0.4734 -0.4172 -0.0496
11988TIP3    H157379   1.330   2.848   3.230  0.0179 -0.8774 -0.3801
11988TIP3    H257380   1.351   2.698   3.220 -0.4045 -1.0638  1.2324
11989TIP3   OH257381   1.454   1.138   4.978 -0.6750  0.0352  0.4132
11989TIP3    H157382   1.533   1.136   4.924 -0.5715  0.1565  0.5579
11989TIP3    H257383   1.394   1.195   4.930 -0.3161  0.7391  0.7837
11990TIP3   OH257384   2.248   5.345   0.468 -0.0153 -0.1308  1.2243
11990TIP3    H157385   2.304   5.285   0.518  0.0653 -1.5939 -0.5378
11990TIP3    H257386   2.159   5.320   0.492 -0.0041  1.1768  2.8482
11991TIP3   OH257387   2.032   3.194  15.092 -0.2605 -0.0765 -0.2136
11991TIP3    H157388   1.971   3.248  15.142 -0.4296  0.1272 -0.6360
11991TIP3    H257389   2.069   3.134  15.156 -0.8484 -0.1496  0.0609
11992TIP3   OH257390   2.704   4.396   0.315  0.6422  0.6757  0.0434
11992TIP3    H157391   2.649   4.462   0.356  1.5718  0.4231  1.7730
11992TIP3    H257392   2.672   4.391   0.225 -0.9874  1.7616  0.5255
11993TIP3   OH257393   1.002   3.184  12.510 -0.0178  0.4030 -0.0581
11993TIP3    H157394   0.928   3.231  12.548 -1.3705 -1.7315  0.1684
11993TIP3    H257395   0.964   3.100  12.481  2.1432 -0.3948 -0.7872
11994TIP3   OH257396   1.235   2.933  10.045 -0.0446 -0.6783  0.2859
11994TIP3    H157397   1.156   2.988  10.046 -0.1474 -0.8032 -0.5842
11994TIP3    H257398   1.302   2.987  10.089  0.0385  0.4287 -1.1314
11995TIP3   OH257399   3.622   1.653  15.957 -0.3576  0.3783  0.5941
11995TIP3    H157400   3.530   1.626  15.947  0.9434 -4.4138 -1.0197
11995TIP3    H257401   3.639   1.648  16.050 -1.5712  0.9213  0.8721
11996TIP3   OH257402   0.255   5.868  12.308 -0.4425 -0.2505 -0.1600
11996TIP3    H157403   0.326   5.804  12.303 -0.7925 -0.6261 -0.4390
11996TIP3    H257404   0.298   5.950  12.332 -0.0081 -0.6226  0.3513
11997TIP3   OH257405   2.080   4.372   2.065 -0.4751 -0.0067 -0.4048
11997TIP3    H157406   2.143   4.322   2.118 -0.7054  0.6386  0.5079
11997TIP3    H257407   2.040   4.307   2.008  0.0804 -0.6590 -0.0726
11998TIP3   OH257408   4.625   6.314  14.877  0.0175 -0.7041 -0.5235
11998TIP3    H157409   4.628   6.308  14.973  2.8681 -0.8712 -0.5397
11998TIP3    H257410   4.608   6.224  14.848  2.3304 -1.3534 -0.1341
11999TIP3   OH257411   4.902   0.855  13.085 -0.1030 -0.1373  0.0989
11999TIP3    H157412   4.960   0.886  13.016  0.5767 -1.6507 -0.0557
11999TIP3    H257413   4.818   0.895  13.066  0.1251 -0.3579 -1.5060
12000TIP3   OH257414   5.577   5.796  11.599 -0.9544  0.1163  1.2217
12000TIP3    H157415   5.643   5.860  11.574 -0.3988 -0.7000  0.5493
12000TIP3    H257416   5.615   5.751  11.675  0.0213 -1.4508 -0.1349
12001TIP3   OH257417   4.982   4.830  12.745  0.1830 -0.3126  0.2845
12001TIP3    H157418   4.980   4.752  12.801  2.7053  0.3645  1.4824
12001TIP3    H257419   5.009   4.901  12.804  0.2874  0.9981 -1.2602
12002TIP3   OH257420   6.582   5.490  14.244 -0.5704 -0.1009  0.3470
12002TIP3    H157421   6.536   5.436  14.180  1.2287 -1.5627  0.1998
12002TIP3    H257422   6.611   5.428  14.311 -1.2010  1.1898  1.8894
12003TIP3   OH257423   0.451   5.246   2.033  0.6379 -0.3682 -0.1148
12003TIP3    H157424   0.402   5.214   1.957  0.7525 -0.6701 -0.0632
12003TIP3    H257425   0.453   5.341   2.021  0.4504 -0.3916 -0.3656
12004TIP3   OH257426   4.592   1.153  11.828  0.2182 -0.2272  0.9246
12004TIP3    H157427   4.590   1.072  11.777  0.1465 -0.8897  1.9528
12004TIP3    H257428   4.542   1.215  11.775  0.7590 -0.6764 -0.1534
12005TIP3   OH257429   1.917   3.343  15.777  0.3132 -0.7704  0.6961
12005TIP3    H157430   1.901   3.426  15.822 -0.5090 -0.3028 -0.4101
12005TIP3    H257431   1.976   3.295  15.835  0.4627  0.4115  1.5556
12006TIP3   OH257432   0.432   5.902   5.016 -0.0215  0.9144 -0.2724
12006TIP3    H157433   0.375   5.853   4.956  1.1243 -0.7183 -0.0982
12006TIP3    H257434   0.372   5.955   5.068 -1.6408 -2.0653  1.1408
12007TIP3   OH257435   3.823   0.027   0.640 -0.2643  0.3785 -0.7036
12007TIP3    H157436   3.833   0.074   0.723  1.6280  1.2397 -1.3666
12007TIP3    H257437   3.735   0.050   0.610 -0.5131  1.0297  0.4662
12008TIP3   OH257438   0.528   6.635  17.054  0.5178 -0.1875  0.1328
12008TIP3    H157439   0.553   6.723  17.025 -1.6528  0.4642  0.0339
12008TIP3    H257440   0.569   6.625  17.140 -0.0171  1.3692  0.6012
12009TIP3   OH257441   0.958   0.734   4.148 -0.1805  0.3552 -0.1763
12009TIP3    H157442   0.867   0.707   4.158 -0.5940  0.5405 -2.7108
12009TIP3    H257443   0.953   0.824   4.114  0.9176  0.2092 -0.7653
12010TIP3   OH257444   6.738   2.933   2.269 -0.3499  0.3585 -0.0047
12010TIP3    H157445   6.823   2.975   2.281  0.0969 -0.8814  1.4933
12010TIP3    H257446   6.688   2.994   2.215  1.1233  1.5971 -0.0175
12011TIP3   OH257447   4.637   5.704  13.308 -0.2801  0.1087 -0.2262
12011TIP3    H157448   4.594   5.681  13.390 -0.5474 -1.9706 -0.8956
12011TIP3    H257449   4.566   5.708  13.243  0.0268  0.9165 -0.5261
12012TIP3   OH257450   1.965   3.219   3.000 -0.0024  0.0384 -0.3772
12012TIP3    H157451   1.909   3.142   3.011  0.6536 -0.6853 -1.8355
12012TIP3    H257452   2.011   3.204   2.918  2.1773  0.6987  0.6333
12013TIP3   OH257453   5.961   4.115  12.463 -0.2021  0.4129 -0.1851
12013TIP3    H157454   6.048   4.144  12.489  0.8830 -1.1705 -1.8017
12013TIP3    H257455   5.903   4.187  12.490  1.6714  1.8443  0.2867
12014TIP3   OH257456   4.682   2.904  16.383 -0.2093  0.1556  0.5462
12014TIP3    H157457   4.668   2.838  16.316  0.4182  0.2066  0.3627
12014TIP3    H257458   4.672   2.988  16.337  0.2402  0.1907  0.5103
12015TIP3   OH257459   0.153   1.435  15.720  0.1135 -0.9264 -0.3391
12015TIP3    H157460   0.063   1.402  15.719 -1.0532  1.8016  1.5309
12015TIP3    H257461   0.191   1.398  15.800  0.4402 -1.4960 -0.7495
12016TIP3   OH257462   6.395   3.311   2.112  0.2214 -0.3231  0.0506
12016TIP3    H157463   6.300   3.301   2.115  0.2623 -0.5537  0.6157
12016TIP3    H257464   6.429   3.222   2.119  0.4519 -0.4988 -2.3640
12017TIP3   OH257465   3.998   0.538   1.111  0.2559  0.1710  0.4119
12017TIP3    H157466   3.910   0.562   1.082  0.5817  1.8817  0.7399
12017TIP3    H257467   3.984   0.475   1.181 -0.7683  1.3307  1.2807
12018TIP3   OH257468   2.286   2.282   0.753  0.0183 -0.3123  0.3647
12018TIP3    H157469   2.302   2.194   0.718 -1.4138 -0.0487 -1.0857
12018TIP3    H257470   2.291   2.339   0.676 -1.7534  0.5089  0.8148
12019TIP3   OH257471   2.395   6.197  12.153 -0.6188  0.0632 -0.3569
12019TIP3    H157472   2.354   6.283  12.152  0.1285  0.4524  0.7592
12019TIP3    H257473   2.441   6.193  12.237  1.5100 -0.3950 -1.4690
12020TIP3   OH257474   4.347   3.171  13.274  0.2831  0.2098 -0.1282
12020TIP3    H157475   4.349   3.158  13.369  0.4629 -1.9378 -0.3743
12020TIP3    H257476   4.269   3.225  13.259  0.8992  1.5767  1.3021
12021TIP3   OH257477   5.866   5.237  12.088  0.0292  0.1279  0.1669
12021TIP3    H157478   5.935   5.302  12.100  1.0807 -0.2305 -2.9777
12021TIP3    H257479   5.906   5.168  12.035 -2.1997 -1.0842 -0.0802
12022TIP3   OH257480   0.520   4.673   1.859 -0.0830 -0.3009  0.1176
12022TIP3    H157481   0.434   4.665   1.816 -0.5972  3.1845  0.1706
12022TIP3    H257482   0.531   4.767   1.871  4.0179 -0.5622 -0.3294
12023TIP3   OH257483   5.362   1.182   3.165  0.0673  0.2171 -0.5133
12023TIP3    H157484   5.329   1.193   3.254  2.5509  1.6277  0.3090
12023TIP3    H257485   5.457   1.185   3.174  0.3806  0.5239 -3.2236
12024TIP3   OH257486   3.375   3.954   1.251  0.4877  0.6198 -0.3900
12024TIP3    H157487   3.362   3.936   1.345  1.6626 -1.6156 -0.5832
12024TIP3    H257488   3.470   3.968   1.243  0.7078 -1.2156 -1.4881
12025TIP3   OH257489   0.015   0.324  15.864  0.1690  0.3360 -0.2517
12025TIP3    H157490  -0.057   0.268  15.834  0.9131  0.1067 -1.6953
12025TIP3    H257491   0.001   0.332  15.959 -0.7640 -1.1112 -0.2314
12026TIP3   OH257492   3.536   0.879  14.396 -0.3375  0.6335  0.5784
12026TIP3    H157493   3.468   0.946  14.386  0.1979  0.9209 -1.8544
12026TIP3    H257494   3.545   0.841  14.308  1.5016 -0.5234  1.2090
12027TIP3   OH257495   0.553   2.764   2.670 -0.3686  0.2731  0.5145
12027TIP3    H157496   0.489   2.694   2.680 -0.7035  0.5179  0.1293
12027TIP3    H257497   0.637   2.719   2.658 -0.6040 -0.0627  0.1154
12028TIP3   OH257498   3.391   6.180  13.022 -0.2133  0.2316 -0.5921
12028TIP3    H157499   3.305   6.220  13.034  0.1905  0.6154  1.3503
12028TIP3    H257500   3.424   6.167  13.111  1.9518  0.5794 -1.2828
12029TIP3   OH257501   2.685   4.521   3.860  0.3058 -0.1073  0.1462
12029TIP3    H157502   2.612   4.506   3.920  1.8558 -1.0227  1.9285
12029TIP3    H257503   2.707   4.434   3.826  0.4411  0.1835 -0.5252
12030TIP3   OH257504   2.996   3.347  16.895  0.1635  0.0277 -0.0771
12030TIP3    H157505   2.912   3.304  16.881  0.4006 -1.2163  1.8157
12030TIP3    H257506   2.977   3.419  16.954  0.3413  0.0703 -0.0711
12031TIP3   OH257507   3.657   2.255  15.805  0.1368 -0.2921  0.1806
12031TIP3    H157508   3.674   2.169  15.844 -0.2914 -0.5885 -0.2669
12031TIP3    H257509   3.619   2.307  15.875 -0.3404 -0.7196  0.2402
12032TIP3   OH257510   1.208   2.161   5.388 -0.5855  0.2629 -0.1579
12032TIP3    H157511   1.121   2.124   5.373 -0.2352 -0.5306 -0.3035
12032TIP3    H257512   1.203   2.250   5.356 -0.6838 -0.4989 -2.3961
12033TIP3   OH257513   0.304   1.480   3.722 -0.1623  0.0412  0.8520
12033TIP3    H157514   0.377   1.433   3.762  1.7491 -0.1520 -2.5153
12033TIP3    H257515   0.300   1.447   3.633 -4.8721 -0.3645  0.9653
12034TIP3   OH257516   0.091   5.789  17.003 -0.0594  0.2748  0.0822
12034TIP3    H157517   0.087   5.765  16.910  1.2345 -0.5344  0.2132
12034TIP3    H257518   0.018   5.850  17.015  0.4603  1.3140 -1.7276
12035TIP3   OH257519   3.020   2.325   5.520  0.0581 -0.6454  0.1165
12035TIP3    H157520   2.938   2.375   5.521 -1.5761 -3.1249  1.0538
12035TIP3    H257521   3.023   2.287   5.432 -0.5437 -1.5965  0.4857
12036TIP3   OH257522   0.004   1.207   1.583  0.4104  0.2058  0.4315
12036TIP3    H157523   0.077   1.156   1.618 -0.7335 -0.4069  2.0635
12036TIP3    H257524   0.044   1.268   1.522  2.0772 -1.2462 -0.0164
12037TIP3   OH257525   5.640   1.565   3.867 -0.1852 -0.6742 -0.4316
12037TIP3    H157526   5.669   1.479   3.898  0.8464 -0.1500  0.1073
12037TIP3    H257527   5.580   1.596   3.934 -2.3261 -1.8791 -1.6791
12038TIP3   OH257528   2.063   2.040   1.786  0.8243 -0.8314  0.1937
12038TIP3    H157529   2.022   2.067   1.704  1.8746  0.4667  0.0499
12038TIP3    H257530   2.075   2.122   1.835  3.3076 -1.0805  0.1518
12039TIP3   OH257531   1.699   0.985   5.215  0.8186  0.7184 -0.0824
12039TIP3    H157532   1.758   1.018   5.282 -1.3060  1.0577  1.7501
12039TIP3    H257533   1.643   1.060   5.192 -1.2590 -0.3978  0.9901
12040TIP3   OH257534   0.414   3.804   4.016 -0.4354 -0.2017  0.0268
12040TIP3    H157535   0.341   3.768   3.967  0.0592 -0.3362 -0.6260
12040TIP3    H257536   0.491   3.759   3.982 -0.2325 -1.6690  2.1898
12041TIP3   OH257537   2.314   6.711   1.098 -0.2591 -0.5940  0.4030
12041TIP3    H157538   2.341   6.619   1.101  0.9212 -0.2985 -0.5732
12041TIP3    H257539   2.376   6.756   1.155  1.2445  0.0433 -1.6174
12042TIP3   OH257540   5.666   4.620   1.906 -0.3642 -0.1025 -0.0371
12042TIP3    H157541   5.700   4.531   1.899  0.0853  0.0417  0.2845
12042TIP3    H257542   5.572   4.610   1.894 -0.2240 -0.5093 -0.8843
12043TIP3   OH257543   0.126   0.403   2.803 -0.1858  0.2855  0.0616
12043TIP3    H157544   0.032   0.412   2.789  0.0263  0.7846 -1.2229
12043TIP3    H257545   0.165   0.451   2.730  1.0746 -1.3380 -0.3821
12044TIP3   OH257546   0.743   5.043  14.852 -0.1783 -0.2099  0.3083
12044TIP3    H157547   0.829   5.067  14.817 -0.6882  1.6720  0.2528
12044TIP3    H257548   0.763   4.993  14.931  0.9639 -1.9088 -0.9765
12045TIP3   OH257549   1.900   6.219   5.445  0.0797 -0.9966 -0.1530
12045TIP3    H157550   1.907   6.263   5.360  1.5511  0.0101  0.4412
12045TIP3    H257551   1.817   6.250   5.482  0.8062  0.8970 -0.0050
12046TIP3   OH257552   3.110   4.217   1.428 -0.0153 -0.3634  0.1087
12046TIP3    H157553   3.195   4.172   1.421 -0.9562 -2.3677  0.7800
12046TIP3    H257554   3.128   4.307   1.400  1.8912 -1.2490 -1.8024
12047TIP3   OH257555   1.854   4.979   5.791 -0.5907 -0.5499 -0.2647
12047TIP3    H157556   1.904   4.981   5.709  0.9139 -0.0659  0.6183
12047TIP3    H257557   1.891   4.904   5.839 -2.5224 -1.7950 -0.6358
12048TIP3   OH257558   3.625   3.525  16.016 -0.2012 -0.1643 -0.0898
12048TIP3    H157559   3.699   3.478  15.976  1.7885  1.8994  0.9483
12048TIP3    H257560   3.587   3.462  16.077  1.0278 -1.1159 -0.2722
12049TIP3   OH257561   2.161   2.777   0.576 -0.4276  0.3939 -0.3826
12049TIP3    H157562   2.240   2.802   0.528  0.9412 -1.2150  0.8975
12049TIP3    H257563   2.129   2.699   0.529 -0.0902 -0.1375  0.2556
12050TIP3   OH257564   5.217   4.773  14.636  0.2216 -0.3640  0.4428
12050TIP3    H157565   5.213   4.857  14.590 -2.3110 -0.1260  0.9474
12050TIP3    H257566   5.176   4.710  14.576  2.4861 -1.4134 -0.1210
12051TIP3   OH257567   2.114   6.798  12.055 -0.0927  0.5573 -0.2016
12051TIP3    H157568   2.204   6.772  12.040 -0.1543 -0.4084  0.9853
12051TIP3    H257569   2.067   6.766  11.978  0.2630 -0.6671  0.0701
12052TIP3   OH257570   3.052   0.433  11.369 -0.8981  0.3910 -0.3481
12052TIP3    H157571   2.978   0.379  11.397 -1.2529  1.5919  1.1238
12052TIP3    H257572   3.116   0.370  11.335 -1.4469 -0.9231  0.9755
12053TIP3   OH257573   2.413   0.432   9.562  0.5480 -0.0972  0.8176
12053TIP3    H157574   2.343   0.475   9.612  0.0788 -0.1091  0.1804
12053TIP3    H257575   2.378   0.346   9.541  0.0368  0.5081 -0.9975
12054TIP3   OH257576   4.024   0.347   0.923  0.4639 -0.2279 -0.0706
12054TIP3    H157577   4.019   0.400   1.003 -0.6710 -1.5186  0.7649
12054TIP3    H257578   4.003   0.407   0.852 -0.0714  0.6057  0.7702
12055TIP3   OH257579   4.371   3.088   1.328  0.4015 -0.4086 -0.1703
12055TIP3    H157580   4.413   3.112   1.411  0.9370  0.1100 -0.5828
12055TIP3    H257581   4.279   3.114   1.340  0.4257 -0.5471  0.3387
12056TIP3   OH257582   1.786   5.477   2.797 -0.3542  0.0559 -0.1801
12056TIP3    H157583   1.749   5.406   2.744 -0.1691 -0.7420  0.7350
12056TIP3    H257584   1.880   5.471   2.781 -0.1750 -0.9038  1.0484
12057TIP3   OH257585   4.531   2.952   2.235  0.6283  0.3316 -0.0877
12057TIP3    H157586   4.544   2.950   2.140  1.1839  1.2038 -0.0455
12057TIP3    H257587   4.523   2.861   2.261  0.3211  0.0916 -0.9939
12058TIP3   OH257588   1.692   2.453   2.714  0.5895  0.7547 -0.2210
12058TIP3    H157589   1.776   2.414   2.740 -0.1707 -0.0349  1.1062
12058TIP3    H257590   1.666   2.403   2.637  0.9370  0.4418 -0.1409
12059TIP3   OH257591   2.240   4.548   2.923 -0.2398  0.0960 -0.2416
12059TIP3    H157592   2.261   4.469   2.873 -1.6041 -0.4638  0.0274
12059TIP3    H257593   2.211   4.515   3.008  0.9103  0.9815  0.5375
12060TIP3   OH257594   4.990   3.058  16.139  0.1863 -0.2609 -0.4551
12060TIP3    H157595   5.073   3.089  16.174 -1.1176 -0.3043  3.1054
12060TIP3    H257596   4.944   3.138  16.114  0.7218 -0.1442 -1.1037
12061TIP3   OH257597   1.870   3.315  15.270 -0.2954 -0.2045 -0.8254
12061TIP3    H157598   1.833   3.250  15.330  0.8757  0.8877  1.2041
12061TIP3    H257599   1.824   3.396  15.292 -0.1351  0.1360 -1.7121
12062TIP3   OH257600   3.166   3.360  11.714  0.3804 -0.1819  0.1347
12062TIP3    H157601   3.071   3.351  11.718  0.3173  0.3117 -0.1659
12062TIP3    H257602   3.198   3.307  11.787  0.0060 -2.0929 -1.0154
12063TIP3   OH257603   0.278   1.390   3.450  0.3057 -0.0497  0.1363
12063TIP3    H157604   0.294   1.297   3.434  1.3813 -0.0325  0.9583
12063TIP3    H257605   0.207   1.413   3.391 -1.1337 -1.8027  1.0921
12064TIP3   OH257606   1.965   0.971   5.338  0.1346  0.2883  0.0914
12064TIP3    H157607   2.047   0.953   5.291  0.5198  1.7775  0.1298
12064TIP3    H257608   1.969   0.915   5.415  2.4243  2.1775  1.4925
12065TIP3   OH257609   1.233   1.593   4.202  0.3241  0.5079 -0.8388
12065TIP3    H157610   1.262   1.565   4.115 -0.2410  0.1047 -0.8996
12065TIP3    H257611   1.150   1.638   4.187  1.1243  2.1011 -0.7238
12066TIP3   OH257612   0.951   6.237   3.523 -0.2688 -0.0234  0.0949
12066TIP3    H157613   0.915   6.195   3.445  2.2944  2.2091 -2.5091
12066TIP3    H257614   1.039   6.265   3.498 -0.4503  3.6477  2.6789
12067TIP3   OH257615   3.911   0.008  12.612  0.2030  0.0414  0.0178
12067TIP3    H157616   3.868  -0.077  12.602  0.4185 -0.0053 -0.5258
12067TIP3    H257617   3.840   0.072  12.605  0.3072 -0.0008 -1.5975
12068TIP3   OH257618   2.734   4.260  13.378 -0.4254  0.6012  0.1464
12068TIP3    H157619   2.757   4.178  13.420 -1.6330 -0.1537 -0.5953
12068TIP3    H257620   2.776   4.256  13.292 -2.7025 -0.5651 -1.0181
12069TIP3   OH257621   1.900   0.666   2.866  0.2944  0.3077 -0.0943
12069TIP3    H157622   1.870   0.728   2.801  2.4941  1.6660  0.0717
12069TIP3    H257623   1.863   0.697   2.949 -1.0994 -0.4317 -0.4098
12070TIP3   OH257624   0.461   5.662  12.283 -0.4724 -0.6023 -0.0606
12070TIP3    H157625   0.488   5.623  12.200 -0.9637  0.1581 -0.5964
12070TIP3    H257626   0.522   5.627  12.347  1.7571  0.9960 -1.1950
12071TIP3   OH257627   6.776   5.365   4.465  0.2889 -0.0611  0.0546
12071TIP3    H157628   6.692   5.369   4.419  2.0227  2.7841 -3.3233
12071TIP3    H257629   6.754   5.384   4.557 -2.9262 -1.8797 -0.1960
12072TIP3   OH257630   1.427   3.120  14.035  0.0002 -0.1981  0.1128
12072TIP3    H157631   1.504   3.176  14.030 -0.1437  0.1453  1.5317
12072TIP3    H257632   1.370   3.152  13.965  0.1679  1.0515  0.5232
12073TIP3   OH257633   1.575   0.551   1.340  0.1698  0.7295  0.2125
12073TIP3    H157634   1.495   0.587   1.302 -0.0444  0.3027  0.2509
12073TIP3    H257635   1.554   0.537   1.432  0.7170  1.8489  0.5216
12074TIP3   OH257636   0.908   2.078  15.853 -0.0864  0.3237  0.6613
12074TIP3    H157637   0.967   2.098  15.926  0.1519 -0.1734  0.6102
12074TIP3    H257638   0.858   2.002  15.883  0.0427  0.0901  0.2921
12075TIP3   OH257639   3.291   3.042   4.435 -0.8502 -0.2751 -0.2996
12075TIP3    H157640   3.384   3.043   4.412 -1.1529  3.0996 -1.9628
12075TIP3    H257641   3.289   3.005   4.523  1.8866 -1.6202 -0.6852
12076TIP3   OH257642   1.605   2.581   1.987 -0.3315  0.1695 -0.2699
12076TIP3    H157643   1.610   2.638   1.910  0.7031  2.9301  1.7055
12076TIP3    H257644   1.525   2.608   2.032 -1.0787 -1.6142 -0.4313
12077TIP3   OH257645   1.807   0.224  13.860 -0.2043  0.3879  0.6181
12077TIP3    H157646   1.797   0.134  13.830 -0.7287  0.1810  1.3905
12077TIP3    H257647   1.729   0.242  13.912 -0.2047  1.3623  0.3136
12078TIP3   OH257648   0.855   0.977  14.333  0.4835 -0.2903  0.7498
12078TIP3    H157649   0.932   0.972  14.390  0.6959 -2.0506  0.3421
12078TIP3    H257650   0.855   1.068  14.301  2.4074 -0.2563  0.7475
12079TIP3   OH257651   1.533   6.333   4.952  0.0694  0.4728  0.5255
12079TIP3    H157652   1.507   6.241   4.953 -0.7190  0.6884  0.8886
12079TIP3    H257653   1.562   6.349   4.862 -1.4699  0.2991 -0.0333
12080TIP3   OH257654   5.056   0.479   0.988 -0.0802  0.4054  0.4156
12080TIP3    H157655   4.980   0.526   1.022 -0.2654  0.1499  0.3537
12080TIP3    H257656   5.057   0.396   1.035  0.3394  0.5363  0.6374
12081TIP3   OH257657   1.203   4.162  15.276 -0.1415  0.2166  0.4942
12081TIP3    H157658   1.254   4.222  15.330  1.8986 -0.7191 -0.2966
12081TIP3    H257659   1.243   4.076  15.289 -1.4297 -0.5541 -0.2930
12082TIP3   OH257660   4.997   3.401   6.513 -0.0591  0.1467 -0.1756
12082TIP3    H157661   4.943   3.363   6.443 -1.9764  1.8729  0.2465
12082TIP3    H257662   5.061   3.455   6.467 -0.5077  0.2884 -0.6509
12083TIP3   OH257663   2.185   6.324   3.193  0.0747 -0.5439 -0.3478
12083TIP3    H157664   2.177   6.405   3.142  2.7341  1.1115  1.5582
12083TIP3    H257665   2.118   6.331   3.261 -2.6009 -2.1428 -2.6160
12084TIP3   OH257666   1.579   4.800  10.456  0.2676  0.1876 -0.3135
12084TIP3    H157667   1.623   4.733  10.405  0.4427  0.4764 -0.5461
12084TIP3    H257668   1.649   4.841  10.507  0.3207  0.8372 -0.8971
12085TIP3   OH257669   1.008   2.513   1.287  0.5191 -0.0233 -0.3052
12085TIP3    H157670   1.081   2.465   1.247 -0.3683 -1.3388 -0.4214
12085TIP3    H257671   0.943   2.445   1.307 -0.1823  0.9567  0.9012
12086TIP3   OH257672   1.806   5.997  13.835 -0.1189  0.8236 -0.2745
12086TIP3    H157673   1.850   6.068  13.789 -0.0189  0.0343 -1.4364
12086TIP3    H257674   1.749   5.958  13.770  0.9804 -1.1486 -0.1388
12087TIP3   OH257675   2.265   0.201   2.483  0.1739 -0.1762  0.8690
12087TIP3    H157676   2.226   0.114   2.477  0.8839 -0.3952 -1.7222
12087TIP3    H257677   2.192   0.259   2.502 -0.8430 -0.9914 -0.4164
12088TIP3   OH257678   1.195   1.410   5.933 -0.0643  0.3822 -0.3754
12088TIP3    H157679   1.144   1.347   5.984  0.7441 -0.0152 -0.0323
12088TIP3    H257680   1.283   1.405   5.971  0.3411  0.7104 -1.2598
12089TIP3   OH257681   4.927   2.205  14.556 -0.8834 -0.0160  0.8301
12089TIP3    H157682   4.833   2.198  14.545 -0.5610 -2.2621 -1.1860
12089TIP3    H257683   4.963   2.128  14.513  1.9285  0.9950  1.1180
12090TIP3   OH257684   0.601   4.874  11.383  0.3294  0.6475 -0.3873
12090TIP3    H157685   0.642   4.881  11.469 -1.1776 -0.0609  0.4393
12090TIP3    H257686   0.673   4.866  11.321  1.5155  2.6368  0.6305
12091TIP3   OH257687   2.096   0.048   4.340 -0.0330 -0.0350  0.0861
12091TIP3    H157688   2.154  -0.027   4.357 -0.7454  0.1080  3.9273
12091TIP3    H257689   2.008   0.012   4.345 -0.3927  0.9693  2.0889
12092TIP3   OH257690   5.966   4.451  11.116  0.3799 -0.4425 -0.3285
12092TIP3    H157691   5.897   4.391  11.086  1.2075 -1.2709 -0.6033
12092TIP3    H257692   6.037   4.394  11.143  0.7160  0.3891  0.5975
12093TIP3   OH257693   3.822   6.055  14.310  0.3516 -0.6018 -0.5607
12093TIP3    H157694   3.887   6.120  14.283 -0.2817  0.1266 -0.3510
12093TIP3    H257695   3.872   5.974  14.318  1.3102  0.0095 -0.0907
12094TIP3   OH257696   5.159   2.556   3.108  0.4544  0.1886 -0.4158
12094TIP3    H157697   5.173   2.578   3.016  0.2760 -2.6686 -1.2239
12094TIP3    H257698   5.246   2.533   3.140  0.1827 -1.1741 -0.6059
12095TIP3   OH257699   3.509   4.269   3.716  0.3317  0.5685  0.2719
12095TIP3    H157700   3.435   4.308   3.669 -0.7823  0.0999  1.5452
12095TIP3    H257701   3.494   4.175   3.710 -0.5209  0.4919  2.4651
12096TIP3   OH257702   6.256   5.384  11.464 -0.1048 -0.0054  0.4949
12096TIP3    H157703   6.323   5.349  11.522  0.2456  0.1058  0.1617
12096TIP3    H257704   6.256   5.478  11.482  0.6809  0.1727 -0.3637
12097TIP3   OH257705   4.018   6.085   2.205  0.3477 -0.0826 -0.1644
12097TIP3    H157706   4.052   5.997   2.223 -0.0330 -0.4808 -1.3008
12097TIP3    H257707   3.942   6.071   2.149  0.3444  0.9774 -0.4559
12098TIP3   OH257708   3.557   1.473  12.660 -0.0626 -0.8876 -0.0711
12098TIP3    H157709   3.639   1.521  12.660  0.9305 -2.4835 -0.3346
12098TIP3    H257710   3.569   1.405  12.727 -2.2547  0.5106  1.8895
12099TIP3   OH257711   1.838   0.147  10.171 -0.0496 -0.2850 -0.4189
12099TIP3    H157712   1.816   0.054  10.185  0.3079 -0.6292 -1.9630
12099TIP3    H257713   1.768   0.179  10.114 -0.0947  0.3700  0.0037
12100TIP3   OH257714   1.003   0.302  16.137 -0.3829  0.0428  0.2295
12100TIP3    H157715   1.039   0.237  16.077  0.4060  0.8014 -0.1327
12100TIP3    H257716   0.932   0.256  16.182 -1.3296 -0.4180 -1.6291
12101TIP3   OH257717   0.838   5.969  13.731  0.3592 -0.0481 -0.2812
12101TIP3    H157718   0.876   5.944  13.647  1.1233 -0.9292  0.3096
12101TIP3    H257719   0.804   5.887  13.767 -1.7260  0.6413 -0.5830
12102TIP3   OH257720   3.419   0.261  13.212 -0.1455  0.4082  1.0021
12102TIP3    H157721   3.377   0.176  13.226 -0.6297  0.1376 -1.4685
12102TIP3    H257722   3.351   0.315  13.171  1.5366  0.1708 -2.4685
12103TIP3   OH257723   2.029   0.708  16.126  0.1905  0.2648 -0.2554
12103TIP3    H157724   1.943   0.729  16.090 -0.6004 -0.8688  0.8902
12103TIP3    H257725   2.062   0.791  16.160  0.9589  1.3996 -3.3956
12104TIP3   OH257726   4.943   2.395   6.243  0.2393 -0.5117 -0.1661
12104TIP3    H157727   4.881   2.327   6.268 -2.1180  1.7953  0.7989
12104TIP3    H257728   4.904   2.437   6.167  0.9257  0.5864  0.0571
12105TIP3   OH257729   1.427   1.374   4.044  0.1960  0.3049 -0.3118
12105TIP3    H157730   1.398   1.370   4.135 -1.4104 -0.5941 -0.8230
12105TIP3    H257731   1.507   1.321   4.043 -0.8573 -1.3793  0.2271
12106TIP3   OH257732   2.595   6.128  16.573  0.0954  0.3700  0.0234
12106TIP3    H157733   2.658   6.064  16.540  0.1711  0.0317  0.7841
12106TIP3    H257734   2.513   6.106  16.529  0.6023  1.1241 -1.3439
12107TIP3   OH257735   5.974   4.811   0.432 -0.0475  0.6984 -0.0868
12107TIP3    H157736   5.905   4.874   0.454 -0.4776  0.8987 -1.8649
12107TIP3    H257737   6.040   4.824   0.500 -1.6978  0.5554  1.6460
12108TIP3   OH257738   5.094   3.728  12.319 -0.4553 -0.0745 -0.6536
12108TIP3    H157739   5.153   3.797  12.351 -3.1890  2.2517 -0.1915
12108TIP3    H257740   5.067   3.759  12.232  0.5874 -2.1997 -1.7983
12109TIP3   OH257741   6.142   0.693  16.915  0.2299 -0.4223  0.0649
12109TIP3    H157742   6.047   0.684  16.909  0.1659 -2.6687  2.6549
12109TIP3    H257743   6.166   0.747  16.839 -3.1089  0.5268 -0.4620
12110TIP3   OH257744   5.204   5.721  13.774 -0.0351  0.2096 -0.0468
12110TIP3    H157745   5.168   5.671  13.848 -0.4534 -0.2896 -0.5757
12110TIP3    H257746   5.298   5.719  13.788 -0.0735 -0.3467  0.1892
12111TIP3   OH257747   0.007   4.850  14.273  0.0839  0.8147  0.1559
12111TIP3    H157748   0.047   4.818  14.193 -1.5985  2.5119 -1.4458
12111TIP3    H257749  -0.057   4.782  14.297 -0.7013  1.1161 -1.0080
12112TIP3   OH257750   5.963   1.874   0.021  0.2789  0.2569  0.0205
12112TIP3    H157751   5.995   1.949  -0.028  0.7915  0.0333  0.0115
12112TIP3    H257752   5.918   1.820  -0.045 -0.5669  0.8067  0.1228
12113TIP3   OH257753   1.700   3.544   1.804  0.6026  0.4619 -0.4829
12113TIP3    H157754   1.670   3.457   1.779  1.0029  0.2208 -0.1192
12113TIP3    H257755   1.622   3.587   1.839  0.4592  0.1729 -0.4472
12114TIP3   OH257756   1.397   4.046  14.588 -0.2578  0.3785 -0.1886
12114TIP3    H157757   1.488   4.076  14.588 -0.7031  1.8346  0.9204
12114TIP3    H257758   1.370   4.049  14.680 -1.7962  1.2220 -0.6205
12115TIP3   OH257759   4.362   5.871  16.958 -0.2809 -0.5015 -0.1947
12115TIP3    H157760   4.274   5.877  16.921 -1.0306 -3.1898  0.9562
12115TIP3    H257761   4.395   5.786  16.929  0.3726 -1.2673  2.5195
12116TIP3   OH257762   0.895   4.457   1.949  0.0330 -0.7143 -0.2581
12116TIP3    H157763   0.858   4.544   1.969 -0.6502 -1.1022  0.2125
12116TIP3    H257764   0.989   4.470   1.954 -0.0751 -0.3849  1.6031
12117TIP3   OH257765   3.889   5.932   3.643 -0.5431  0.5909  0.3993
12117TIP3    H157766   3.982   5.915   3.649 -0.7155 -0.2178  0.8622
12117TIP3    H257767   3.862   5.889   3.562 -0.7961 -0.5647  1.0729
12118TIP3   OH257768   4.952   5.404  12.271 -0.3905  0.1891  0.0902
12118TIP3    H157769   4.937   5.496  12.250  0.3097  0.6284  1.4330
12118TIP3    H257770   5.047   5.392  12.263 -0.2970 -0.0206  1.4121
12119TIP3   OH257771   4.813   1.476  13.982  0.1567 -0.5482  0.2274
12119TIP3    H157772   4.748   1.447  14.046  0.7860  1.0764  1.6902
12119TIP3    H257773   4.767   1.541  13.929 -0.4388 -2.0766 -1.2004
12120TIP3   OH257774   6.331   2.724  10.766  0.3328 -0.1160 -0.3548
12120TIP3    H157775   6.375   2.809  10.770  0.4101 -0.1892  2.0072
12120TIP3    H257776   6.238   2.745  10.758  0.4607  0.1226 -1.3660
12121TIP3   OH257777   3.418   5.849   1.422  0.2885  0.3093  0.2885
12121TIP3    H157778   3.344   5.808   1.378 -1.1163  2.5894  0.3817
12121TIP3    H257779   3.402   5.833   1.515  1.4448 -1.5668  0.2128
12122TIP3   OH257780   4.777   6.788   5.797 -0.0031  0.1299  0.1516
12122TIP3    H157781   4.833   6.711   5.801 -0.3066 -0.0739  4.0426
12122TIP3    H257782   4.837   6.862   5.806  0.0599  0.2419 -1.0526
12123TIP3   OH257783   6.793   0.797   5.200 -0.2067 -0.0776 -0.2840
12123TIP3    H157784   6.733   0.733   5.162  0.7118 -0.1343 -1.6692
12123TIP3    H257785   6.847   0.827   5.127  0.5839  0.9511  0.6850
12124TIP3   OH257786   1.278   5.272   1.906  0.0676  0.7537 -0.1471
12124TIP3    H157787   1.259   5.291   1.998  0.0219  1.8083 -0.3607
12124TIP3    H257788   1.319   5.352   1.874  2.2724 -0.4408 -0.4519
12125TIP3   OH257789   0.452   3.199  13.919 -0.6667 -0.3269  0.4158
12125TIP3    H157790   0.460   3.154  14.003  1.2099  0.8611  0.9376
12125TIP3    H257791   0.388   3.148  13.870  0.0437 -2.5005  1.6374
12126TIP3   OH257792   4.708   1.648   5.700 -0.4501  0.1017 -0.2325
12126TIP3    H157793   4.772   1.718   5.699  0.3052 -0.5733 -0.2115
12126TIP3    H257794   4.675   1.646   5.789  0.4213 -0.3535  0.0937
12127TIP3   OH257795   6.655   0.190  15.105 -0.5728  0.1301  0.1651
12127TIP3    H157796   6.592   0.240  15.156  1.8181  2.2709  1.2077
12127TIP3    H257797   6.653   0.231  15.018  0.8635  1.6962  0.8159
12128TIP3   OH257798   1.964   1.748   0.920 -0.2568  0.3515 -0.1738
12128TIP3    H157799   1.986   1.841   0.924  1.9377 -0.1059 -0.3193
12128TIP3    H257800   1.963   1.727   0.827 -0.1456  0.0935 -0.1173
12129TIP3   OH257801   2.483   6.159   0.476 -0.0645  0.0641 -0.0041
12129TIP3    H157802   2.566   6.189   0.513  0.3539 -1.5710  0.4746
12129TIP3    H257803   2.495   6.065   0.464 -1.5565 -0.0644 -0.7470
12130TIP3   OH257804   5.137   2.133  13.976  0.5439 -0.3199 -0.0167
12130TIP3    H157805   5.206   2.184  14.019  0.3299 -0.7708  0.8786
12130TIP3    H257806   5.178   2.050  13.954  0.3630 -0.4879  0.2749
12131TIP3   OH257807   6.156   0.031  14.662  0.4440 -0.1506  0.3378
12131TIP3    H157808   6.068   0.046  14.627  0.8588  1.3839 -0.1350
12131TIP3    H257809   6.150  -0.051  14.710 -1.8693  1.0511  2.3377
12132TIP3   OH257810   6.432   0.457  16.663 -0.2197  0.0680 -0.6780
12132TIP3    H157811   6.366   0.464  16.595 -0.6309 -1.2383 -0.4576
12132TIP3    H257812   6.457   0.364  16.662 -1.2134 -0.3091  1.7971
12133TIP3   OH257813   5.694   6.256  10.829  0.2556 -0.4619 -0.4194
12133TIP3    H157814   5.614   6.237  10.878 -0.6277 -0.0411 -1.6394
12133TIP3    H257815   5.717   6.174  10.787 -0.0329 -0.3705 -0.7576
12134TIP3   OH257816   1.339   5.618  15.748  0.6303 -0.3545  0.4379
12134TIP3    H157817   1.347   5.579  15.835  1.5485  2.5174  1.7306
12134TIP3    H257818   1.351   5.712  15.762  0.4542  0.2469 -2.7592
12135TIP3   OH257819   4.845   1.992  12.556  0.1154  0.4969  0.2651
12135TIP3    H157820   4.789   2.062  12.522  0.2744  1.6321  2.2197
12135TIP3    H257821   4.879   2.026  12.638 -0.2179 -2.0905  1.5652
12136TIP3   OH257822   2.941   0.333  13.047 -0.3417 -0.0481  0.1242
12136TIP3    H157823   3.036   0.347  13.052  0.0601 -2.6086  2.5847
12136TIP3    H257824   2.932   0.243  13.016 -2.0551  0.5360 -1.1949
12137TIP3   OH257825   4.142   5.527  15.563  0.0389  0.2801  0.5057
12137TIP3    H157826   4.162   5.598  15.624 -0.3134 -0.7496  1.8618
12137TIP3    H257827   4.195   5.453  15.593  0.4821 -0.0284 -0.9418
12138TIP3   OH257828   6.300   1.411   0.587 -0.2015 -0.4918 -0.1050
12138TIP3    H157829   6.361   1.340   0.609 -0.0450 -0.2206  0.3664
12138TIP3    H257830   6.235   1.370   0.531 -0.4724 -1.1738  0.6764
12139TIP3   OH257831   4.979   2.543   0.905  0.1773 -0.2505 -0.5457
12139TIP3    H157832   4.908   2.548   0.970  1.1341  0.7324  0.4635
12139TIP3    H257833   5.032   2.469   0.934  0.7861  0.3898  0.0027
12140TIP3   OH257834   4.206   3.252  16.013 -0.0841 -0.4099 -0.2447
12140TIP3    H157835   4.173   3.311  16.081  0.2694 -1.4320  0.8461
12140TIP3    H257836   4.219   3.169  16.058  0.6521 -0.9734 -1.4599
12141TIP3   OH257837   3.767   4.693  16.713 -0.5986  0.1505 -0.3327
12141TIP3    H157838   3.829   4.761  16.684 -1.0004  0.4270 -0.5465
12141TIP3    H257839   3.687   4.740  16.734 -1.4609 -0.4182 -2.1309
12142TIP3   OH257840   2.955   5.024  15.718  0.1166  0.0954 -0.2405
12142TIP3    H157841   2.899   5.094  15.683  1.5263  2.3762  1.7342
12142TIP3    H257842   3.011   5.000  15.644  1.8591  3.5595 -0.2864
12143TIP3   OH257843   0.105   0.744  15.169  0.7277  0.0396 -0.1516
12143TIP3    H157844   0.067   0.745  15.081  0.9180  0.5093 -0.2330
12143TIP3    H257845   0.038   0.703  15.223  1.8306 -3.1879 -1.0484
12144TIP3   OH257846   0.534   2.215  13.695 -0.2280 -0.0651  0.1613
12144TIP3    H157847   0.494   2.243  13.613  1.7653  0.0662 -0.8161
12144TIP3    H257848   0.626   2.202  13.674  0.2659 -0.4036  2.3021
12145TIP3   OH257849   6.044   1.307  16.480 -0.1125  0.6049  0.2103
12145TIP3    H157850   6.037   1.264  16.395 -0.4037  1.9306 -0.4692
12145TIP3    H257851   6.138   1.309  16.498 -0.1042 -0.3683  0.2983
12146TIP3   OH257852   5.283   2.307  11.541 -0.0801  0.4052 -0.1180
12146TIP3    H157853   5.270   2.214  11.564  1.9789  0.1313  0.0996
12146TIP3    H257854   5.235   2.355  11.609 -0.1267 -0.4875  0.4976
12147TIP3   OH257855   0.037   4.792  11.194 -0.2571  0.1498  0.0145
12147TIP3    H157856   0.019   4.853  11.122  1.5804  0.3983 -0.2799
12147TIP3    H257857   0.022   4.706  11.156  2.8165  0.1192 -1.4819
12148TIP3   OH257858   2.378   6.461   3.752 -1.4875  0.0385  0.1467
12148TIP3    H157859   2.406   6.432   3.839  1.0106  2.3667  0.2475
12148TIP3    H257860   2.407   6.392   3.693  0.4642  0.2618  0.7848
12149TIP3   OH257861   1.343   6.791   0.219 -0.3930  0.2665 -0.4340
12149TIP3    H157862   1.436   6.795   0.242 -0.2860  1.0536 -0.9673
12149TIP3    H257863   1.317   6.882   0.207 -1.7346  0.2063  1.5352
12150TIP3   OH257864   1.899   2.275  11.874 -0.0229  0.6524 -0.1887
12150TIP3    H157865   1.856   2.357  11.850 -1.8850 -0.1680  0.1520
12150TIP3    H257866   1.869   2.212  11.809 -1.1512 -0.4464  1.3198
12151TIP3   OH257867   2.232   1.846  11.342  0.3361 -0.0651  0.1859
12151TIP3    H157868   2.321   1.823  11.368  0.2861 -0.9763 -0.4287
12151TIP3    H257869   2.197   1.893  11.418  1.6722  1.2580  0.0414
12152TIP3   OH257870   4.968   0.907  17.048  0.1677  0.0663 -0.5062
12152TIP3    H157871   5.022   0.948  16.982  0.9324  1.3340  0.8491
12152TIP3    H257872   4.887   0.884  17.002  1.4274 -0.9749 -2.3313
12153TIP3   OH257873   6.806   5.748   0.837 -0.0102 -0.2377  0.2811
12153TIP3    H157874   6.731   5.691   0.821 -1.8624  1.3570  2.5817
12153TIP3    H257875   6.849   5.710   0.914 -0.3850  0.6043  0.9239
12154TIP3   OH257876   2.604   6.660  14.179 -0.0549 -0.3464  0.0713
12154TIP3    H157877   2.576   6.600  14.109 -0.1631 -1.1835  0.8211
12154TIP3    H257878   2.625   6.741  14.133 -0.1945 -0.8590 -0.9317
12155TIP3   OH257879   3.355   6.706   5.645 -0.3245  0.2921  0.0329
12155TIP3    H157880   3.348   6.707   5.740  1.0067  1.6390  0.1627
12155TIP3    H257881   3.379   6.616   5.623  0.8096  0.3055  1.1150
12156TIP3   OH257882   1.196   0.614  11.911  0.4925 -0.6119 -0.0156
12156TIP3    H157883   1.207   0.689  11.970  1.0469 -0.7347  0.0478
12156TIP3    H257884   1.131   0.559  11.954  0.6332 -0.5290  0.3097
12157TIP3   OH257885   2.648   0.822   0.370  0.2588  0.1603 -0.6136
12157TIP3    H157886   2.636   0.825   0.465 -0.3153  2.1121 -0.7087
12157TIP3    H257887   2.565   0.852   0.334  1.0497  1.1930 -1.6663
12158TIP3   OH257888   0.616   0.655   1.631 -0.1527  0.3418  0.4320
12158TIP3    H157889   0.621   0.740   1.587  3.5441  0.0535 -0.0323
12158TIP3    H257890   0.546   0.608   1.586 -0.5443  2.2149 -1.0397
12159TIP3   OH257891   4.757   4.933   4.615  0.2606 -0.5456  0.3888
12159TIP3    H157892   4.715   4.853   4.647  0.8055 -0.9839  0.0402
12159TIP3    H257893   4.697   4.967   4.549  0.4523 -1.1854 -0.1317
12160TIP3   OH257894   1.893   5.384  12.943  0.1921 -0.3181  0.1607
12160TIP3    H157895   1.849   5.307  12.906 -2.5195 -0.0728  2.5133
12160TIP3    H257896   1.830   5.455  12.930  1.8043  1.1059 -0.1750
12161TIP3   OH257897   4.783   4.147   1.684  0.3686  0.0034  0.0959
12161TIP3    H157898   4.740   4.083   1.741 -0.6125  0.2878 -0.3081
12161TIP3    H257899   4.768   4.231   1.726  0.9294  0.0693  0.1807
12162TIP3   OH257900   3.809   4.747   2.349 -0.5259 -0.0685 -0.6852
12162TIP3    H157901   3.802   4.655   2.322  2.8194 -1.2146  1.6416
12162TIP3    H257902   3.792   4.745   2.444 -0.8558  1.8345 -0.6670
12163TIP3   OH257903   1.991   4.970   1.630  0.1369  0.3851  0.4231
12163TIP3    H157904   1.959   4.967   1.540  1.5445  1.8125 -0.1630
12163TIP3    H257905   2.065   5.030   1.628  1.1335 -0.6803  2.2658
12164TIP3   OH257906   1.114   1.519   4.689 -0.2526  0.4266  0.1260
12164TIP3    H157907   1.196   1.562   4.662 -0.3511  3.8116  4.2196
12164TIP3    H257908   1.141   1.459   4.759 -1.1355  1.3138  1.2667
12165TIP3   OH257909   5.478   3.884  14.063  0.0539 -0.2077 -0.0330
12165TIP3    H157910   5.488   3.790  14.045 -0.6362 -0.6501  1.6844
12165TIP3    H257911   5.423   3.887  14.141  0.7762  1.6166  0.4403
12166TIP3   OH257912   3.827   4.925   1.329  0.4117  0.2421 -0.0835
12166TIP3    H157913   3.788   5.001   1.372  0.9168  0.6087 -0.2811
12166TIP3    H257914   3.921   4.934   1.343  0.3787 -1.6124  2.0374
12167TIP3   OH257915   6.431   6.451   2.724 -0.2938  0.1846 -0.0852
12167TIP3    H157916   6.418   6.452   2.818  1.7053  1.0665  0.2293
12167TIP3    H257917   6.434   6.543   2.699  1.3402  0.0189 -0.6369
12168TIP3   OH257918   2.009   6.589  11.179 -0.3433 -0.0495  0.4259
12168TIP3    H157919   2.025   6.516  11.240  1.4119  0.4985  0.6829
12168TIP3    H257920   2.096   6.626  11.164 -1.0563  1.2398 -0.6601
12169TIP3   OH257921   3.352   6.746   5.919 -0.3239 -0.0531 -0.2732
12169TIP3    H157922   3.318   6.693   5.991 -0.4084  1.2367  0.6814
12169TIP3    H257923   3.331   6.836   5.944  0.7577  0.5136 -1.3180
12170TIP3   OH257924   4.172   6.034   0.343  0.3943 -0.0128  0.0445
12170TIP3    H157925   4.265   6.056   0.338  0.3355  0.0278 -1.7766
12170TIP3    H257926   4.128   6.105   0.297 -0.5448 -0.0679  0.8201
12171TIP3   OH257927   3.807   0.749  12.437 -0.6333  0.3169  0.9037
12171TIP3    H157928   3.805   0.829  12.384 -2.4968 -0.4966 -0.3639
12171TIP3    H257929   3.734   0.759  12.499 -0.7498 -0.2932  0.8732
12172TIP3   OH257930   5.986   2.615  16.417 -0.3584 -0.2205  0.1514
12172TIP3    H157931   5.923   2.681  16.446 -0.3795 -0.2977  0.2791
12172TIP3    H257932   5.957   2.593  16.328 -0.2348  0.0852  0.0330
12173TIP3   OH257933   0.207   1.398   0.264 -0.1045 -0.6545  0.2032
12173TIP3    H157934   0.283   1.436   0.220 -0.0184 -2.1065 -0.9567
12173TIP3    H257935   0.241   1.320   0.308 -0.7380 -0.7443  0.5393
12174TIP3   OH257936   3.338   1.376   1.381  0.1739 -0.5333 -0.1079
12174TIP3    H157937   3.402   1.348   1.446 -1.1898 -0.8339  1.1705
12174TIP3    H257938   3.253   1.364   1.424 -0.8033 -0.8949 -2.0064
12175TIP3   OH257939   0.008   1.135   5.557 -0.1090 -0.5693  0.1155
12175TIP3    H157940   0.076   1.123   5.491  0.3005  0.1730  0.3845
12175TIP3    H257941  -0.045   1.056   5.552  0.2744 -0.7872 -0.6822
12176TIP3   OH257942   3.465   6.061  15.550  0.1443  0.6751 -0.5456
12176TIP3    H157943   3.376   6.027  15.549 -0.1063  1.3287 -0.5135
12176TIP3    H257944   3.520   5.983  15.560 -0.4979  0.4215  1.4276
12177TIP3   OH257945   1.715   6.297  13.173  0.4880  0.0594 -0.1415
12177TIP3    H157946   1.782   6.301  13.242 -0.2469  2.9501  0.5183
12177TIP3    H257947   1.738   6.368  13.113 -1.2975  0.3127 -0.5759
12178TIP3   OH257948   3.621   6.331  12.653  0.3870  0.0054  0.2623
12178TIP3    H157949   3.686   6.401  12.659  0.6053 -0.1935  0.2714
12178TIP3    H257950   3.632   6.282  12.735 -1.1902  1.1668  1.2335
12179TIP3   OH257951   2.429   5.325   2.708  0.3421  0.1018  0.2974
12179TIP3    H157952   2.418   5.239   2.748 -1.4553  1.3961  2.9283
12179TIP3    H257953   2.365   5.327   2.637  0.9204 -0.9550 -0.2743
12180TIP3   OH257954   1.102   2.093   4.157 -0.0936 -0.5236  0.2937
12180TIP3    H157955   1.035   2.058   4.099 -0.6231 -0.2365  0.7316
12180TIP3    H257956   1.119   2.182   4.124 -1.1194  0.0181  1.1709
12181TIP3   OH257957   0.556   5.357   4.848  0.2430 -0.2446 -0.9337
12181TIP3    H157958   0.532   5.282   4.794  0.9697 -1.1782  0.0053
12181TIP3    H257959   0.628   5.398   4.800 -0.3021  0.0035 -1.5617
12182TIP3   OH257960   0.387   5.641   5.565 -0.1644 -0.0561 -0.8787
12182TIP3    H157961   0.416   5.574   5.627  2.3458  1.1832 -0.5856
12182TIP3    H257962   0.363   5.716   5.620 -0.6952  0.1008 -1.3103
12183TIP3   OH257963   2.294   1.540   6.748  0.0586 -0.3738  0.3903
12183TIP3    H157964   2.326   1.460   6.708 -0.6197 -0.5257  0.1384
12183TIP3    H257965   2.209   1.556   6.707 -0.6582 -0.5243  1.7338
12184TIP3   OH257966   4.571   1.837   0.605  0.2360  0.5802 -0.3259
12184TIP3    H157967   4.530   1.787   0.534 -0.1028  0.2362  0.1050
12184TIP3    H257968   4.530   1.804   0.685  0.7338  0.8478  0.0493
12185TIP3   OH257969   5.814   2.644  16.776  0.0343 -0.0628  0.1418
12185TIP3    H157970   5.811   2.574  16.711 -0.8900  0.5393 -0.4807
12185TIP3    H257971   5.903   2.679  16.770 -0.0418 -0.0142 -0.7919
12186TIP3   OH257972   0.059   0.569  15.672 -0.7315  0.1749  0.0495
12186TIP3    H157973   0.031   0.500  15.733 -0.2833  1.1400  1.4023
12186TIP3    H257974   0.011   0.647  15.700  1.2580  1.2212  0.7400
12187TIP3   OH257975   1.187   1.038   2.167 -0.5716 -0.0650  0.2640
12187TIP3    H157976   1.273   1.049   2.127 -1.0772 -2.7671 -1.9020
12187TIP3    H257977   1.159   1.127   2.189  2.4449  0.9573  0.4367
12188TIP3   OH257978   4.420   1.449   3.961  0.3925  0.0634 -0.2945
12188TIP3    H157979   4.411   1.494   3.877 -0.9232 -0.4929 -0.4664
12188TIP3    H257980   4.335   1.461   4.004  0.7697 -0.3738  0.5979
12189TIP3   OH257981   0.927   5.465   4.024 -0.5758 -0.1419 -0.7701
12189TIP3    H157982   0.901   5.439   4.112  0.2556  0.9923 -0.1436
12189TIP3    H257983   0.849   5.504   3.986 -0.9107 -0.5278 -0.4801
12190TIP3   OH257984   1.962   4.034   3.976 -0.0190 -0.0004 -0.1896
12190TIP3    H157985   2.036   4.031   4.037 -1.2564 -0.4257  1.3280
12190TIP3    H257986   1.914   3.953   3.992 -0.0769 -0.4178 -2.1715
12191TIP3   OH257987   1.761   0.022   2.951  0.8866 -0.6310 -0.0462
12191TIP3    H157988   1.805   0.073   3.020 -1.1874 -0.3932  1.1965
12191TIP3    H257989   1.708  -0.042   2.999  0.1500 -1.1235 -1.4667
12192TIP3   OH257990   2.462   3.028   2.438 -0.5100  0.7144 -0.2912
12192TIP3    H157991   2.482   3.122   2.445  1.7212  0.2830 -0.2480
12192TIP3    H257992   2.503   2.989   2.516  0.6802 -0.5705 -1.4991
12193TIP3   OH257993   6.339   0.967  16.949 -0.0835  0.1782  0.4389
12193TIP3    H157994   6.423   0.922  16.940 -0.0829  0.3176 -0.3089
12193TIP3    H257995   6.290   0.943  16.871 -0.1670  1.2872  0.1378
12194TIP3   OH257996   2.586   5.856  14.498 -0.2834 -0.5650 -0.0633
12194TIP3    H157997   2.647   5.787  14.471 -0.0751 -0.6029  0.4910
12194TIP3    H257998   2.592   5.858  14.593  1.2644  1.6194 -0.1327
12195TIP3   OH257999   5.657   3.746  13.150  0.0533  0.5559  0.2543
12195TIP3    H158000   5.749   3.725  13.133  0.6972  2.0800  1.6606
12195TIP3    H258001   5.635   3.697  13.229  0.1800  1.4752  0.8752
12196TIP3   OH258002   6.230   3.464  13.996  0.1693 -0.5918 -0.2662
12196TIP3    H158003   6.195   3.420  13.919 -0.9677 -1.2453  0.5777
12196TIP3    H258004   6.294   3.402  14.032  1.2266  0.0129 -1.0420
12197TIP3   OH258005   4.956   4.271  12.044  0.6285 -0.0619 -0.1098
12197TIP3    H158006   4.980   4.336  12.110  1.2495  0.7042 -1.0550
12197TIP3    H258007   5.040   4.240  12.010  0.3413 -1.4418  0.3854
12198TIP3   OH258008   3.489   4.345   1.859 -0.1933 -0.2525  0.6740
12198TIP3    H158009   3.573   4.336   1.904 -0.7928 -1.6429  1.5889
12198TIP3    H258010   3.424   4.335   1.928 -1.1839  3.1795  0.4259
12199TIP3   OH258011   6.496   4.974  12.693  0.0292  0.0516  0.1500
12199TIP3    H158012   6.546   5.023  12.759 -0.0599  1.0716 -0.5104
12199TIP3    H258013   6.405   4.999  12.709 -0.1536 -0.9146  0.6282
12200TIP3   OH258014   6.353   2.143  13.700 -0.2422  0.7482 -0.1747
12200TIP3    H158015   6.336   2.188  13.617 -1.5307  0.8142  0.1035
12200TIP3    H258016   6.436   2.180  13.731  1.2536 -0.5766 -2.2925
12201TIP3   OH258017   6.245   2.712  12.529 -0.3038 -0.5886 -0.4109
12201TIP3    H158018   6.294   2.712  12.446 -0.3834 -0.9673 -0.4583
12201TIP3    H258019   6.275   2.633  12.574  1.0351  0.4870  0.6901
12202TIP3   OH258020   2.248   3.962  10.587 -0.6920 -0.7269 -0.5208
12202TIP3    H158021   2.262   3.878  10.631 -0.9516  1.0378  3.2156
12202TIP3    H258022   2.154   3.976  10.591 -0.6944 -0.3859 -1.4986
12203TIP3   OH258023   5.349   4.386  15.225  0.4177 -0.5375 -0.5172
12203TIP3    H158024   5.265   4.350  15.254  0.3182 -0.1352 -0.3023
12203TIP3    H258025   5.327   4.470  15.185  1.0588  1.3763  2.8218
12204TIP3   OH258026   3.361   0.640   3.568 -0.2835 -0.2043  0.0037
12204TIP3    H158027   3.389   0.573   3.505 -2.0310  0.3721 -1.4717
12204TIP3    H258028   3.437   0.653   3.624 -0.0563 -3.9793  0.8967
12205TIP3   OH258029   3.393   3.336   5.567 -0.2487  0.0563 -0.1859
12205TIP3    H158030   3.388   3.423   5.607  0.9490  0.5077 -0.9603
12205TIP3    H258031   3.339   3.343   5.488  1.6548  0.8437 -1.4810
12206TIP3   OH258032   5.031   5.547  11.127  0.4125  0.2922 -0.2932
12206TIP3    H158033   5.049   5.458  11.097  0.0540  0.0985  0.0602
12206TIP3    H258034   5.062   5.549  11.218  1.3869  0.8418 -0.6209
12207TIP3   OH258035   6.325   2.206  17.083 -0.1115  0.5297 -0.0076
12207TIP3    H158036   6.405   2.227  17.130 -0.1406 -0.1090  0.3312
12207TIP3    H258037   6.311   2.281  17.025 -0.5124  1.7221  1.5782
12208TIP3   OH258038   3.505   5.816  15.094  0.2105  0.1622  0.0299
12208TIP3    H158039   3.545   5.896  15.129 -0.6917  0.1717  1.1122
12208TIP3    H258040   3.427   5.803  15.148  0.0528 -1.1630 -0.4769
12209TIP3   OH258041   0.702   0.400   4.635 -0.4910  0.3058 -0.4531
12209TIP3    H158042   0.709   0.460   4.561 -1.5970  1.7803  0.5487
12209TIP3    H258043   0.613   0.365   4.629  0.6241 -2.5806 -1.9136
12210TIP3   OH258044   3.940   6.407  12.534  0.1346  0.0216  0.5247
12210TIP3    H158045   3.906   6.485  12.577  1.9691  0.9399  0.3917
12210TIP3    H258046   3.974   6.353  12.605  0.0200 -0.0611  0.5159
12211TIP3   OH258047   6.128   0.206  14.914 -0.6397 -0.1614 -0.2895
12211TIP3    H158048   6.051   0.258  14.891 -1.0001 -0.8261 -0.6125
12211TIP3    H258049   6.148   0.156  14.835  1.8446  2.0459 -1.1718
12212TIP3   OH258050   0.544   6.422  11.447 -0.4557 -0.5408  0.2175
12212TIP3    H158051   0.454   6.422  11.413 -0.9945 -1.5257  1.5445
12212TIP3    H258052   0.547   6.347  11.507  1.4029 -0.8244 -0.1566
12213TIP3   OH258053   0.216   5.497  15.089 -0.0893  0.4808 -0.1189
12213TIP3    H158054   0.163   5.567  15.051 -0.6422 -1.2904 -2.9183
12213TIP3    H258055   0.153   5.430  15.115  0.5676 -0.0062  0.2617
12214TIP3   OH258056   5.453   4.577  14.694  0.2869  0.4065  0.1687
12214TIP3    H158057   5.361   4.577  14.668  0.7608 -0.3453 -1.6115
12214TIP3    H258058   5.473   4.669  14.712 -0.4456  0.7774 -0.8508
12215TIP3   OH258059   0.617   5.272   3.713  0.1534  0.2344 -0.1840
12215TIP3    H158060   0.696   5.236   3.673  1.3584  1.9138  0.5915
12215TIP3    H258061   0.641   5.360   3.740 -1.5979  0.3332  1.2651
12216TIP3   OH258062   1.921   2.974  14.018 -0.0962  0.4426 -0.6727
12216TIP3    H158063   1.870   2.930  14.086  1.2525  0.0998  0.1538
12216TIP3    H258064   1.911   2.919  13.941  2.0288 -1.7469  0.4903
12217TIP3   OH258065   2.603   1.585  16.257  0.3620  0.0050  0.1051
12217TIP3    H158066   2.635   1.632  16.334 -0.0007 -0.5815  0.6270
12217TIP3    H258067   2.681   1.570  16.204  0.7526 -0.2832  0.7464
12218TIP3   OH258068   2.611   1.994  12.843 -0.1744 -0.9717 -0.9138
12218TIP3    H158069   2.679   1.999  12.910 -0.2595  1.2192 -0.9219
12218TIP3    H258070   2.660   1.989  12.760 -0.0532 -1.2089 -0.8289
12219TIP3   OH258071   5.120   3.115   6.240 -0.5443 -0.8053  0.2524
12219TIP3    H158072   5.030   3.133   6.265 -0.6608 -0.0103 -0.6725
12219TIP3    H258073   5.149   3.048   6.301 -1.3650 -0.2036  1.3333
12220TIP3   OH258074   6.528   3.761  12.572  0.7433  0.2992 -0.2909
12220TIP3    H158075   6.461   3.784  12.507 -0.6665 -0.1496  0.9562
12220TIP3    H258076   6.574   3.686  12.534 -0.8512 -0.7238 -0.2856
12221TIP3   OH258077   1.124   6.460  15.723  0.4165  0.0778 -0.7983
12221TIP3    H158078   1.124   6.480  15.817 -0.3972  0.1633 -0.8093
12221TIP3    H258079   1.129   6.364  15.720  2.5884  0.1413 -0.7208
12222TIP3   OH258080   3.352   5.850  14.210  0.3833  0.1662  0.4144
12222TIP3    H158081   3.294   5.798  14.266 -0.0549 -0.1454 -0.3010
12222TIP3    H258082   3.419   5.788  14.181 -0.4014 -0.1612 -0.8138
12223TIP3   OH258083   5.083   2.805  16.124 -0.5365  0.1685  0.2647
12223TIP3    H158084   5.012   2.751  16.160 -0.3690  0.1034  0.5005
12223TIP3    H258085   5.049   2.894  16.127 -0.0975  0.3147  1.6855
12224TIP3   OH258086   2.440   6.713  11.982 -0.2506 -0.0028  0.5516
12224TIP3    H158087   2.471   6.757  11.902  0.9015 -0.9280  0.4652
12224TIP3    H258088   2.486   6.758  12.052  0.4334 -0.6385  0.5141
12225TIP3   OH258089   2.030   3.089  12.104 -0.1440  0.1935  0.9196
12225TIP3    H158090   1.983   3.024  12.156 -1.5046 -1.9560 -2.6211
12225TIP3    H258091   2.105   3.042  12.068 -0.6317  0.7465 -0.9737
12226TIP3   OH258092   4.095   2.640   5.046 -0.0864 -0.9817 -0.7529
12226TIP3    H158093   4.052   2.683   5.120 -0.8556 -0.9383 -1.2159
12226TIP3    H258094   4.173   2.599   5.084  0.3877  0.3643 -0.2108
12227TIP3   OH258095   4.003   3.359  11.752 -0.2545 -0.1304 -0.0327
12227TIP3    H158096   3.932   3.319  11.702 -0.0469 -1.7708  0.8999
12227TIP3    H258097   3.982   3.453  11.753 -2.5398 -0.5821  0.3921
12228TIP3   OH258098   5.640   2.494   1.924  0.5184  0.2692 -0.0686
12228TIP3    H158099   5.723   2.531   1.954  0.5403 -0.2599  0.5296
12228TIP3    H258100   5.581   2.504   1.998  0.4253 -0.5782 -0.0207
12229TIP3   OH258101   3.445   2.784  12.104  0.3351 -0.0285 -0.0518
12229TIP3    H158102   3.372   2.737  12.145  0.0650  0.8019  0.4467
12229TIP3    H258103   3.460   2.860  12.161 -0.7058  1.7260 -1.9742
12230TIP3   OH258104   5.498   1.560   2.611  0.0012  0.2951 -0.0029
12230TIP3    H158105   5.434   1.490   2.625  0.8010 -0.2530  1.1214
12230TIP3    H258106   5.447   1.633   2.575 -1.5538  0.3769  2.1615
12231TIP3   OH258107   5.268   3.544  16.312 -0.7827 -0.1935  0.1288
12231TIP3    H158108   5.268   3.487  16.235  1.1909 -0.1447  0.0297
12231TIP3    H258109   5.216   3.620  16.287 -1.0514 -0.6601 -0.7611
12232TIP3   OH258110   0.552   2.116  14.592  0.2614  0.3870  0.1080
12232TIP3    H158111   0.472   2.075  14.624  0.5064 -0.0177  0.2101
12232TIP3    H258112   0.619   2.048  14.601  0.4251  0.4098 -0.8613
12233TIP3   OH258113   3.249   0.150   4.160 -0.3645  0.3931 -0.0032
12233TIP3    H158114   3.266   0.152   4.254 -0.5721 -0.2274  0.0529
12233TIP3    H258115   3.165   0.195   4.150 -1.2483 -1.0901  0.3339
12234TIP3   OH258116   2.072   2.340  16.421  0.1735  0.0472  0.4346
12234TIP3    H158117   2.067   2.429  16.456 -0.5850  0.2029 -0.0454
12234TIP3    H258118   2.043   2.284  16.493  1.9315  0.0520  1.1949
12235TIP3   OH258119   2.714   0.285   3.961 -0.2484 -0.3186 -0.7596
12235TIP3    H158120   2.694   0.376   3.980  0.8912 -0.6763  2.8986
12235TIP3    H258121   2.808   0.277   3.975 -0.4883 -2.2469  0.1641
12236TIP3   OH258122   3.705   6.334   1.395  0.1788  0.1589  0.4286
12236TIP3    H158123   3.678   6.244   1.414 -0.6687  0.5574  1.1455
12236TIP3    H258124   3.760   6.360   1.469  0.0285  0.4008  0.4562
12237TIP3   OH258125   5.378   2.779   0.648  0.2049 -0.2711 -0.2088
12237TIP3    H158126   5.388   2.743   0.560 -0.5916 -0.6273 -0.1561
12237TIP3    H258127   5.346   2.706   0.701 -0.6729  0.3043  0.0706
12238TIP3   OH258128   4.880   2.134  13.888 -0.2270 -0.4385  0.2147
12238TIP3    H158129   4.967   2.124  13.926 -0.5266 -0.8396  0.8197
12238TIP3    H258130   4.895   2.178  13.805  0.4180  0.8071  0.9562
12239TIP3   OH258131   2.906   1.215   0.663 -0.0518  0.0703  0.5528
12239TIP3    H158132   2.870   1.126   0.659  0.4036 -0.0968  0.0392
12239TIP3    H258133   2.829   1.272   0.660 -0.2599 -0.2488 -1.6660
12240TIP3   OH258134   6.646   5.523   3.041  0.0673  0.0756  0.0872
12240TIP3    H158135   6.687   5.464   3.105 -1.7661  0.0473  1.3380
12240TIP3    H258136   6.629   5.603   3.091 -0.6102  0.3782 -0.6136
12241TIP3   OH258137   2.185   4.223   2.272  0.4944  0.5596 -0.0743
12241TIP3    H158138   2.108   4.169   2.289 -0.9141  2.6020  0.3086
12241TIP3    H258139   2.207   4.262   2.356  1.1306  1.0514 -0.4567
12242TIP3   OH258140   4.848   1.758  13.185  0.8556  0.3445  0.5277
12242TIP3    H158141   4.920   1.703  13.155 -1.5856 -1.8579 -1.8322
12242TIP3    H258142   4.831   1.817  13.111 -1.1784 -0.7986 -0.0006
12243TIP3   OH258143   6.304   6.718   6.068 -0.6271  0.4882 -0.0072
12243TIP3    H158144   6.370   6.678   6.124 -1.4971 -2.1301 -0.6972
12243TIP3    H258145   6.243   6.760   6.128 -0.0075  0.2222  0.8167
12244TIP3   OH258146   2.812   5.795  11.977  0.0246 -0.3058  0.2566
12244TIP3    H158147   2.743   5.843  12.022  0.5601  0.3071  0.4496
12244TIP3    H258148   2.784   5.793  11.886 -0.1084  0.2143  0.2774
12245TIP3   OH258149   4.979   3.254  11.972  0.2251  0.2124  0.0515
12245TIP3    H158150   4.887   3.239  11.951  0.1093  1.3685 -0.3651
12245TIP3    H258151   5.016   3.295  11.894  1.0872 -0.1871  0.2302
12246TIP3   OH258152   6.348   6.523   4.584  0.2629 -0.4069 -0.4652
12246TIP3    H158153   6.315   6.433   4.581 -0.9505 -0.1683  2.1849
12246TIP3    H258154   6.428   6.522   4.532  0.1393 -2.9690 -0.7046
12247TIP3   OH258155   5.457   3.487   1.236  0.2694  0.1700  0.6529
12247TIP3    H158156   5.462   3.519   1.146  1.3705 -0.9430  0.2947
12247TIP3    H258157   5.442   3.566   1.288  0.2726  0.9129 -0.4394
12248TIP3   OH258158   0.911   4.798   2.887 -0.0089 -0.8180 -0.2627
12248TIP3    H158159   0.984   4.792   2.825 -0.4987  1.0274 -1.0860
12248TIP3    H258160   0.947   4.845   2.963  0.1659 -1.6687  0.1925
12249TIP3   OH258161   0.861   5.692   6.034  0.2730  0.2507 -0.1260
12249TIP3    H158162   0.937   5.750   6.048  0.9177 -0.6756  0.3444
12249TIP3    H258163   0.831   5.713   5.946 -0.7061  2.6510  0.6949
12250TIP3   OH258164   2.230   4.786  12.239  0.5408  0.5163  0.4924
12250TIP3    H158165   2.283   4.748  12.169  0.2979  0.3824  0.3796
12250TIP3    H258166   2.224   4.716  12.305  1.4524  0.9207  1.0200
12251TIP3   OH258167   0.180   4.570   2.752 -0.1475  0.6955  0.4035
12251TIP3    H158168   0.086   4.560   2.763 -0.0649 -0.9846 -0.1960
12251TIP3    H258169   0.197   4.539   2.663  0.9384  1.2799  0.3896
12252TIP3   OH258170   0.363   4.316  16.491 -0.2382 -0.5281 -0.1708
12252TIP3    H158171   0.423   4.388  16.475 -1.5002  0.7960  0.7631
12252TIP3    H258172   0.335   4.288  16.404  0.8332 -0.4070 -0.5719
12253TIP3   OH258173   3.480   3.866   5.126 -0.0104  0.2681 -0.2549
12253TIP3    H158174   3.501   3.819   5.206  0.3577  1.1747  0.1928
12253TIP3    H258175   3.422   3.807   5.078 -1.9303  0.5352  1.5882
12254TIP3   OH258176   2.918   2.615   5.984 -0.2022  0.0028  0.7433
12254TIP3    H158177   2.952   2.661   5.907 -0.1214 -0.2409  0.6286
12254TIP3    H258178   2.833   2.581   5.956  0.0009 -0.4261  0.6239
12255TIP3   OH258179   3.304   2.999   0.032  0.1157  0.3852 -0.9767
12255TIP3    H158180   3.367   2.971  -0.034 -1.8029  0.1931 -2.8280
12255TIP3    H258181   3.253   3.068  -0.011 -3.0029 -1.6031 -0.7879
12256TIP3   OH258182   5.423   4.913  14.035  0.4861 -0.3860  0.3162
12256TIP3    H158183   5.463   4.931  13.951  1.8884 -3.0848  0.2898
12256TIP3    H258184   5.493   4.929  14.099  0.2901 -0.9648  0.6860
12257TIP3   OH258185   6.431   0.763  12.511  0.1250 -0.0529 -0.1311
12257TIP3    H158186   6.521   0.730  12.502 -0.7518 -2.3897 -1.2709
12257TIP3    H258187   6.429   0.842  12.457  1.1755 -0.7281 -1.2184
12258TIP3   OH258188   6.224   5.445  16.895  0.2594 -0.0641 -0.1516
12258TIP3    H158189   6.293   5.487  16.946 -3.3099  4.1325  1.9186
12258TIP3    H258190   6.229   5.489  16.810  0.7831 -0.6180 -0.4160
12259TIP3   OH258191   2.330   1.258  14.230  0.6292 -0.0276 -0.4542
12259TIP3    H158192   2.310   1.165  14.237 -0.1257  0.0959 -0.8357
12259TIP3    H258193   2.303   1.295  14.315  1.1062 -0.1826 -0.2327
12260TIP3   OH258194   3.240   4.342   0.570 -0.1424 -0.2746 -0.2111
12260TIP3    H158195   3.209   4.270   0.625  0.4649  0.5572  1.3009
12260TIP3    H258196   3.216   4.421   0.619  2.1094  0.4607 -0.1820
12261TIP3   OH258197   0.806   2.689   1.150 -0.1358 -0.5322 -0.3787
12261TIP3    H158198   0.742   2.638   1.200 -0.7788 -1.0025 -1.6479
12261TIP3    H258199   0.754   2.736   1.085  0.8271 -1.1534 -1.6212
12262TIP3   OH258200   4.684   4.234  12.877 -0.0160  0.0229  0.1654
12262TIP3    H158201   4.630   4.158  12.897  1.2978 -0.9518  0.1549
12262TIP3    H258202   4.768   4.215  12.918  0.5431  1.1764 -0.3981
12263TIP3   OH258203   1.185   2.881  14.108  0.9491 -0.3002  0.0981
12263TIP3    H158204   1.115   2.824  14.141  1.2181 -0.1963  0.8877
12263TIP3    H258205   1.152   2.970  14.122  1.9603 -0.1888  2.2816
12264TIP3   OH258206   5.567   6.513  13.935 -0.0831  0.0018 -0.0257
12264TIP3    H158207   5.586   6.584  13.873 -1.2701  0.7572  0.4516
12264TIP3    H258208   5.646   6.507  13.988  0.3891  0.3316 -0.6694
12265TIP3   OH258209   3.777   1.810   5.690  0.5811 -0.4652  0.5782
12265TIP3    H158210   3.872   1.820   5.697  0.5429 -0.9511  2.5275
12265TIP3    H258211   3.741   1.892   5.726  0.2927 -1.1002  1.7944
12266TIP3   OH258212   0.982   1.559   4.437  0.5140  0.3104 -0.5956
12266TIP3    H158213   0.993   1.512   4.520 -0.4825  1.4176  0.2013
12266TIP3    H258214   0.994   1.492   4.370  2.3993 -0.4138  0.3891
12267TIP3   OH258215   0.049   6.565   0.736 -0.2098  0.7487  0.0694
12267TIP3    H158216  -0.004   6.639   0.707  0.7309  1.5139  0.2529
12267TIP3    H258217   0.097   6.598   0.812 -0.0016 -0.1466  0.3395
12268TIP3   OH258218   2.909   2.296  14.271  0.4827 -0.7218 -0.4639
12268TIP3    H158219   2.984   2.350  14.247 -0.3323  0.7217  0.0933
12268TIP3    H258220   2.891   2.244  14.193  0.4675  0.7996 -1.5212
12269TIP3   OH258221   5.073   0.941   2.392  0.1503  0.4552  0.8991
12269TIP3    H158222   5.134   0.878   2.353  0.2173  0.5527  0.8487
12269TIP3    H258223   5.042   0.897   2.471 -1.5854 -0.6526 -0.3082
12270TIP3   OH258224   2.517   2.441  10.822 -0.2910 -0.3845  0.0010
12270TIP3    H158225   2.564   2.403  10.748 -0.1434 -0.2532  0.0271
12270TIP3    H258226   2.430   2.402  10.818  0.3311 -1.9807  0.9724
12271TIP3   OH258227   1.840   5.091  14.957  0.2763 -0.8992 -0.3334
12271TIP3    H158228   1.757   5.132  14.934  0.6066  0.1837  0.3179
12271TIP3    H258229   1.888   5.087  14.875  0.5891  0.9066 -0.2909
12272TIP3   OH258230   6.188   0.278   3.748  0.4824 -0.5841 -0.4871
12272TIP3    H158231   6.224   0.286   3.660  0.4180 -1.2554 -0.5836
12272TIP3    H258232   6.200   0.186   3.770  0.3603 -0.4506  0.1463
12273TIP3   OH258233   3.282   4.620  15.275  0.6480  0.1121  0.6253
12273TIP3    H158234   3.358   4.673  15.296 -0.5315  1.2923  2.2085
12273TIP3    H258235   3.245   4.660  15.196  0.6759  0.6362  0.8766
12274TIP3   OH258236   2.867   3.651   0.582  0.1772  0.1029  0.3089
12274TIP3    H158237   2.896   3.737   0.551  0.3278  0.7935  2.2680
12274TIP3    H258238   2.792   3.669   0.637  0.9207 -0.8930  1.7127
12275TIP3   OH258239   1.592   6.767   4.979 -0.3994 -0.0634 -0.2071
12275TIP3    H158240   1.536   6.701   5.019 -0.6531  0.4281  0.2659
12275TIP3    H258241   1.568   6.766   4.886 -3.1479  1.9664  0.3706
12276TIP3   OH258242   5.323   2.028  15.291 -0.6496 -0.6673  0.3735
12276TIP3    H158243   5.351   2.026  15.199 -0.3220 -0.7214  0.4735
12276TIP3    H258244   5.313   2.121  15.311 -0.0836 -0.6268  0.4745
12277TIP3   OH258245   2.612   0.324   0.362  0.0332 -0.3570 -0.9293
12277TIP3    H158246   2.650   0.267   0.429  1.4485 -0.4728 -1.7962
12277TIP3    H258247   2.551   0.379   0.410  0.9649 -0.4794  0.4585
12278TIP3   OH258248   0.492   2.199  15.230 -0.2992 -0.3777  0.0811
12278TIP3    H158249   0.547   2.255  15.175  1.9801 -1.5613  1.0269
12278TIP3    H258250   0.454   2.259  15.295  0.0714  0.4401 -0.4403
12279TIP3   OH258251   3.296   1.124   3.570  0.5831  0.1887  0.3432
12279TIP3    H158252   3.206   1.094   3.583 -1.0958  4.1639 -0.6452
12279TIP3    H258253   3.317   1.100   3.479  2.0367 -3.7353  1.4963
12280TIP3   OH258254   5.553   4.797  13.370 -0.0509 -0.4334 -0.4397
12280TIP3    H158255   5.475   4.754  13.405  0.0890 -2.5786 -2.5260
12280TIP3    H258256   5.622   4.731  13.377  1.0238  0.6154 -0.7517
12281TIP3   OH258257   2.629   6.741   5.299  0.0163  0.6726 -0.0443
12281TIP3    H158258   2.586   6.793   5.232 -0.2630  0.6031  0.0789
12281TIP3    H258259   2.697   6.693   5.252 -0.2995  0.4818 -0.3111
12282TIP3   OH258260   6.259   5.209  16.328  0.5976 -0.1680  0.3069
12282TIP3    H158261   6.225   5.298  16.320 -1.6247 -0.8519  1.2549
12282TIP3    H258262   6.228   5.179  16.414  1.9333 -1.6047  0.3384
12283TIP3   OH258263   1.622   3.370   0.881  0.1600 -0.1672 -0.1444
12283TIP3    H158264   1.569   3.295   0.855 -1.0288 -0.6113  3.0972
12283TIP3    H258265   1.595   3.440   0.821 -2.3789 -1.0195 -0.1176
12284TIP3   OH258266   2.238   0.424  14.910  0.1885  0.2620 -0.5438
12284TIP3    H158267   2.266   0.461  14.994  0.5274 -0.9560 -0.0996
12284TIP3    H258268   2.159   0.374  14.930  2.3840 -3.4019 -0.0317
12285TIP3   OH258269   4.380   5.713  13.787 -0.7839 -0.1611 -0.7415
12285TIP3    H158270   4.362   5.629  13.828  0.3224 -1.0232 -1.9336
12285TIP3    H258271   4.294   5.751  13.771 -1.2709 -0.5861  0.7154
12286TIP3   OH258272   4.984   5.756   4.643 -0.0935  0.0956  0.0214
12286TIP3    H158273   4.921   5.798   4.585  0.5113 -2.8895 -3.1254
12286TIP3    H258274   4.941   5.677   4.674  0.5068  0.3935  1.7932
12287TIP3   OH258275   6.788   0.555  13.667 -0.3699  0.3847 -0.6306
12287TIP3    H158276   6.735   0.558  13.588  0.9213  2.8455 -1.4910
12287TIP3    H258277   6.875   0.584  13.640  0.4698  0.0312  1.4436
12288TIP3   OH258278   1.391   3.410   5.791 -0.3472  0.3792  0.1553
12288TIP3    H158279   1.394   3.373   5.703  0.2605 -1.6299  0.9816
12288TIP3    H258280   1.480   3.444   5.806 -0.2346  0.0236  0.2867
12289TIP3   OH258281   2.845   5.644   1.819  0.0238  0.5616 -0.6083
12289TIP3    H158282   2.914   5.666   1.881  0.1961 -0.5165 -0.3868
12289TIP3    H258283   2.798   5.726   1.805  0.1152  0.8773  0.7748
12290TIP3   OH258284   3.100   4.292  17.037  0.5746 -0.0515 -0.0093
12290TIP3    H158285   3.159   4.301  16.963  0.2262  1.2863 -0.1516
12290TIP3    H258286   3.065   4.380  17.051  0.2137 -0.3818  1.3924
12291TIP3   OH258287   4.969   4.583  16.747  0.5344 -0.5328 -0.0811
12291TIP3    H158288   5.006   4.574  16.835 -1.4631 -0.8745  0.7860
12291TIP3    H258289   4.904   4.653  16.756  0.0823 -0.7906 -1.2099
12292TIP3   OH258290   1.617   2.140  15.849 -0.4008 -0.4754  0.5698
12292TIP3    H158291   1.649   2.072  15.907  1.1903 -0.5510 -0.3379
12292TIP3    H258292   1.671   2.217  15.870  2.3402 -1.2584 -2.6468
12293TIP3   OH258293   4.356   6.393   6.007  0.2771 -0.3687 -0.3374
12293TIP3    H158294   4.368   6.444   6.086 -1.5927 -1.6354  0.8395
12293TIP3    H258295   4.417   6.319   6.016  0.9792  0.1461 -0.7260
12294TIP3   OH258296   5.808   5.074   2.932  0.4236 -0.0096 -0.0819
12294TIP3    H158297   5.751   5.048   2.859  0.9196 -1.5425  0.0230
12294TIP3    H258298   5.886   5.020   2.921  0.5808 -0.1501  1.4850
12295TIP3   OH258299   0.442   0.668  14.204 -0.4873  0.1104  0.0621
12295TIP3    H158300   0.482   0.581  14.210 -1.2673 -0.3655 -1.3368
12295TIP3    H258301   0.495   0.722  14.264  0.0932 -1.2713  0.8519
12296TIP3   OH258302   1.065   4.472  16.686  1.3413  0.3556  0.0005
12296TIP3    H158303   1.088   4.490  16.595 -1.1531 -0.8473 -0.9601
12296TIP3    H258304   1.077   4.555  16.731  2.7401  0.9416 -1.3734
12297TIP3   OH258305   6.086   1.421   4.604 -0.4888 -0.1566 -0.1810
12297TIP3    H158306   6.079   1.330   4.633 -2.7212 -0.2903 -0.9672
12297TIP3    H258307   6.074   1.472   4.683 -1.8580 -0.5451 -0.1216
12298TIP3   OH258308   5.433   1.409   0.448 -0.3137  0.3586  0.7135
12298TIP3    H158309   5.360   1.372   0.497 -0.4367 -1.6990 -0.8922
12298TIP3    H258310   5.399   1.422   0.360  0.8068  0.8886  0.3370
12299TIP3   OH258311   6.416   2.497   3.493  0.2337  0.4636  0.1894
12299TIP3    H158312   6.377   2.520   3.578  2.6753  1.2388  1.1815
12299TIP3    H258313   6.413   2.579   3.443  1.0298  0.6669  0.4653
12300TIP3   OH258314   0.994   3.047   5.660  0.1099  0.2535 -0.3615
12300TIP3    H158315   1.028   2.995   5.587 -1.4720 -0.2298 -0.7958
12300TIP3    H258316   0.916   2.999   5.690  0.5180  0.6212  1.4343
12301TIP3   OH258317   1.849   3.943  14.865  0.4384 -0.2079  0.5939
12301TIP3    H158318   1.807   3.860  14.884 -1.3909  0.3000 -0.9447
12301TIP3    H258319   1.788   4.009  14.898  0.5714  0.5318 -0.5589
12302TIP3   OH258320   4.250   0.720   2.525  0.1126 -0.3609  0.1329
12302TIP3    H158321   4.320   0.765   2.477  1.2720  0.1396  2.2110
12302TIP3    H258322   4.237   0.773   2.603  1.2308 -3.3254  2.4870
12303TIP3   OH258323   5.265   0.059  15.033  0.5685 -0.2186 -0.4446
12303TIP3    H158324   5.230  -0.004  15.095  2.9202 -0.3995  0.8001
12303TIP3    H258325   5.235   0.144  15.066  2.0119 -0.2877  1.1605
12304TIP3   OH258326   5.675   1.732   5.200  0.6664  0.2809  0.2197
12304TIP3    H158327   5.667   1.764   5.290  2.0705 -1.0059  0.8556
12304TIP3    H258328   5.769   1.716   5.189  0.3904 -0.5419 -1.1437
12305TIP3   OH258329   2.807   2.310   4.520 -0.0333  0.0560 -0.0792
12305TIP3    H158330   2.784   2.335   4.609 -0.0943  0.6267 -0.2509
12305TIP3    H258331   2.892   2.265   4.529 -1.0399 -1.8428  0.5212
12306TIP3   OH258332   6.808   1.737  16.671  0.4107  0.5687  0.3434
12306TIP3    H158333   6.800   1.781  16.586  2.7987  1.3774  0.4479
12306TIP3    H258334   6.723   1.747  16.712 -0.4094  1.2814 -1.4325
12307TIP3   OH258335   4.340   1.973  16.990 -0.2457 -0.1358 -0.1716
12307TIP3    H158336   4.305   1.988  16.903 -0.2251 -0.3374 -0.2133
12307TIP3    H258337   4.276   2.013  17.049 -0.0126  0.4491 -0.3009
12308TIP3   OH258338   0.800   0.365   3.734  0.0441 -0.3368  0.4960
12308TIP3    H158339   0.813   0.405   3.820 -1.7021 -0.8461  1.0457
12308TIP3    H258340   0.720   0.407   3.700  1.0132  0.2661 -1.1565
12309TIP3   OH258341   6.522   4.459  12.895  0.1987  0.2361  0.1700
12309TIP3    H158342   6.600   4.507  12.921  0.5566 -1.2402  1.9849
12309TIP3    H258343   6.449   4.513  12.927  0.4689  1.0381 -0.5137
12310TIP3   OH258344   1.403   1.985   2.506  0.2184 -0.4499 -0.1652
12310TIP3    H158345   1.390   1.966   2.599 -1.3491 -0.7444 -0.4215
12310TIP3    H258346   1.398   2.080   2.500  2.4856 -0.2426  0.3231
12311TIP3   OH258347   6.790   4.059   2.662  0.1353  0.0987 -0.0457
12311TIP3    H158348   6.821   3.970   2.674 -0.9048 -0.1932  0.6433
12311TIP3    H258349   6.757   4.085   2.749 -1.7413  0.2809 -0.7520
12312TIP3   OH258350   1.275   5.959   2.068 -0.1643  0.2129  0.4564
12312TIP3    H158351   1.215   6.020   2.113 -1.0998 -0.4723  0.1613
12312TIP3    H258352   1.217   5.902   2.018  0.4399 -2.6424  2.7564
12313TIP3   OH258353   6.606   2.036  14.687 -0.1567  0.0118  0.6066
12313TIP3    H158354   6.596   2.129  14.709  1.1481  0.6096 -1.1783
12313TIP3    H258355   6.695   2.014  14.716  0.6655  0.1638 -1.5946
12314TIP3   OH258356   4.365   6.470  12.592 -0.1488 -0.6391  0.0876
12314TIP3    H158357   4.314   6.523  12.654  0.3947 -1.1992  1.0412
12314TIP3    H258358   4.317   6.388  12.585 -0.1606 -0.6103 -0.1620
12315TIP3   OH258359   3.334   6.467  11.254 -0.6592  0.3769  0.3409
12315TIP3    H158360   3.356   6.447  11.163  0.9432  1.4380  0.4568
12315TIP3    H258361   3.307   6.383  11.291 -1.0137 -0.1305 -1.0161
12316TIP3   OH258362   3.469   4.136   0.850  0.8239 -0.0580  0.7055
12316TIP3    H158363   3.410   4.063   0.865  0.4823 -0.3566 -1.6883
12316TIP3    H258364   3.434   4.207   0.905  1.7226 -1.8431  3.8109
12317TIP3   OH258365   4.584   1.917   4.531  0.2098  0.1799  0.3484
12317TIP3    H158366   4.655   1.898   4.470  0.5158 -0.1876  0.8078
12317TIP3    H258367   4.614   1.995   4.579 -0.0138  0.4469  0.0537
12318TIP3   OH258368   2.231   4.723  11.713  0.6823  0.1037  0.0523
12318TIP3    H158369   2.324   4.744  11.714  0.3789  1.5544  1.4261
12318TIP3    H258370   2.202   4.749  11.626  1.2210  1.3904  0.2286
12319TIP3   OH258371   2.383   3.069   5.241  0.5909 -0.2447  0.5365
12319TIP3    H158372   2.295   3.104   5.231 -0.2213 -1.7458  1.9669
12319TIP3    H258373   2.437   3.145   5.260 -0.5600  0.5783  0.6247
12320TIP3   OH258374   1.633   5.644   1.611  0.2046  0.2627  0.5468
12320TIP3    H158375   1.585   5.569   1.576  1.0288 -0.2985  0.5998
12320TIP3    H258376   1.707   5.656   1.552 -0.4795  1.7163 -0.0757
12321TIP3   OH258377   2.083   3.701  12.576  0.1170  0.3255  0.3493
12321TIP3    H158378   2.165   3.672  12.536  1.1521  1.2855  1.6776
12321TIP3    H258379   2.048   3.766  12.515  2.4428  2.9091  1.5623
12322TIP3   OH258380   4.029   5.215   0.218 -0.0485  0.2651  0.9708
12322TIP3    H158381   4.107   5.167   0.245 -1.8643 -2.8518  1.2768
12322TIP3    H258382   4.006   5.269   0.294  0.4487 -0.7431  1.8773
12323TIP3   OH258383   0.286   0.780   5.676 -0.1097 -0.0147 -0.2370
12323TIP3    H158384   0.263   0.710   5.738 -0.0140 -0.1259 -0.3275
12323TIP3    H258385   0.332   0.735   5.605  0.5650  0.2281  0.0372
12324TIP3   OH258386   4.667   3.334  12.608 -0.3017 -0.1551  0.0593
12324TIP3    H158387   4.605   3.406  12.603 -0.4537 -0.3450 -1.1296
12324TIP3    H258388   4.715   3.337  12.525  1.2919 -0.0113  0.9390
12325TIP3   OH258389   6.079   2.683  16.676 -0.1427  0.1788  0.2301
12325TIP3    H158390   6.169   2.691  16.646  0.7979 -1.9768  2.2004
12325TIP3    H258391   6.038   2.623  16.614  0.1970  0.0736  0.1030
12326TIP3   OH258392   5.842   5.566  13.167 -0.7322 -0.2093 -0.5944
12326TIP3    H158393   5.909   5.509  13.129  0.4961  1.2285 -0.7238
12326TIP3    H258394   5.871   5.580  13.257 -1.8762 -1.0126 -0.0767
12327TIP3   OH258395   0.004   4.067  16.295 -0.2893  0.3186 -0.0652
12327TIP3    H158396  -0.016   4.000  16.230 -0.9276  0.8356 -0.4049
12327TIP3    H258397  -0.036   4.034  16.376  1.4361 -0.8612  0.3681
12328TIP3   OH258398   3.348   2.775  13.512  0.1650 -0.1065  0.1645
12328TIP3    H158399   3.348   2.861  13.470  0.1466  0.9045  2.0975
12328TIP3    H258400   3.362   2.713  13.441 -1.0573  1.3938 -1.4863
12329TIP3   OH258401   0.643   2.049   2.739  0.0159  0.4435 -0.3898
12329TIP3    H158402   0.563   2.015   2.699  1.2025 -0.4712 -2.0936
12329TIP3    H258403   0.681   2.107   2.674  0.8194  0.7493  0.3271
12330TIP3   OH258404   3.242   3.905  11.653  0.9704  0.1162  0.2761
12330TIP3    H158405   3.180   3.836  11.630  0.2319  0.4492  1.2126
12330TIP3    H258406   3.217   3.932  11.741  2.2315  0.5126  0.5334
12331TIP3   OH258407   0.272   0.307   0.343 -0.1168 -0.1438  0.0569
12331TIP3    H158408   0.280   0.295   0.249 -0.9845  0.1108 -0.0525
12331TIP3    H258409   0.292   0.221   0.380  1.8837  0.1320 -0.2380
12332TIP3   OH258410   3.078   4.464  12.016 -0.3616 -1.1158 -0.1639
12332TIP3    H158411   3.080   4.374  12.049 -0.4467 -1.1192 -0.1678
12332TIP3    H258412   3.166   4.499  12.035 -0.0935 -1.4296 -0.8156
12333TIP3   OH258413   0.474   6.170   4.263 -0.5061  0.5856 -0.5171
12333TIP3    H158414   0.431   6.230   4.324  1.8425  1.4044  0.4361
12333TIP3    H258415   0.558   6.211   4.243 -0.2539 -0.7626 -2.5672
12334TIP3   OH258416   2.277   2.512  10.528 -0.4414  0.4557  0.1870
12334TIP3    H158417   2.220   2.435  10.526 -0.3989  0.4326 -1.2179
12334TIP3    H258418   2.303   2.521  10.619 -2.5611  0.3591  0.8472
12335TIP3   OH258419   2.639   6.314   0.926  0.3444  0.1926  0.4316
12335TIP3    H158420   2.669   6.232   0.965 -0.1523  0.3336  1.1204
12335TIP3    H258421   2.650   6.379   0.996  3.8141  1.4334 -1.0099
12336TIP3   OH258422   4.520   3.528   5.171 -0.6361  0.4891 -0.5728
12336TIP3    H158423   4.491   3.453   5.224  0.0771  1.0388  0.6426
12336TIP3    H258424   4.615   3.522   5.172 -0.5926  1.1153 -0.9171
12337TIP3   OH258425   3.941   4.876   2.607 -0.0904 -0.0886 -0.2343
12337TIP3    H158426   3.951   4.783   2.589  2.0094  0.1180 -0.3665
12337TIP3    H258427   4.025   4.915   2.581 -0.3105  1.5935  1.3535
12338TIP3   OH258428   6.530   0.292   4.448 -0.3943  0.2639  0.1110
12338TIP3    H158429   6.447   0.326   4.413  0.4639  1.7657 -0.5568
12338TIP3    H258430   6.597   0.351   4.413  0.9182 -0.6128  1.0510
12339TIP3   OH258431   4.041   5.366  13.410  0.0959 -0.1214  0.2095
12339TIP3    H158432   3.963   5.315  13.391 -0.8638  1.7346 -1.2203
12339TIP3    H258433   4.081   5.323  13.485 -1.8124 -1.6345  0.4271
12340TIP3   OH258434   5.405   0.556  14.390  0.3528  0.2844 -0.5882
12340TIP3    H158435   5.348   0.506  14.331  0.8947 -0.2715 -0.6462
12340TIP3    H258436   5.479   0.583  14.335  0.8442 -0.2058 -0.1830
12341TIP3   OH258437   1.498   5.502   0.016 -0.1060  0.0256 -0.3316
12341TIP3    H158438   1.463   5.451  -0.056 -0.0470  0.4936 -0.6925
12341TIP3    H258439   1.421   5.531   0.065 -0.1823  0.3616 -0.6513
12342TIP3   OH258440   2.785   4.759  16.445 -0.4400  0.1979  0.5793
12342TIP3    H158441   2.872   4.795  16.429 -0.3495 -1.0244 -2.2720
12342TIP3    H258442   2.727   4.807  16.385 -1.1046 -1.1724  0.0709
12343TIP3   OH258443   3.202   0.481  16.506  0.3495  0.1323  0.6082
12343TIP3    H158444   3.289   0.450  16.481 -0.4268 -1.0741 -0.7970
12343TIP3    H258445   3.158   0.403  16.541 -1.2087 -0.1575 -1.7539
12344TIP3   OH258446   4.711   0.039   5.156  0.0205  0.7081 -0.0492
12344TIP3    H158447   4.658   0.027   5.235  0.4132  0.5702  0.1953
12344TIP3    H258448   4.698  -0.042   5.106 -0.3842  0.8777 -0.2216
12345TIP3   OH258449   4.585   4.013  11.195 -0.2112  0.3926  0.2912
12345TIP3    H158450   4.628   4.095  11.218  1.5917 -0.3765 -0.1506
12345TIP3    H258451   4.551   3.979  11.278 -0.5269  1.3283  0.5510
12346TIP3   OH258452   2.329   3.656  14.012 -0.3495 -0.2540 -0.3688
12346TIP3    H158453   2.263   3.700  13.958  0.6273  0.2007 -1.2090
12346TIP3    H258454   2.371   3.594  13.953 -0.0711 -0.6027  0.1889
12347TIP3   OH258455   4.459   0.901  12.665 -0.7084 -0.2591 -0.2255
12347TIP3    H158456   4.549   0.877  12.644 -0.4903  0.6283 -0.3264
12347TIP3    H258457   4.467   0.956  12.743 -1.1980 -0.4280 -0.0517
12348TIP3   OH258458   6.168   3.595   4.372 -0.1351  0.1777 -0.3440
12348TIP3    H158459   6.225   3.519   4.382 -0.7081 -0.2686 -0.4202
12348TIP3    H258460   6.085   3.559   4.340  0.1235  1.0229 -2.0570
12349TIP3   OH258461   2.023   5.141   0.190  0.4433 -0.0838 -0.1097
12349TIP3    H158462   1.940   5.186   0.207  1.0008  0.9078  0.0079
12349TIP3    H258463   2.050   5.108   0.275  1.1147  1.2358  0.2008
12350TIP3   OH258464   4.816   4.744  13.197 -0.0040  0.1496 -0.0875
12350TIP3    H158465   4.766   4.776  13.272 -0.5872 -0.1254 -0.3575
12350TIP3    H258466   4.754   4.691  13.147  0.0499  1.2310 -1.3647
12351TIP3   OH258467   5.705   6.361  10.464 -0.4326  0.1011 -0.0964
12351TIP3    H158468   5.756   6.403  10.533 -0.8269  2.5466 -1.2019
12351TIP3    H258469   5.647   6.430  10.432 -0.0006 -0.8318 -3.1303
12352TIP3   OH258470   0.631   2.681  15.595  0.3735  0.2899  0.5056
12352TIP3    H158471   0.541   2.706  15.615 -0.2946 -0.3961 -1.4278
12352TIP3    H258472   0.634   2.587  15.613  0.5647  0.2229  0.1369
12353TIP3   OH258473   4.105   1.548  15.381  0.1439 -0.0302 -0.2932
12353TIP3    H158474   4.096   1.466  15.333 -0.6333 -0.8427  1.1695
12353TIP3    H258475   4.171   1.530  15.448 -0.3964  0.3728  0.3607
12354TIP3   OH258476   5.652   1.918  14.261  0.3034  0.3568 -0.5081
12354TIP3    H158477   5.682   1.914  14.352  0.2820 -1.4545 -0.5434
12354TIP3    H258478   5.619   2.007  14.250  3.0900  1.6015  0.3435
12355TIP3   OH258479   2.815   3.733   0.258  0.0654 -0.4946 -0.1236
12355TIP3    H158480   2.849   3.821   0.271  1.3036 -0.7348 -1.4820
12355TIP3    H258481   2.889   3.683   0.224 -0.7926 -1.8876 -0.0294
12356TIP3   OH258482   6.260   0.018   3.829 -0.6174 -0.3322 -0.0551
12356TIP3    H158483   6.344   0.013   3.874 -1.2000 -1.2038  0.9799
12356TIP3    H258484   6.203  -0.042   3.877 -1.6397 -0.2912 -1.1678
12357TIP3   OH258485   3.557   6.096   1.419  0.6779 -0.5887 -0.1770
12357TIP3    H158486   3.551   6.008   1.381  1.5905 -1.0004  0.6007
12357TIP3    H258487   3.475   6.106   1.468  0.7880 -1.2022  0.1422
12358TIP3   OH258488   4.230   3.321   4.586  0.1870  0.6915 -0.2196
12358TIP3    H158489   4.316   3.329   4.627 -0.5330  0.3173  1.4374
12358TIP3    H258490   4.173   3.380   4.636 -0.8127 -0.0774 -0.3968
12359TIP3   OH258491   6.137   4.473  14.511 -0.2216  0.1489 -0.8032
12359TIP3    H158492   6.208   4.411  14.495 -1.3611 -1.1295 -1.1131
12359TIP3    H258493   6.154   4.506  14.599  0.3123 -0.7737 -0.5387
12360TIP3   OH258494   4.937   2.720  14.441 -0.0575 -0.3206 -0.0657
12360TIP3    H158495   4.989   2.774  14.382 -0.8238 -0.1504 -0.6072
12360TIP3    H258496   4.964   2.630  14.422 -0.1532 -0.2526 -0.5331
12361TIP3   OH258497   0.260   4.171   0.900  0.2380 -0.2419 -0.1286
12361TIP3    H158498   0.214   4.191   0.819 -1.9463 -0.3581  1.0056
12361TIP3    H258499   0.350   4.201   0.884 -1.0601  3.9317 -1.0889
12362TIP3   OH258500   6.625   2.031   3.574  0.3158 -1.1184 -0.0017
12362TIP3    H158501   6.669   2.006   3.655 -0.2738 -2.0387  0.0473
12362TIP3    H258502   6.587   1.949   3.541 -1.6950 -0.3207  0.1641
12363TIP3   OH258503   5.739   0.342   1.570  0.6188 -0.5487 -0.2384
12363TIP3    H158504   5.818   0.390   1.545  1.0576 -1.3145 -0.3723
12363TIP3    H258505   5.772   0.259   1.606 -0.0958 -0.4267  0.7108
12364TIP3   OH258506   5.378   1.117  16.854  0.0770 -0.1420  0.2627
12364TIP3    H158507   5.471   1.120  16.832  0.2738  1.2814  1.1266
12364TIP3    H258508   5.353   1.209  16.866 -1.4632 -0.4927 -0.0254
12365TIP3   OH258509   0.136   6.508  12.333  0.0194 -0.2820  0.5725
12365TIP3    H158510   0.164   6.599  12.331 -1.0789  0.0674 -0.2184
12365TIP3    H258511   0.041   6.512  12.323 -0.4806 -1.3710  3.6547
12366TIP3   OH258512   0.538   5.218  15.282  0.7780  0.4062 -0.3529
12366TIP3    H158513   0.491   5.221  15.198  0.5640  0.2683 -0.2379
12366TIP3    H258514   0.601   5.147  15.271  0.9677  0.5941 -0.5093
12367TIP3   OH258515   2.945   5.426   2.107  0.5867  0.3805 -0.6870
12367TIP3    H158516   2.908   5.351   2.154 -0.3671  1.2500  0.0066
12367TIP3    H258517   2.975   5.485   2.176  0.7579  0.9136 -1.2052
12368TIP3   OH258518   2.893   5.321  13.113  0.0501 -0.1478  0.0594
12368TIP3    H158519   2.973   5.293  13.068 -0.4149 -1.3225 -0.0775
12368TIP3    H258520   2.842   5.240  13.124 -0.6278  0.3941  1.1323
12369TIP3   OH258521   0.045   3.074  15.098 -0.0361  0.1282 -0.3252
12369TIP3    H158522   0.030   3.124  15.179 -1.0806 -0.7912  0.0717
12369TIP3    H258523  -0.033   3.091  15.045  0.0597 -0.2932 -0.6033
12370TIP3   OH258524   2.188   5.677   2.088  0.8175  1.0864 -0.0697
12370TIP3    H158525   2.277   5.647   2.070  1.0758 -0.2013  2.7227
12370TIP3    H258526   2.146   5.684   2.002  3.5679  1.6845 -1.4495
12371TIP3   OH258527   5.278   2.855   5.305 -0.1150 -0.2319 -0.2488
12371TIP3    H158528   5.283   2.833   5.212 -1.1176 -0.8206 -0.1753
12371TIP3    H258529   5.225   2.935   5.307 -0.0775 -0.2089 -0.1806
12372TIP3   OH258530   5.769   4.141   2.532 -0.0017  0.2555  0.0270
12372TIP3    H158531   5.785   4.209   2.467 -0.9965 -0.3581 -0.9059
12372TIP3    H258532   5.855   4.102   2.548  0.2687  0.4509 -0.8958
12373TIP3   OH258533   0.515   1.829  14.645 -0.3425  0.0025 -0.2412
12373TIP3    H158534   0.451   1.807  14.713  0.6481  0.5373  0.8974
12373TIP3    H258535   0.517   1.753  14.588 -0.2636 -1.0086  1.0645
12374TIP3   OH258536   0.032   0.100  12.145  0.5026  0.4628 -0.0177
12374TIP3    H158537   0.091   0.038  12.187 -0.4533 -1.8997 -1.9748
12374TIP3    H258538  -0.042   0.108  12.206  1.3212  0.9569  0.9534
12375TIP3   OH258539   2.975   1.753   6.038 -0.0616  0.2121 -0.5688
12375TIP3    H158540   2.996   1.748   6.131 -2.6519  2.0854  0.2238
12375TIP3    H258541   3.058   1.776   5.996  1.0722 -0.2751  1.2785
12376TIP3   OH258542   3.262   4.722  11.960 -0.1780 -0.3977 -0.2462
12376TIP3    H158543   3.343   4.675  11.976  0.8647  1.0632 -0.9544
12376TIP3    H258544   3.251   4.720  11.865  0.1800  1.1782 -0.3474
12377TIP3   OH258545   4.476   4.017  12.188 -0.4084 -0.6040 -0.0462
12377TIP3    H158546   4.458   4.109  12.168  0.1786 -0.4105  0.2965
12377TIP3    H258547   4.480   4.014  12.284  0.8382 -0.7334 -0.0888
12378TIP3   OH258548   2.034   1.736  11.734 -0.5205  0.2452  0.1473
12378TIP3    H158549   1.986   1.661  11.699 -0.5822 -0.0695  0.8831
12378TIP3    H258550   2.125   1.709  11.732 -0.2963  0.9807 -1.5924
12379TIP3   OH258551   3.296   0.607   0.989 -0.2868 -0.3696 -0.2171
12379TIP3    H158552   3.377   0.645   0.955 -1.2661  1.2946 -0.8097
12379TIP3    H258553   3.325   0.529   1.036  1.4416 -0.9593 -2.0978
12380TIP3   OH258554   5.260   4.036   2.615  0.4663 -0.5133  0.4447
12380TIP3    H158555   5.210   3.964   2.577  1.8500 -0.6849 -1.1333
12380TIP3    H258556   5.347   4.000   2.629  0.6972  0.3524  1.3180
12381TIP3   OH258557   6.359   0.404   2.096  0.0805  0.0196 -0.6497
12381TIP3    H158558   6.273   0.378   2.063  0.5052 -0.9461 -1.0423
12381TIP3    H258559   6.421   0.361   2.038  0.8550 -1.2161  1.0045
12382TIP3   OH258560   2.388   3.085  14.432 -0.5421 -0.8757  0.4812
12382TIP3    H158561   2.478   3.107  14.408 -0.5882 -2.4754 -1.4633
12382TIP3    H258562   2.342   3.077  14.348 -1.8048 -2.7557  1.2674
12383TIP3   OH258563   5.787   3.634  16.066  0.3961  0.1560 -0.2166
12383TIP3    H158564   5.856   3.576  16.033  0.7680  0.7275 -0.4625
12383TIP3    H258565   5.726   3.642  15.992 -0.0256 -0.4653  0.0498
12384TIP3   OH258566   0.589   2.093  14.068 -1.1572 -0.4075  0.6494
12384TIP3    H158567   0.639   2.045  14.002  0.2282  1.2899  0.3754
12384TIP3    H258568   0.498   2.082  14.042 -0.6703 -0.0309 -1.4043
12385TIP3   OH258569   0.856   1.772  11.849  0.0467 -0.2441  0.1288
12385TIP3    H158570   0.816   1.694  11.887  0.2700 -1.5082 -2.0462
12385TIP3    H258571   0.944   1.744  11.825  0.6332  1.1251  0.5994
12386TIP3   OH258572   2.837   1.338  15.095 -0.0699 -0.2035 -0.1870
12386TIP3    H158573   2.932   1.345  15.100 -0.0947 -0.5913  1.1638
12386TIP3    H258574   2.815   1.376  15.010  1.1983  0.8631 -0.0726
12387TIP3   OH258575   2.295   3.281  14.060  0.7743 -0.3336 -0.0481
12387TIP3    H158576   2.202   3.270  14.080  1.3524 -1.5764  2.2006
12387TIP3    H258577   2.307   3.232  13.978  0.0151 -2.9474  1.2845
12388TIP3   OH258578   3.064   6.540  16.252  0.8117  0.7246  0.8911
12388TIP3    H158579   3.068   6.484  16.175 -1.1160  0.9617  0.5588
12388TIP3    H258580   2.984   6.514  16.297  2.1582  0.2303  3.1526
12389TIP3   OH258581   6.791   0.958   3.412  0.0923  0.5211  0.6467
12389TIP3    H158582   6.818   0.886   3.469  1.9781 -0.2743 -1.1500
12389TIP3    H258583   6.864   1.019   3.414  0.6131  0.0318 -1.6009
12390TIP3   OH258584   5.644   0.670   5.627  0.3387 -0.0367 -0.5515
12390TIP3    H158585   5.688   0.740   5.674  0.7272 -0.3481 -0.4404
12390TIP3    H258586   5.712   0.634   5.569 -0.1135  0.2996 -1.2985
12391TIP3   OH258587   1.283   4.284   4.839  0.1284  0.0167 -0.5554
12391TIP3    H158588   1.197   4.325   4.848 -0.5528 -1.4420 -0.0664
12391TIP3    H258589   1.320   4.284   4.927  0.6683  0.7055 -0.7772
12392TIP3   OH258590   1.303   0.097  12.080 -0.3951  0.5484 -0.6309
12392TIP3    H158591   1.214   0.110  12.045 -1.2464  2.6555  1.9777
12392TIP3    H258592   1.346   0.182  12.066  0.4687  0.2397  0.0750
12393TIP3   OH258593   6.385   2.396  13.505  0.1640 -0.4667  0.4020
12393TIP3    H158594   6.378   2.393  13.410  0.3564 -2.5253  0.4056
12393TIP3    H258595   6.476   2.372  13.523 -0.3656 -2.0250  1.1381
12394TIP3   OH258596   0.459   6.238  11.990 -0.1258 -0.1287  0.2990
12394TIP3    H158597   0.444   6.303  12.058  0.4892  0.4240 -0.0837
12394TIP3    H258598   0.527   6.181  12.024  0.2320  0.1904  0.1180
12395TIP3   OH258599   4.850   3.279  13.778  0.5731 -0.0300  0.0100
12395TIP3    H158600   4.804   3.268  13.694  1.3621 -2.0241 -0.2304
12395TIP3    H258601   4.851   3.191  13.815  0.8000  0.7125  1.8466
12396TIP3   OH258602   3.014   4.835  12.014  0.5553  0.0369 -0.2067
12396TIP3    H158603   2.997   4.848  12.107 -0.4653  0.4497 -0.4334
12396TIP3    H258604   3.107   4.815  12.009  1.0162  1.7541  0.7360
12397TIP3   OH258605   6.810   2.471   0.405 -0.0043  0.4555 -0.1937
12397TIP3    H158606   6.751   2.408   0.446 -1.7276  1.6583 -0.7455
12397TIP3    H258607   6.759   2.551   0.396  1.1964  1.0901 -2.1213
12398TIP3   OH258608   3.181   3.034  13.823  0.5080 -0.2628 -0.1450
12398TIP3    H158609   3.241   2.963  13.845  2.2235  1.5816  1.5735
12398TIP3    H258610   3.133   3.050  13.904  0.5978  0.9172 -0.3112
12399TIP3   OH258611   3.955   0.329  11.710  0.6189  0.6532 -0.0128
12399TIP3    H158612   3.960   0.333  11.805 -0.4714 -0.6347  0.1307
12399TIP3    H258613   4.046   0.337  11.680  1.4150 -2.1913  1.3131
12400TIP3   OH258614   2.940   1.872   4.377  0.2100 -0.1575  0.1043
12400TIP3    H158615   3.017   1.845   4.325 -1.5858 -0.0177 -2.8580
12400TIP3    H258616   2.883   1.795   4.377 -0.6641  0.4718  0.2185
12401TIP3   OH258617   3.754   0.408   4.593 -0.1007  0.4703  0.2272
12401TIP3    H158618   3.746   0.338   4.657 -0.2929  0.3213  0.0453
12401TIP3    H258619   3.837   0.391   4.549  0.4906  1.1207  1.0751
12402TIP3   OH258620   2.928   5.662   6.118 -0.3294 -0.4675 -0.1425
12402TIP3    H158621   3.023   5.649   6.122 -0.1251  0.5108 -1.3711
12402TIP3    H258622   2.905   5.693   6.205  0.5935 -0.0448 -0.0278
12403TIP3   OH258623   1.418   5.203  16.065  0.4463 -0.0625  0.7701
12403TIP3    H158624   1.391   5.138  16.129  0.7765 -1.3393 -0.3327
12403TIP3    H258625   1.506   5.176  16.039  1.0189  1.4470  1.0577
12404TIP3   OH258626   2.959   0.097   5.900  0.1435 -0.4711  0.1518
12404TIP3    H158627   2.998   0.165   5.954 -2.2722 -0.3385  1.8895
12404TIP3    H258628   2.976   0.015   5.947 -0.2055 -0.6034  0.0511
12405TIP3   OH258629   5.839   6.226   4.261  0.3021 -0.3303  0.4540
12405TIP3    H158630   5.836   6.311   4.218  2.2568 -1.1582 -1.4950
12405TIP3    H258631   5.748   6.207   4.282 -0.2461  1.9744  0.4944
12406TIP3   OH258632   5.417   6.713   5.851 -0.4799 -0.6996 -0.3800
12406TIP3    H158633   5.325   6.738   5.858  0.2297  2.1820  0.1348
12406TIP3    H258634   5.444   6.695   5.941  0.1286  1.5786 -0.0297
12407TIP3   OH258635   1.159   0.921   0.415 -0.1863  0.5221 -0.2295
12407TIP3    H158636   1.134   0.952   0.502  0.2981  0.5613 -0.1006
12407TIP3    H258637   1.191   0.999   0.370 -0.4075  0.4957 -0.4334
12408TIP3   OH258638   1.253   1.739   2.687  0.1995 -0.6047  0.4964
12408TIP3    H158639   1.319   1.670   2.687 -0.3863 -1.2035 -1.1856
12408TIP3    H258640   1.190   1.712   2.621 -0.7887  0.8558  0.7994
12409TIP3   OH258641   2.676   4.968  16.855 -0.3457  0.2848  0.1137
12409TIP3    H158642   2.707   5.039  16.799  4.2449 -1.5629 -0.0713
12409TIP3    H258643   2.668   4.893  16.796  0.7928 -0.7666  1.2564
12410TIP3   OH258644   3.164   6.582  12.381 -0.4249 -0.0683  0.0318
12410TIP3    H158645   3.221   6.506  12.391 -2.0501 -1.2297  0.8957
12410TIP3    H258646   3.211   6.639  12.321  1.7854 -0.8074  0.9479
12411TIP3   OH258647   4.754   1.189  15.652 -0.1007  0.3251 -0.2764
12411TIP3    H158648   4.795   1.152  15.573 -0.1616 -1.3589  0.4399
12411TIP3    H258649   4.684   1.129  15.674 -0.5519  1.1588  0.6741
12412TIP3   OH258650   3.665   3.324   0.399 -0.1894  0.0588  0.0792
12412TIP3    H158651   3.740   3.275   0.365  0.1041  0.3354  0.3138
12412TIP3    H258652   3.605   3.257   0.431 -0.7778 -0.2395 -1.5807
12413TIP3   OH258653   2.292   0.237   3.971  0.2995 -0.3401  0.0642
12413TIP3    H158654   2.324   0.292   4.042 -1.8097  1.2079 -0.0894
12413TIP3    H258655   2.283   0.150   4.010 -0.1288  0.3181  1.4891
12414TIP3   OH258656   5.674   6.481   5.224  0.1177 -0.3300  0.4470
12414TIP3    H158657   5.618   6.462   5.300  0.9140 -2.0651  0.6307
12414TIP3    H258658   5.674   6.401   5.173  0.6506  0.3960 -0.7246
12415TIP3   OH258659   4.321   6.348  11.882  0.2837  0.1160 -0.1606
12415TIP3    H158660   4.370   6.377  11.959  2.6103  0.4007 -1.6575
12415TIP3    H258661   4.343   6.255  11.873  1.0291  0.3673 -1.1369
12416TIP3   OH258662   1.256   4.502   5.071  0.4556 -0.9457 -0.1692
12416TIP3    H158663   1.270   4.513   5.165 -1.0499  1.8595 -0.1589
12416TIP3    H258664   1.195   4.429   5.063 -2.0077  0.7975  1.3670
12417TIP3   OH258665   3.350   2.469  14.376 -0.0564  0.1510  0.1383
12417TIP3    H158666   3.288   2.509  14.315 -0.2659  1.1736  0.9765
12417TIP3    H258667   3.381   2.543  14.428  0.5953 -0.6091  0.8359
12418TIP3   OH258668   6.547   2.765  11.087  0.1954  0.2190  0.1174
12418TIP3    H158669   6.610   2.743  11.155  0.5032  1.3560  0.2314
12418TIP3    H258670   6.564   2.702  11.016  1.5176  0.5448  0.1140
12419TIP3   OH258671   1.939   5.071  10.897 -0.2248  0.3239  0.6489
12419TIP3    H158672   1.940   5.106  10.808 -0.1085 -1.9291 -0.3037
12419TIP3    H258673   2.007   5.121  10.943 -1.2327  2.4786 -0.0672
12420TIP3   OH258674   2.271   5.915   5.057 -0.2643  0.4643  0.5440
12420TIP3    H158675   2.208   5.843   5.064 -0.0924  0.4524  2.6412
12420TIP3    H258676   2.346   5.886   5.109  0.8631  1.1338 -0.6493
12421TIP3   OH258677   6.035   2.198   5.347  0.3729 -0.0607 -0.0586
12421TIP3    H158678   6.084   2.202   5.429 -0.0117 -2.8221  0.3881
12421TIP3    H258679   6.001   2.287   5.335  0.1789  0.3705  2.9298
12422TIP3   OH258680   5.629   3.525  13.347 -0.1654  0.1188  0.2315
12422TIP3    H158681   5.541   3.550  13.374 -0.3521 -1.0003  0.6846
12422TIP3    H258682   5.616   3.477  13.265 -0.2577 -2.2083  1.5346
12423TIP3   OH258683   0.879   2.739  16.891 -0.1583  0.1934  0.0264
12423TIP3    H158684   0.897   2.695  16.808 -0.2702 -0.6266  0.4307
12423TIP3    H258685   0.789   2.771  16.881 -0.1162  0.2406 -0.2239
12424TIP3   OH258686   1.374   1.245  14.510 -0.1051  0.1570  0.3743
12424TIP3    H158687   1.434   1.240  14.435  0.1177 -0.9801  0.6093
12424TIP3    H258688   1.368   1.155  14.542  2.2416  0.9694  3.6117
12425TIP3   OH258689   0.017   3.941   4.548 -0.5109 -0.1811 -0.1311
12425TIP3    H158690   0.087   3.882   4.572  2.4490  3.4537  1.1310
12425TIP3    H258691   0.016   3.940   4.452  0.3516 -1.2571 -0.1375
12426TIP3   OH258692   0.009   1.514  12.465  0.0311  0.8042 -0.4941
12426TIP3    H158693   0.010   1.557  12.380  0.9747  0.2496 -0.7796
12426TIP3    H258694  -0.039   1.433  12.450 -0.6946  1.1761 -0.2424
12427TIP3   OH258695   6.152   4.572  16.599 -0.1975 -0.1434  0.4918
12427TIP3    H158696   6.088   4.635  16.630 -2.7646 -2.3262 -0.0083
12427TIP3    H258697   6.180   4.605  16.514  2.4864  2.8545  2.3169
12428TIP3   OH258698   6.711   5.127   1.369 -0.0580 -0.2169 -0.0883
12428TIP3    H158699   6.804   5.123   1.343 -0.0062  1.5519 -0.3108
12428TIP3    H258700   6.689   5.038   1.393  1.1703 -1.0739 -1.9035
12429TIP3   OH258701   1.224   0.470   2.492 -0.1544  0.4638 -0.2167
12429TIP3    H158702   1.161   0.511   2.551 -0.4052 -0.8034  0.4189
12429TIP3    H258703   1.236   0.534   2.422 -0.7901  1.4713  0.5653
12430TIP3   OH258704   4.140   3.387   1.883 -0.0324  0.7555 -0.7428
12430TIP3    H158705   4.079   3.321   1.917 -2.2025  1.6088 -2.7139
12430TIP3    H258706   4.092   3.469   1.890  2.7215  2.3286  1.9464
12431TIP3   OH258707   0.417   1.680  16.576 -0.2061 -0.1854  0.0186
12431TIP3    H158708   0.364   1.652  16.501  0.1238 -0.8069  0.0080
12431TIP3    H258709   0.437   1.772  16.559 -0.6710 -0.1486 -0.3343
12432TIP3   OH258710   6.728   0.288   1.779  0.3395 -0.5144  0.6850
12432TIP3    H158711   6.672   0.279   1.856 -1.5673 -2.1782 -0.7838
12432TIP3    H258712   6.808   0.329   1.812 -0.9349  0.1096  3.2592
12433TIP3   OH258713   4.134   4.192   0.486 -0.1738 -0.1625  0.0453
12433TIP3    H158714   4.194   4.250   0.439 -0.4513  0.5787  0.5875
12433TIP3    H258715   4.047   4.227   0.468 -0.2219  1.3306  2.5617
12434TIP3   OH258716   2.125   0.223  13.786 -0.2548  0.5412 -0.6815
12434TIP3    H158717   2.108   0.158  13.853 -1.1562  0.7940 -0.6542
12434TIP3    H258718   2.170   0.294  13.832  0.6230  0.0042 -0.6891
12435TIP3   OH258719   6.058   2.459  12.252  0.4629 -0.2988 -0.9884
12435TIP3    H158720   6.048   2.378  12.202  1.1491 -0.4367 -0.9124
12435TIP3    H258721   6.087   2.431  12.338  0.3006  0.0055 -0.8324
12436TIP3   OH258722   2.230   0.370  14.039 -0.1620 -0.5358 -0.0300
12436TIP3    H158723   2.251   0.303  14.104 -0.8083  0.1463  0.9023
12436TIP3    H258724   2.140   0.395  14.058 -0.8177 -1.2447 -2.0297
12437TIP3   OH258725   1.252   0.767   6.147 -0.3427  0.0748  0.6096
12437TIP3    H158726   1.277   0.688   6.100 -1.7843 -0.1556  0.1709
12437TIP3    H258727   1.157   0.771   6.139 -0.4108  1.2444  1.6076
12438TIP3   OH258728   3.256   1.373   0.357  0.2062 -0.0223  0.2901
12438TIP3    H158729   3.251   1.429   0.435 -0.4487 -0.3919  0.5209
12438TIP3    H258730   3.184   1.312   0.367  0.4766 -0.4508 -0.3235
12439TIP3   OH258731   1.555   2.337  17.052  0.1859  0.4164 -0.1182
12439TIP3    H158732   1.476   2.297  17.087  1.1462 -0.9517  0.5906
12439TIP3    H258733   1.529   2.371  16.966 -1.2567  0.3893  0.2828
12440TIP3   OH258734   3.252   1.543  15.474  0.1276  0.0301  0.4196
12440TIP3    H158735   3.259   1.497  15.391  3.4883 -0.5163  0.8835
12440TIP3    H258736   3.301   1.625  15.461 -0.2068  0.4344  1.5394
12441TIP3   OH258737   3.412   3.428  15.292  0.0753  0.6349  0.3210
12441TIP3    H158738   3.468   3.359  15.327  0.6064  0.4469 -0.8455
12441TIP3    H258739   3.461   3.463  15.218 -0.8985  1.1744 -0.0833
12442TIP3   OH258740   5.134   0.989  15.760 -0.2226  0.0823 -0.0477
12442TIP3    H158741   5.119   0.949  15.845  1.3392  1.7697  1.1016
12442TIP3    H258742   5.229   0.989  15.749 -0.4154 -1.1208 -2.3606
12443TIP3   OH258743   4.149   3.344  13.226 -0.5036  0.1123 -0.3981
12443TIP3    H158744   4.155   3.378  13.316 -1.3671  1.8018 -0.9359
12443TIP3    H258745   4.061   3.306  13.221 -0.0646 -0.9451 -0.2282
12444TIP3   OH258746   3.071   1.965   1.888 -0.1480 -0.7314  0.5886
12444TIP3    H158747   3.135   1.914   1.939  0.8534  0.7161  0.8202
12444TIP3    H258748   3.034   2.026   1.952 -0.0398  0.0334 -0.0761
12445TIP3   OH258749   6.671   2.222   4.066  0.2788  0.0018  0.3762
12445TIP3    H158750   6.760   2.231   4.101  1.0062 -1.2571 -1.0429
12445TIP3    H258751   6.633   2.150   4.117  0.0102  0.5934  1.0388
12446TIP3   OH258752   5.294   6.134  15.283  0.1257  0.5514  0.1229
12446TIP3    H158753   5.347   6.152  15.361  0.5720  2.1953 -0.5093
12446TIP3    H258754   5.358   6.123  15.213 -0.2980  0.0649 -0.1865
12447TIP3   OH258755   4.486   4.332  11.630  0.6415  0.0264 -0.1377
12447TIP3    H158756   4.581   4.324  11.631  0.7456  0.1017  3.1267
12447TIP3    H258757   4.454   4.245  11.654 -0.0293  0.3076  0.0295
12448TIP3   OH258758   6.425   5.583   0.448  0.8406  0.5440 -0.1504
12448TIP3    H158759   6.384   5.665   0.477 -1.1060 -0.3300 -0.2424
12448TIP3    H258760   6.519   5.599   0.455  0.4986  2.4164  0.8499
12449TIP3   OH258761   6.674   0.080  16.960 -0.1979 -0.2153  0.3359
12449TIP3    H158762   6.690   0.028  16.881 -0.5511  0.2417 -0.0391
12449TIP3    H258763   6.748   0.140  16.965 -0.3291 -0.0369  0.1760
12450TIP3   OH258764   4.715   2.901   1.583 -0.4011 -0.3501 -0.3470
12450TIP3    H158765   4.711   2.860   1.497 -0.1007  1.4548 -1.2812
12450TIP3    H258766   4.638   2.958   1.587  0.1764  0.4310  0.1046
12451TIP3   OH258767   6.550   2.846   0.612  0.2158 -0.6257 -0.5405
12451TIP3    H158768   6.532   2.858   0.705  0.3523 -0.4190 -0.5419
12451TIP3    H258769   6.599   2.924   0.586  1.3318 -1.2889 -0.4860
12452TIP3   OH258770   4.076   2.103   0.654 -0.7354 -0.7006 -0.7769
12452TIP3    H158771   4.031   2.129   0.573 -0.8517  2.5684  0.2113
12452TIP3    H258772   4.026   2.146   0.723  1.1197 -0.9697  0.7783
12453TIP3   OH258773   1.670   2.646   0.403 -0.0980 -0.0240  0.4945
12453TIP3    H158774   1.599   2.677   0.459 -0.9241 -1.1371  0.1081
12453TIP3    H258775   1.656   2.552   0.397  0.7448 -0.1049 -0.5215
12454TIP3   OH258776   1.605   5.949   5.709  0.5439  0.3538 -0.3805
12454TIP3    H158777   1.579   6.040   5.728 -1.7987 -0.6317  1.6522
12454TIP3    H258778   1.524   5.899   5.715  2.1512 -2.2908  1.2089
12455TIP3   OH258779   6.069   3.748   5.621  0.3342  0.2392 -0.8163
12455TIP3    H158780   6.018   3.667   5.612 -0.2236  0.3550  0.9794
12455TIP3    H258781   6.009   3.818   5.596  0.2684  0.2260 -0.6940
12456TIP3   OH258782   6.506   0.370  15.265  0.5572 -0.3070  0.2807
12456TIP3    H158783   6.478   0.416  15.187  2.2115  1.2737  0.5635
12456TIP3    H258784   6.425   0.336  15.304 -0.4243  0.1797 -1.2821
12457TIP3   OH258785   6.041   0.109   3.490 -0.2375 -0.5677 -0.5186
12457TIP3    H158786   5.997   0.190   3.515  0.5738 -0.3601  0.3092
12457TIP3    H258787   6.091   0.133   3.412  0.9536  0.0857  0.4103
12458TIP3   OH258788   4.754   0.731   3.017  0.0298  0.1982 -0.2989
12458TIP3    H158789   4.775   0.638   3.014  0.0446  0.1081  1.5172
12458TIP3    H258790   4.703   0.742   3.097 -1.7189  1.4389 -1.5091
12459TIP3   OH258791   4.137   3.721  11.853  0.3002  0.6382  0.5347
12459TIP3    H158792   4.166   3.699  11.942 -0.1958  1.3248  0.8738
12459TIP3    H258793   4.179   3.655  11.797 -2.3356 -2.1686  1.6216
12460TIP3   OH258794   3.689   2.253  12.381  0.1682  0.0469 -0.1837
12460TIP3    H158795   3.697   2.257  12.476  3.0798  1.7066 -0.3954
12460TIP3    H258796   3.721   2.337  12.350 -0.5398 -0.5063 -2.6890
12461TIP3   OH258797   1.421   4.222  16.246 -0.1489 -0.1874 -0.0894
12461TIP3    H158798   1.384   4.251  16.329 -3.6477  0.6537 -1.7282
12461TIP3    H258799   1.383   4.135  16.232 -0.6916  0.2210 -1.3365
12462TIP3   OH258800   3.647   1.764  15.523  0.1309  0.6486 -0.1284
12462TIP3    H158801   3.702   1.783  15.448 -0.2145  1.3136 -0.2167
12462TIP3    H258802   3.630   1.670  15.517  1.5514  0.3487  0.1086
12463TIP3   OH258803   6.365   2.163  16.232  0.5483 -0.6494 -0.1521
12463TIP3    H158804   6.405   2.160  16.319  0.7963 -2.5353 -0.2941
12463TIP3    H258805   6.353   2.256  16.215  0.1020 -0.2277  2.0807
12464TIP3   OH258806   2.424   6.728   4.006  0.2231 -0.2892 -0.2604
12464TIP3    H158807   2.421   6.635   3.984  0.0009 -0.1108 -0.9953
12464TIP3    H258808   2.514   6.754   3.985 -0.6924  0.5388 -3.8187
12465TIP3   OH258809   3.315   4.041  15.266  0.4147 -0.1862  0.3899
12465TIP3    H158810   3.292   3.948  15.262  0.0082 -0.1047  0.6738
12465TIP3    H258811   3.284   4.077  15.183  0.2519 -0.2370  0.4275
12466TIP3   OH258812   3.089   0.660   5.504  0.1993 -0.3375  0.2677
12466TIP3    H158813   2.995   0.648   5.497  0.3029 -0.7207 -0.6400
12466TIP3    H258814   3.126   0.600   5.439  1.0898 -0.5080  0.9054
12467TIP3   OH258815   5.241   4.805   1.230  0.2003 -0.2599 -0.2579
12467TIP3    H158816   5.200   4.719   1.218 -0.1689 -0.2589  0.8968
12467TIP3    H258817   5.205   4.837   1.313  2.8388 -0.4263  1.0537
12468TIP3   OH258818   2.953   0.835  10.963  0.7286 -0.0232  0.0602
12468TIP3    H158819   2.980   0.910  11.017  0.5110 -0.3477  0.6332
12468TIP3    H258820   2.977   0.759  11.016  1.3778 -0.3754 -0.7224
12469TIP3   OH258821   6.626   3.525  12.443  0.1352 -0.5805  0.0526
12469TIP3    H158822   6.638   3.475  12.524 -0.4469  1.3262  1.3760
12469TIP3    H258823   6.661   3.468  12.374  1.9291 -1.7040  1.8039
12470TIP3   OH258824   0.207   3.809  15.448  0.4464  0.2058  0.1849
12470TIP3    H158825   0.248   3.792  15.533 -0.2914  1.2232  0.7722
12470TIP3    H258826   0.264   3.765  15.385  2.1186  1.0569  1.0182
12471TIP3   OH258827   6.737   4.162   3.982  0.3885 -0.3951  0.1184
12471TIP3    H158828   6.642   4.160   3.965  0.4255  0.7377 -0.2882
12471TIP3    H258829   6.776   4.184   3.898  0.8881  0.8037  0.6355
12472TIP3   OH258830   4.367   0.213   0.991 -0.2250  0.7078 -0.1483
12472TIP3    H158831   4.340   0.232   0.901  0.6543 -1.8880 -1.0720
12472TIP3    H258832   4.288   0.226   1.044 -1.6765 -0.7869 -1.8116
12473TIP3   OH258833   2.088   4.227  12.411  0.3443 -0.1696  0.1880
12473TIP3    H158834   2.052   4.303  12.456  2.5778  1.8551 -1.1934
12473TIP3    H258835   2.116   4.168  12.481 -2.5813 -0.3925  1.2775
12474TIP3   OH258836   3.732   3.770  16.064  0.3397  0.3454 -0.5129
12474TIP3    H158837   3.704   3.693  16.014  1.8325 -0.5964  0.0144
12474TIP3    H258838   3.777   3.733  16.141  0.0643  1.7577  0.3673
12475TIP3   OH258839   4.790   6.488  11.799 -0.0404  0.1412 -0.4368
12475TIP3    H158840   4.799   6.568  11.746 -1.6895  0.2505 -0.5995
12475TIP3    H258841   4.792   6.520  11.889  2.4013 -0.0076 -0.3600
12476TIP3   OH258842   4.838   6.024   2.322 -0.2995  0.0457 -0.0501
12476TIP3    H158843   4.874   6.110   2.301  0.1384  0.3554  1.8135
12476TIP3    H258844   4.914   5.968   2.336 -0.5192  0.1312  1.6750
12477TIP3   OH258845   1.120   1.320   0.715 -0.0838  0.5776  0.2316
12477TIP3    H158846   1.200   1.273   0.738 -0.3487 -1.6951 -2.8820
12477TIP3    H258847   1.150   1.402   0.678  1.2946 -1.5782 -4.0580
12478TIP3   OH258848   1.081   1.617  11.495  0.0976 -0.5226 -0.8070
12478TIP3    H158849   1.119   1.696  11.457 -0.3973  0.0193 -0.1747
12478TIP3    H258850   1.068   1.559  11.420  1.8785 -0.6124 -1.1005
12479TIP3   OH258851   6.479   5.296   2.565 -0.0624  0.7318 -0.1697
12479TIP3    H158852   6.464   5.375   2.618  0.1465  0.4147  0.3785
12479TIP3    H258853   6.514   5.329   2.482  1.6063  1.1551  0.6520
12480TIP3   OH258854   6.790   0.344   0.081 -0.2413  0.5116  0.2854
12480TIP3    H158855   6.799   0.439   0.089  0.0937  0.4434  0.7071
12480TIP3    H258856   6.696   0.329   0.092 -0.2571  0.7644  0.5080
12481TIP3   OH258857   0.771   3.751  13.801  0.4568  0.2930 -0.1197
12481TIP3    H158858   0.685   3.724  13.833  0.5290 -0.5912 -0.6297
12481TIP3    H258859   0.756   3.836  13.760 -0.3891 -0.3061 -1.0986
12482TIP3   OH258860   2.712   3.707   2.775  0.0261 -0.2109  0.2797
12482TIP3    H158861   2.719   3.778   2.711 -2.5489 -0.6880 -0.6753
12482TIP3    H258862   2.706   3.752   2.859  0.8253  0.5714 -0.0712
12483TIP3   OH258863   3.817   6.035  13.863  0.1941  0.0499  0.3278
12483TIP3    H158864   3.831   6.125  13.834 -0.8251  0.4920  1.1188
12483TIP3    H258865   3.854   5.981  13.794 -1.4481  1.0505 -1.4242
12484TIP3   OH258866   1.891   2.079   5.871  0.5346  0.9185 -0.4416
12484TIP3    H158867   1.930   2.036   5.947  1.8503  1.4457 -0.7948
12484TIP3    H258868   1.858   2.006   5.817 -0.2105  0.5378  0.5032
12485TIP3   OH258869   5.464   3.472  10.692 -0.2743 -0.4036 -0.1545
12485TIP3    H158870   5.546   3.459  10.645 -0.9399 -0.8771 -1.2043
12485TIP3    H258871   5.396   3.454  10.628 -1.2185  0.6217  0.5169
12486TIP3   OH258872   4.066   1.965  13.827  0.1161 -0.2531 -0.1816
12486TIP3    H158873   4.037   1.976  13.917 -0.5517 -3.3416  0.1034
12486TIP3    H258874   4.014   2.027  13.777 -0.3040  0.7469  1.4236
12487TIP3   OH258875   0.239   5.347  15.417 -0.1112 -0.3238  0.2735
12487TIP3    H158876   0.185   5.422  15.440  0.3201  0.1727 -0.3285
12487TIP3    H258877   0.267   5.363  15.327 -0.9069 -1.7381 -0.2619
12488TIP3   OH258878   0.244   2.390  15.342  0.6655 -0.2508  0.2450
12488TIP3    H158879   0.235   2.401  15.247  2.4567  2.3966  0.2653
12488TIP3    H258880   0.199   2.308  15.361 -1.9535  0.3827 -2.5107
12489TIP3   OH258881   2.185   5.029  11.557 -0.1765  0.2313  0.2613
12489TIP3    H158882   2.270   5.059  11.591  0.1679 -1.4908  1.0712
12489TIP3    H258883   2.121   5.087  11.596  0.4766  0.1464  1.5020
12490TIP3   OH258884   0.961   6.752   4.797 -0.6259 -0.1043 -0.1410
12490TIP3    H158885   1.034   6.755   4.859 -1.5137 -2.6702  1.1645
12490TIP3    H258886   0.974   6.670   4.749 -1.9512  0.0264 -0.7512
12491TIP3   OH258887   1.337   1.468   2.767 -0.2459 -0.3278  0.0451
12491TIP3    H158888   1.286   1.449   2.688  1.2015 -1.1131 -0.7439
12491TIP3    H258889   1.427   1.449   2.742  0.1924 -1.1524  2.0495
12492TIP3   OH258890   2.147   1.001  11.736  0.0225  0.0167  0.2516
12492TIP3    H158891   2.135   0.933  11.671  1.1691 -0.6817  0.7228
12492TIP3    H258892   2.213   1.059  11.698 -1.5278  1.3500 -0.4916
12493TIP3   OH258893   1.634   0.709  13.657  0.3524 -0.0477 -0.2134
12493TIP3    H158894   1.658   0.616  13.655  0.5166 -0.0163  0.2500
12493TIP3    H258895   1.703   0.751  13.708  0.7685  0.4752 -1.1657
12494TIP3   OH258896   0.819   4.910  17.034  0.4026 -0.0885  0.1568
12494TIP3    H158897   0.754   4.970  16.997  0.0109 -0.0013  0.9702
12494TIP3    H258898   0.773   4.826  17.041  0.1622  0.1296  1.3384
12495TIP3   OH258899   6.410   4.885   1.955 -0.0926 -0.2137  0.6586
12495TIP3    H158900   6.505   4.887   1.960 -0.0364  0.6461 -0.3861
12495TIP3    H258901   6.380   4.933   2.032  0.2968 -0.7999  1.1848
12496TIP3   OH258902   6.325   1.466  16.974  0.3312  0.0440  0.1346
12496TIP3    H158903   6.306   1.556  16.950 -0.4158 -0.3860 -0.9947
12496TIP3    H258904   6.249   1.416  16.945  0.1911 -0.8041  1.8318
12497TIP3   OH258905   4.258   6.310  10.964  0.0486 -0.0333  0.3583
12497TIP3    H158906   4.265   6.402  10.936 -0.5803  0.1892  0.9041
12497TIP3    H258907   4.200   6.313  11.039  1.6162 -0.6284  1.6610
12498TIP3   OH258908   4.663   2.605   3.304  0.0918  0.4941 -0.1471
12498TIP3    H158909   4.726   2.619   3.233 -0.6400 -2.0850 -1.4193
12498TIP3    H258910   4.707   2.542   3.362 -0.3203  0.6736  0.3664
12499TIP3   OH258911   4.121   3.762   2.179  0.1914  0.2080  0.2443
12499TIP3    H158912   4.063   3.838   2.187 -1.4022 -0.9899  0.5637
12499TIP3    H258913   4.143   3.758   2.086  0.9722  1.5119  0.3475
12500TIP3   OH258914   1.211   0.999   0.682  0.6423  0.1403  0.1964
12500TIP3    H158915   1.289   1.035   0.724  1.2015 -0.8424  0.0414
12500TIP3    H258916   1.141   1.012   0.746  0.8308  1.3976  0.1741
12501TIP3   OH258917   0.528   6.636   6.054 -0.5941  0.1853 -0.0322
12501TIP3    H158918   0.462   6.568   6.067 -0.4412 -0.4309 -2.0913
12501TIP3    H258919   0.606   6.603   6.097 -0.8719 -0.3822  0.0417
12502TIP3   OH258920   5.758   3.136   2.954  0.5219  0.2032  0.0974
12502TIP3    H158921   5.742   3.222   2.994 -0.2471  0.5652 -0.9449
12502TIP3    H258922   5.811   3.089   3.018  2.6599  2.1486 -0.1129
12503TIP3   OH258923   5.348   4.705   4.853 -0.0440  0.3015 -0.3056
12503TIP3    H158924   5.276   4.721   4.792 -0.7793 -1.3222  0.0789
12503TIP3    H258925   5.425   4.695   4.798 -0.8953 -2.4171 -1.1913
12504TIP3   OH258926   3.334   0.218   5.933 -0.4486  0.9812 -0.6229
12504TIP3    H158927   3.274   0.289   5.957 -0.3271  2.0013 -3.0628
12504TIP3    H258928   3.314   0.200   5.842  0.5054 -1.2078 -0.4606
12505TIP3   OH258929   5.087   5.102   4.437  0.2592  0.6028 -0.0480
12505TIP3    H158930   5.150   5.086   4.508  0.7159  0.1742 -0.5441
12505TIP3    H258931   5.121   5.180   4.393  0.5510  0.2652 -0.4282
12506TIP3   OH258932   1.892   3.223  13.266  0.4116  0.3286  0.2539
12506TIP3    H158933   1.855   3.292  13.211 -3.5895  0.9658  3.3358
12506TIP3    H258934   1.960   3.267  13.317 -0.2672  1.3652  0.2969
12507TIP3   OH258935   3.955   4.529   2.201 -0.4597 -0.2984  0.6677
12507TIP3    H158936   3.987   4.449   2.243  1.2811 -1.3008 -2.2871
12507TIP3    H258937   3.900   4.500   2.129 -2.7476  1.3441  1.6103
12508TIP3   OH258938   1.691   5.479   0.634 -0.2646 -0.2127  0.0456
12508TIP3    H158939   1.608   5.509   0.596 -1.2897 -3.3977 -0.5251
12508TIP3    H258940   1.758   5.508   0.572 -1.3056 -0.2243 -1.1180
12509TIP3   OH258941   3.652   4.717   1.283 -0.5552 -0.0689 -0.5091
12509TIP3    H158942   3.705   4.649   1.241  0.0396 -0.2295  0.4730
12509TIP3    H258943   3.713   4.791   1.293 -1.1144  0.5235 -1.2985
12510TIP3   OH258944   3.113   5.653  15.524 -0.0021 -0.1145  0.0144
12510TIP3    H158945   3.176   5.597  15.478 -1.0759 -1.4109  0.0904
12510TIP3    H258946   3.118   5.624  15.615  0.5893  1.0309  0.3720
12511TIP3   OH258947   2.895   6.597   5.207  0.6562  0.3847 -0.1784
12511TIP3    H158948   2.981   6.558   5.222  0.7888  0.7508  0.0429
12511TIP3    H258949   2.897   6.679   5.258 -0.4228 -0.4033  1.2072
12512TIP3   OH258950   4.053   2.198   5.687  0.3078  0.1882  0.0953
12512TIP3    H158951   3.980   2.169   5.634 -0.1771 -0.5049  1.1111
12512TIP3    H258952   4.038   2.159   5.773  0.4279  2.2329  1.1173
12513TIP3   OH258953   6.440   5.211  13.896 -0.2135 -0.1787  0.0310
12513TIP3    H158954   6.374   5.278  13.875 -0.9686 -1.2512 -1.1843
12513TIP3    H258955   6.451   5.217  13.991 -1.3857  0.6533  0.1390
12514TIP3   OH258956   2.091   6.450   3.689  0.2712 -0.2871  0.1934
12514TIP3    H158957   2.176   6.488   3.668 -0.6411  0.8169 -1.7654
12514TIP3    H258958   2.082   6.462   3.784  1.6970  0.8281  0.2212
12515TIP3   OH258959   3.767   4.958   0.618 -0.5354 -0.1227  0.6245
12515TIP3    H158960   3.842   4.970   0.561  0.4736 -0.6151  1.7955
12515TIP3    H258961   3.726   4.877   0.588 -0.2186 -0.1943  0.3833
12516TIP3   OH258962   5.945   6.222  12.558  0.2323  0.3936  0.1270
12516TIP3    H158963   5.941   6.196  12.466 -2.2506  1.5882 -0.1970
12516TIP3    H258964   6.005   6.159  12.598  3.6424  1.4824 -2.7370
12517TIP3   OH258965   5.892   1.731  11.652 -0.7379  0.2495  0.5375
12517TIP3    H158966   5.798   1.719  11.642 -0.4545 -3.1754  0.6843
12517TIP3    H258967   5.930   1.690  11.574  0.6570  0.4519  1.0734
12518TIP3   OH258968   1.213   0.267  11.753 -0.7500 -0.3257 -0.5173
12518TIP3    H158969   1.205   0.179  11.791  0.2009 -0.5743 -0.8802
12518TIP3    H258970   1.306   0.288  11.759 -1.3312  2.0693  2.6335
12519TIP3   OH258971   0.878   6.335  13.376  0.2731 -0.0709  0.0561
12519TIP3    H158972   0.931   6.412  13.356  0.3120 -0.5322 -1.8368
12519TIP3    H258973   0.834   6.356  13.458  0.7699  1.7130 -0.1023
12520TIP3   OH258974   0.835   4.987  12.610 -0.5302 -0.3551 -0.3425
12520TIP3    H158975   0.759   4.933  12.630  0.0040 -1.0208 -0.0606
12520TIP3    H258976   0.891   4.981  12.688 -0.3281  0.3721 -0.4235
12521TIP3   OH258977   2.608   4.687   4.319  0.6086  0.4443  0.3959
12521TIP3    H158978   2.624   4.594   4.301 -1.4002  0.2031 -0.3890
12521TIP3    H258979   2.608   4.729   4.233 -0.7169  0.7695  0.5405
12522TIP3   OH258980   5.797   1.483   4.502  0.1902  0.2227  0.1691
12522TIP3    H158981   5.797   1.474   4.407 -1.4388 -2.6814  0.3442
12522TIP3    H258982   5.888   1.465   4.528  0.8221  1.7806 -0.8167
12523TIP3   OH258983   2.597   3.994   0.501  0.0882 -0.3964  0.0876
12523TIP3    H158984   2.556   4.076   0.471 -1.3389 -0.9802  0.3398
12523TIP3    H258985   2.689   4.004   0.478  0.2665  1.8981  1.4233
12524TIP3   OH258986   3.166   1.346  16.106  0.6357 -0.1906 -0.1907
12524TIP3    H158987   3.193   1.434  16.131  0.3655  0.0935 -0.8654
12524TIP3    H258988   3.234   1.289  16.141 -0.5242 -0.0148  2.6289
12525TIP3   OH258989   0.918   2.426  15.613 -0.4427 -0.4164 -0.2248
12525TIP3    H158990   0.957   2.493  15.668  0.4959 -1.1026 -0.0370
12525TIP3    H258991   0.990   2.391  15.562 -0.7601 -1.7934  0.2214
12526TIP3   OH258992   3.231   6.281   5.428  0.0365  0.2427  0.0483
12526TIP3    H158993   3.179   6.362   5.426  1.0774  0.9113 -0.4391
12526TIP3    H258994   3.169   6.212   5.405 -0.9905  0.8258  0.9664
12527TIP3   OH258995   6.015   0.001   2.978  0.3895  0.0193  0.0569
12527TIP3    H158996   6.070  -0.077   2.982  0.4885  0.1084  0.4457
12527TIP3    H258997   6.059   0.058   2.915  0.3375 -0.2200 -0.1974
12528TIP3   OH258998   6.721   3.014  12.315 -0.9314  0.1201 -0.4987
12528TIP3    H158999   6.779   2.952  12.271 -3.8533 -3.4664  0.1879
12528TIP3    H259000   6.747   3.011  12.407 -2.4245 -2.0183 -0.0715
12529TIP3   OH259001   2.219   2.009  15.555  0.5583 -0.2034 -0.1136
12529TIP3    H159002   2.247   1.973  15.639  1.7111  0.7625 -0.0514
12529TIP3    H259003   2.296   2.001  15.498 -0.0233 -0.3105 -0.9131
12530TIP3   OH259004   4.926   3.462  16.529  0.3277  0.1353 -0.0391
12530TIP3    H159005   5.018   3.444  16.549 -0.0312 -0.1353  1.4707
12530TIP3    H259006   4.922   3.464  16.433  1.6819 -1.0380 -0.1479
12531TIP3   OH259007   1.769   5.694   2.142  0.3051  0.0044 -0.2197
12531TIP3    H159008   1.750   5.672   2.233  0.9895  1.1863  0.2387
12531TIP3    H259009   1.839   5.634   2.117 -0.1271 -0.5601 -0.0752
12532TIP3   OH259010   4.042   2.585  11.799  0.1069 -0.3882 -0.4254
12532TIP3    H159011   4.008   2.503  11.834  0.1076 -0.4007 -0.4544
12532TIP3    H259012   3.977   2.612  11.734  0.1272 -0.3864 -0.4452
12533TIP3   OH259013   2.121   4.296   2.558  0.4102  0.0103 -0.6327
12533TIP3    H159014   2.051   4.231   2.555 -0.3813  0.6985  1.1243
12533TIP3    H259015   2.077   4.377   2.585  1.6678  0.7992 -0.8614
12534TIP3   OH259016   4.823   1.878   4.418 -0.3137 -0.2963  0.1893
12534TIP3    H159017   4.850   1.812   4.354 -0.6957 -0.8182  0.5479
12534TIP3    H259018   4.893   1.879   4.483 -0.0072  0.1089 -0.1498
12535TIP3   OH259019   4.511   3.419  11.111 -0.3323 -0.1184  0.0157
12535TIP3    H159020   4.532   3.458  11.027 -1.9117 -0.9092 -0.7895
12535TIP3    H259021   4.511   3.324  11.095 -3.0287 -0.2359  0.2339
12536TIP3   OH259022   5.911   6.427   2.561 -0.4150 -0.0043  0.1851
12536TIP3    H159023   5.890   6.374   2.638  1.5258 -1.4430 -0.1745
12536TIP3    H259024   5.860   6.388   2.490  1.8124 -2.3051 -0.3176
12537TIP3   OH259025   0.524   6.688  13.409 -0.1981  0.3379  0.1783
12537TIP3    H159026   0.620   6.687  13.420  0.1500  2.5284 -1.8881
12537TIP3    H259027   0.490   6.692  13.498  1.6975  1.1609  0.9232
12538TIP3   OH259028   2.965   2.098  15.386 -0.1254 -0.3410 -0.2473
12538TIP3    H159029   3.030   2.034  15.413  1.2145  0.9586 -0.2993
12538TIP3    H259030   3.013   2.180  15.377 -1.8818  0.8202  0.3176
12539TIP3   OH259031   3.462   3.699   5.334  0.3864  0.0218 -0.3878
12539TIP3    H159032   3.375   3.668   5.361  1.1622 -1.7187  0.2130
12539TIP3    H259033   3.516   3.691   5.412  1.7121 -1.3912 -1.3911
12540TIP3   OH259034   6.326   0.359   5.358  0.1916  0.4147 -0.2967
12540TIP3    H159035   6.326   0.277   5.308 -0.6208 -0.0470  0.4350
12540TIP3    H259036   6.334   0.331   5.449  2.5211  1.2807 -0.1714
12541TIP3   OH259037   3.395   4.557  16.678  0.0538 -0.1287  0.2054
12541TIP3    H159038   3.436   4.482  16.633  0.1217  0.9855 -1.7248
12541TIP3    H259039   3.306   4.528  16.697  0.3606 -1.0184  0.3177
12542TIP3   OH259040   6.329   1.602  13.281  0.6038 -0.3168  0.1563
12542TIP3    H159041   6.395   1.668  13.257 -0.1713  0.3405 -0.2088
12542TIP3    H259042   6.380   1.523  13.298  1.5086  0.2291  0.0664
12543TIP3   OH259043   5.501   2.437   4.310  0.0211 -0.2699  0.2181
12543TIP3    H159044   5.480   2.384   4.387  0.5123  0.3482  0.7841
12543TIP3    H259045   5.466   2.387   4.237  0.6702 -1.4959  0.7189
12544TIP3   OH259046   2.068   3.573  14.446 -0.2242 -0.0344 -0.1704
12544TIP3    H159047   2.106   3.496  14.488 -0.0689  1.0427  1.7549
12544TIP3    H259048   2.108   3.575  14.359  1.0826 -1.1602  0.3739
12545TIP3   OH259049   3.340   3.852   0.579 -0.1396 -0.2479  0.2996
12545TIP3    H159050   3.425   3.894   0.593  0.0210 -0.4585 -0.0242
12545TIP3    H259051   3.278   3.906   0.628 -0.0028  0.6118 -0.4448
12546TIP3   OH259052   4.216   1.910  11.633  0.0391 -0.6731  0.7212
12546TIP3    H159053   4.256   1.938  11.551  0.5126 -0.7613  0.9198
12546TIP3    H259054   4.266   1.833  11.659 -0.7665 -1.2639  0.5701
12547TIP3   OH259055   2.133   6.418   3.985 -0.0964 -0.2129 -0.0636
12547TIP3    H159056   2.057   6.390   4.036  0.7602 -0.1856  1.3053
12547TIP3    H259057   2.196   6.447   4.051  1.1078 -0.2660 -1.1503
12548TIP3   OH259058   4.974   2.460  17.016  0.2699  0.0663  0.3158
12548TIP3    H159059   4.952   2.435  17.106  1.0776  0.3027  0.5903
12548TIP3    H259060   4.943   2.387  16.963  1.5137 -1.0041  0.9869
12549TIP3   OH259061   4.841   4.352   3.032  0.3670 -0.6956 -0.0918
12549TIP3    H159062   4.804   4.396   3.109  1.4068 -0.8445  0.5108
12549TIP3    H259063   4.773   4.360   2.965 -0.6295 -0.6931  0.8814
12550TIP3   OH259064   1.035   3.049  11.991  0.0999  0.0212 -0.4231
12550TIP3    H159065   0.960   3.103  12.015 -0.0419  0.0728 -0.9814
12550TIP3    H259066   1.108   3.086  12.041 -0.2786 -0.1516  0.2752
12551TIP3   OH259067   2.599   0.731  16.470  0.5708 -0.0755 -0.3662
12551TIP3    H159068   2.597   0.816  16.514  2.0915 -0.2928  0.1904
12551TIP3    H259069   2.591   0.752  16.377  0.1530  0.6123 -0.1831
12552TIP3   OH259070   6.483   5.678   4.569  0.3036 -0.1299 -0.4102
12552TIP3    H159071   6.466   5.764   4.607 -1.3732 -0.5277 -0.2173
12552TIP3    H259072   6.460   5.616   4.639  2.1986 -0.7488 -0.2746
12553TIP3   OH259073   3.430   5.609  11.445 -0.2273 -0.1145 -0.0300
12553TIP3    H159074   3.510   5.635  11.491  0.8151 -1.7015 -0.8769
12553TIP3    H259075   3.460   5.554  11.373 -2.0674 -0.4111 -0.6296
12554TIP3   OH259076   1.403   6.528   5.093  0.7032  0.5212  0.4885
12554TIP3    H159077   1.320   6.488   5.117  0.9941  0.2471  1.0567
12554TIP3    H259078   1.455   6.456   5.057  0.9922  0.5107  0.9139
12555TIP3   OH259079   2.015   4.581   3.273 -0.1439 -0.7522  0.3383
12555TIP3    H159080   1.952   4.594   3.202 -1.9333 -0.8906  1.8150
12555TIP3    H259081   1.986   4.641   3.342  1.0661 -1.1713  1.2496
12556TIP3   OH259082   1.487   4.011  15.847 -0.1186  0.0925 -0.1886
12556TIP3    H159083   1.466   4.020  15.753 -0.9568  0.6076  0.0323
12556TIP3    H259084   1.415   3.959  15.882  0.3275 -0.3125  0.1269
12557TIP3   OH259085   1.652   4.316   1.238  0.0262 -0.1031  0.2763
12557TIP3    H159086   1.588   4.362   1.292  0.4248 -0.5082  1.1141
12557TIP3    H259087   1.696   4.256   1.298 -0.0688 -1.1589 -0.6499
12558TIP3   OH259088   3.837   3.959   2.089 -0.2154 -0.0618 -0.2412
12558TIP3    H159089   3.930   3.982   2.082 -0.5796  0.8453 -3.9509
12558TIP3    H259090   3.796   4.034   2.131  0.3705  0.6749 -0.9699
12559TIP3   OH259091   5.696   3.894  14.863  0.1896 -0.1166  0.0817
12559TIP3    H159092   5.656   3.812  14.835  0.0783  0.1758 -0.6449
12559TIP3    H259093   5.622   3.954  14.874  0.1727 -0.3705  1.5704
12560TIP3   OH259094   3.656   6.345   1.920 -0.0069 -0.1435 -0.0188
12560TIP3    H159095   3.637   6.264   1.966 -2.0106 -0.1402 -0.7080
12560TIP3    H259096   3.591   6.407   1.954 -1.3991 -0.0709 -2.5201
12561TIP3   OH259097   6.274   3.775   4.880  0.1039  0.9081  0.9813
12561TIP3    H159098   6.288   3.695   4.830  1.5742  1.1939  0.8889
12561TIP3    H259099   6.198   3.756   4.935  0.2900 -0.4640  0.7962
12562TIP3   OH259100   2.996   5.437   0.042 -0.7128  0.8121 -0.3597
12562TIP3    H159101   2.914   5.406   0.081  0.1132 -0.4488  0.4304
12562TIP3    H259102   3.015   5.375  -0.028 -0.0729  0.6982 -0.0870
12563TIP3   OH259103   5.564   2.804   4.685 -0.2657  0.2103 -0.6809
12563TIP3    H159104   5.521   2.805   4.599  2.6832  1.2622 -2.3256
12563TIP3    H259105   5.619   2.725   4.682 -1.1009 -0.4543  0.8271
12564TIP3   OH259106   3.599   1.433  16.617 -0.7229 -0.6725 -0.3586
12564TIP3    H159107   3.666   1.500  16.628 -1.9671  0.6350 -0.4004
12564TIP3    H259108   3.624   1.386  16.538  0.1969 -0.2867 -0.3079
12565TIP3   OH259109   2.941   5.106   6.255 -0.0559  0.1181 -0.0010
12565TIP3    H159110   2.987   5.186   6.284  0.2019  0.0745 -0.2845
12565TIP3    H259111   2.887   5.135   6.182 -1.9091  0.5533  1.4809
12566TIP3   OH259112   1.471   0.886   4.465 -0.0449 -0.0513 -0.3673
12566TIP3    H159113   1.514   0.804   4.439 -1.8127 -1.0518 -0.3012
12566TIP3    H259114   1.404   0.858   4.527 -0.6182  1.4891 -0.2689
12567TIP3   OH259115   4.688   3.533  11.764 -0.7376  0.0780  0.0988
12567TIP3    H159116   4.737   3.615  11.764 -2.4685  1.1590  0.0621
12567TIP3    H259117   4.710   3.493  11.848  2.1342 -0.7450 -0.9436
12568TIP3   OH259118   4.724   1.503  15.810  0.3415 -0.2601 -0.1317
12568TIP3    H159119   4.704   1.593  15.836  0.9985 -0.7189  2.2216
12568TIP3    H259120   4.713   1.502  15.715 -2.6467  1.5273  0.0821
12569TIP3   OH259121   0.352   2.847   0.737  0.0466 -0.3333 -0.0072
12569TIP3    H159122   0.387   2.759   0.719 -0.4398 -0.8247  1.3929
12569TIP3    H259123   0.412   2.884   0.802 -1.3668 -0.7766  1.6220
12570TIP3   OH259124   2.474   2.074  11.118 -0.4195 -0.1490 -0.4479
12570TIP3    H159125   2.551   2.090  11.063  0.3090 -0.9602  0.3027
12570TIP3    H259126   2.498   2.000  11.173 -1.6993 -0.3326 -0.0949
12571TIP3   OH259127   2.146   2.485  14.493  0.0404  0.0425  0.1065
12571TIP3    H159128   2.203   2.538  14.437  0.5759 -0.4304  0.1939
12571TIP3    H259129   2.091   2.549  14.538 -0.5983  0.4127 -1.1680
12572TIP3   OH259130   4.691   3.742   3.476  0.6946  0.4061  0.0285
12572TIP3    H159131   4.612   3.776   3.517  0.7579  0.0517  0.4535
12572TIP3    H259132   4.732   3.689   3.544  1.7069  1.2155  0.0735
12573TIP3   OH259133   0.301   6.025   2.762  0.7463 -0.5714 -0.4577
12573TIP3    H159134   0.380   6.026   2.816 -0.5931  1.7872  1.6951
12573TIP3    H259135   0.247   5.955   2.800  1.1601 -1.1531 -0.9319
12574TIP3   OH259136   6.184   1.283  15.995 -0.1327  0.4161 -0.6489
12574TIP3    H159137   6.173   1.372  15.963 -2.0593  0.1316 -0.9226
12574TIP3    H259138   6.243   1.242  15.932  1.7263  1.7821  0.1325
12575TIP3   OH259139   2.319   3.949   1.256 -0.5507  0.0036 -0.3401
12575TIP3    H159140   2.317   4.012   1.185 -1.8968  1.8906  1.2673
12575TIP3    H259141   2.237   3.962   1.303  0.3375 -1.0468  1.6648
12576TIP3   OH259142   5.572   5.287  10.777 -0.2711  0.4988 -0.6222
12576TIP3    H159143   5.595   5.281  10.870  1.0235  0.6295 -0.9242
12576TIP3    H259144   5.586   5.379  10.755  1.0809  0.1365 -1.3541
12577TIP3   OH259145   0.540   1.166   4.378  0.0425  0.5395  0.1839
12577TIP3    H159146   0.552   1.261   4.379 -0.1585  0.5589  0.5888
12577TIP3    H259147   0.500   1.145   4.462 -0.4312  0.1603 -0.1307
12578TIP3   OH259148   6.567   5.130  14.917  0.0870  0.0834  0.4420
12578TIP3    H159149   6.538   5.040  14.902 -1.0532  0.6237 -0.7640
12578TIP3    H259150   6.533   5.152  15.004 -4.1696  0.9901 -1.2390
12579TIP3   OH259151   1.681   5.593   1.866  0.3342  0.3459 -0.3014
12579TIP3    H159152   1.642   5.612   1.781 -0.3886  0.0686 -0.0333
12579TIP3    H259153   1.613   5.612   1.929  0.0268 -1.7369  0.0748
12580TIP3   OH259154   4.479   3.212  15.956 -0.0747  0.2768  0.3811
12580TIP3    H159155   4.536   3.289  15.952 -0.5663  0.6328 -2.7700
12580TIP3    H259156   4.397   3.244  15.994 -0.0416  1.1970 -0.2774
12581TIP3   OH259157   2.864   2.598  11.752 -0.0221 -0.1380 -0.1297
12581TIP3    H159158   2.959   2.594  11.757 -0.0305  0.8559  1.0682
12581TIP3    H259159   2.838   2.508  11.731  1.1895 -0.3250 -0.9111
12582TIP3   OH259160   1.359   5.932  13.322  0.0462 -0.5965 -0.3702
12582TIP3    H159161   1.418   5.867  13.361  1.4441  0.1661 -1.1260
12582TIP3    H259162   1.355   6.003  13.387 -1.9220 -1.6079  0.7048
12583TIP3   OH259163   1.916   6.092  14.507  0.3626  0.1459 -0.7771
12583TIP3    H159164   1.850   6.110  14.573 -0.5765 -1.2472 -1.2927
12583TIP3    H259165   1.868   6.086  14.424  1.3240  0.5059 -1.3874
12584TIP3   OH259166   5.246   1.077   3.898  0.4836  0.0793 -0.2171
12584TIP3    H159167   5.183   1.146   3.874  0.2765  0.5514  1.4838
12584TIP3    H259168   5.282   1.107   3.982  2.6517 -0.4239 -0.9106
12585TIP3   OH259169   4.864   2.992  13.771 -0.5363 -0.2961 -0.0347
12585TIP3    H159170   4.799   2.941  13.723 -0.0520 -0.8112 -0.1517
12585TIP3    H259171   4.941   2.992  13.714 -0.2436 -0.1751  0.3590
12586TIP3   OH259172   6.704   0.814   4.219 -0.1062  0.0919  0.5062
12586TIP3    H159173   6.654   0.787   4.142  0.7095 -0.3654  0.1254
12586TIP3    H259174   6.772   0.872   4.184 -1.1384  1.8103  1.1731
12587TIP3   OH259175   5.182   5.652  15.374  0.0784 -0.3582 -0.3435
12587TIP3    H159176   5.134   5.731  15.349  0.4140 -0.6291 -1.9665
12587TIP3    H259177   5.119   5.601  15.424  0.1893  1.3773  1.7506
12588TIP3   OH259178   6.284   4.897   3.448 -0.0729 -0.1176 -0.2503
12588TIP3    H159179   6.303   4.946   3.368 -0.2676 -0.2948 -0.4052
12588TIP3    H259180   6.370   4.877   3.485  0.0443 -0.6457 -0.7869
12589TIP3   OH259181   0.562   4.739   5.168 -0.2404  0.0688 -0.0425
12589TIP3    H159182   0.489   4.799   5.152  0.4046  0.6886 -0.7281
12589TIP3    H259183   0.596   4.763   5.254 -0.4051  0.2403 -0.0270
12590TIP3   OH259184   0.140   3.477   3.245  0.5331  0.0491  0.2151
12590TIP3    H159185   0.138   3.563   3.287  2.7990  0.7428 -0.9669
12590TIP3    H259186   0.155   3.495   3.152 -0.0871 -1.5959 -0.2444
12591TIP3   OH259187   0.470   4.397   4.437  0.0274  0.6637 -0.5519
12591TIP3    H159188   0.551   4.365   4.399  0.7215  0.1502  1.2483
12591TIP3    H259189   0.455   4.482   4.394  2.0417  1.2356 -0.2408
12592TIP3   OH259190   4.688   3.713   1.173  0.3285 -0.5993  0.2894
12592TIP3    H159191   4.746   3.640   1.152 -1.5767 -2.0338 -0.2596
12592TIP3    H259192   4.609   3.697   1.122 -0.5187  1.3746  0.8647
12593TIP3   OH259193   2.854   2.348  15.149 -0.1793  0.1043  0.2044
12593TIP3    H159194   2.779   2.316  15.100 -0.6298  1.4202 -0.0137
12593TIP3    H259195   2.822   2.353  15.240  0.0076 -0.3973  0.3007
12594TIP3   OH259196   6.241   1.203   4.406 -0.0554 -0.1162  0.6759
12594TIP3    H159197   6.296   1.254   4.465 -1.0064  1.3854  0.3019
12594TIP3    H259198   6.301   1.173   4.338  0.1154  2.7067 -0.5198
12595TIP3   OH259199   0.433   5.377   4.421  0.1165 -0.0803  0.1670
12595TIP3    H159200   0.388   5.391   4.337 -2.7677  0.0582  1.6059
12595TIP3    H259201   0.467   5.463   4.445 -2.8818  0.9669  1.0904
12596TIP3   OH259202   6.106   2.046  14.854  0.5289 -0.2793  0.6150
12596TIP3    H159203   6.119   1.991  14.931  0.9359 -0.8695  0.1254
12596TIP3    H259204   6.025   2.013  14.815  2.1699 -2.4087 -1.2214
12597TIP3   OH259205   0.267   2.903  10.755  0.2717 -0.2489 -0.6378
12597TIP3    H159206   0.183   2.884  10.713 -0.2051 -0.0982  0.2276
12597TIP3    H259207   0.301   2.818  10.781  0.5005 -0.3299 -1.1868
12598TIP3   OH259208   6.253   6.114   1.264 -0.0177 -0.1701 -0.0838
12598TIP3    H159209   6.349   6.121   1.257  0.0427  0.4479  1.0624
12598TIP3    H259210   6.231   6.038   1.211  1.1292 -0.3677 -0.3093
12599TIP3   OH259211   2.627   3.729  15.685 -0.2690  0.7809  0.3488
12599TIP3    H159212   2.532   3.726  15.683 -0.2319 -0.5443 -1.8916
12599TIP3    H259213   2.651   3.670  15.757 -1.0873  2.1055  1.7900
12600TIP3   OH259214   4.182   4.702  13.295 -0.5550  0.0212 -0.2844
12600TIP3    H159215   4.255   4.656  13.253 -0.7294 -0.8625  0.3439
12600TIP3    H259216   4.150   4.641  13.361 -0.6457  1.1571  0.7604
12601TIP3   OH259217   1.290   6.250   3.620 -0.1527  1.1117 -0.3432
12601TIP3    H159218   1.257   6.339   3.630  0.3028  1.1272  1.2612
12601TIP3    H259219   1.280   6.231   3.527 -1.5190  2.3390 -0.4786
12602TIP3   OH259220   0.403   2.896  13.062  0.3834 -0.0939 -0.4315
12602TIP3    H159221   0.402   2.955  12.987 -1.0687  0.9525  0.3427
12602TIP3    H259222   0.333   2.833  13.044  1.0312 -0.7619 -0.6346
12603TIP3   OH259223   3.834   3.349   5.888 -0.3933  0.9291 -0.1183
12603TIP3    H159224   3.806   3.335   5.797  0.8377  1.0569 -0.5431
12603TIP3    H259225   3.801   3.272   5.935 -1.3332  1.0277 -0.6004
12604TIP3   OH259226   1.004   0.859   2.623 -0.1839 -0.5768 -0.1649
12604TIP3    H159227   1.071   0.919   2.658  0.0275 -0.5490 -0.6115
12604TIP3    H259228   0.973   0.902   2.543 -1.2182 -0.2608  0.3766
12605TIP3   OH259229   5.969   2.818  14.366  0.0633  0.5543 -0.2334
12605TIP3    H159230   5.965   2.913  14.357 -1.9856  0.7165  1.7218
12605TIP3    H259231   6.008   2.803  14.452 -0.2365 -0.3686 -0.2433
12606TIP3   OH259232   5.414   1.239   1.711  0.0122  0.1294 -0.3874
12606TIP3    H159233   5.367   1.322   1.721 -1.3129 -0.6277 -0.0290
12606TIP3    H259234   5.412   1.221   1.617  1.3808  1.0650 -0.6349
12607TIP3   OH259235   4.587   3.975  12.452  0.4521 -0.1033  0.1086
12607TIP3    H159236   4.679   3.986  12.427  0.1760  1.5679 -0.2503
12607TIP3    H259237   4.591   3.930  12.537  1.6358  0.5896  0.4489
12608TIP3   OH259238   1.161   4.097   4.671  0.3704 -0.5701 -0.3309
12608TIP3    H159239   1.191   4.010   4.696  1.0238 -0.1363  0.4717
12608TIP3    H259240   1.197   4.155   4.739  1.2756  0.5371 -1.6832
12609TIP3   OH259241   3.132   6.079   1.977  0.2304  0.3558  0.1357
12609TIP3    H159242   3.070   6.130   1.925  1.4828  2.1033  0.2415
12609TIP3    H259243   3.105   6.094   2.068 -1.5546 -2.1576  0.1037
12610TIP3   OH259244   6.142   0.743   2.037 -0.3492 -0.2283  0.4500
12610TIP3    H159245   6.180   0.737   2.125 -0.1539 -0.9723  0.3267
12610TIP3    H259246   6.063   0.688   2.042 -1.8612  1.8786  0.9131
12611TIP3   OH259247   1.861   2.368   0.201  0.4816  0.4505 -0.4604
12611TIP3    H159248   1.920   2.342   0.272  0.9717  0.5487 -0.8198
12611TIP3    H259249   1.776   2.378   0.242  1.1018  2.3139  0.5106
12612TIP3   OH259250   3.506   0.214   6.221  0.2831 -0.7158 -0.1367
12612TIP3    H159251   3.443   0.265   6.170  0.8607  0.8750  0.6762
12612TIP3    H259252   3.569   0.183   6.156  0.4340  0.4001 -0.5424
12613TIP3   OH259253   3.565   1.485  11.325 -0.6786 -0.3148  0.1683
12613TIP3    H159254   3.556   1.418  11.393  1.4503  0.1649  0.9855
12613TIP3    H259255   3.640   1.457  11.274 -0.4341  0.8884 -0.1540
12614TIP3   OH259256   0.171   1.738  14.540 -0.0472 -0.0458  0.1615
12614TIP3    H159257   0.225   1.753  14.617  3.7677 -0.1261 -2.2153
12614TIP3    H259258   0.169   1.642  14.530 -0.1877 -0.0238 -0.0300
12615TIP3   OH259259   2.100   0.870  12.374 -0.6771 -0.3850  0.5143
12615TIP3    H159260   2.138   0.786  12.348  0.8099  0.3232  0.3126
12615TIP3    H259261   2.015   0.847  12.411 -0.1752 -2.0179  0.7418
12616TIP3   OH259262   1.334   6.486  11.634  0.6103 -0.6232  0.6164
12616TIP3    H159263   1.323   6.481  11.539 -0.1074  1.6282  0.5385
12616TIP3    H259264   1.300   6.402  11.666 -0.9044 -0.6843 -0.9816
12617TIP3   OH259265   3.955   1.338   4.826 -0.6273  0.5311 -0.1054
12617TIP3    H159266   3.953   1.414   4.767 -1.2739  0.0968 -0.6577
12617TIP3    H259267   4.041   1.343   4.868  1.2151 -0.7678 -3.2873
12618TIP3   OH259268   3.642   6.708  15.924 -0.0955 -0.0995 -0.4893
12618TIP3    H159269   3.721   6.742  15.883  0.2038 -1.5373 -1.1682
12618TIP3    H259270   3.583   6.688  15.851 -1.3279  1.4475  0.0260
12619TIP3   OH259271   3.743   2.448   3.670 -0.2404  0.1128 -0.4028
12619TIP3    H159272   3.775   2.462   3.759 -0.0193 -1.0970 -0.2698
12619TIP3    H259273   3.802   2.382   3.633 -0.9197 -0.1247 -1.1018
12620TIP3   OH259274   0.585   1.874  16.492  0.5039 -0.1205 -0.5561
12620TIP3    H159275   0.568   1.956  16.446  0.0704 -0.6527 -1.3548
12620TIP3    H259276   0.648   1.828  16.437  1.6597  0.1707  0.4791
12621TIP3   OH259277   1.524   4.346   0.625 -0.2142 -0.1945  0.0175
12621TIP3    H159278   1.550   4.277   0.687 -1.2405 -0.2399  0.4191
12621TIP3    H259279   1.430   4.332   0.612 -0.7462  1.8915  1.0929
12622TIP3   OH259280   2.268   0.574  15.500 -0.3286  0.6192  0.9290
12622TIP3    H159281   2.223   0.657  15.484  0.0622  0.6189 -0.2671
12622TIP3    H259282   2.325   0.591  15.575 -0.1441  1.4771  0.6012
12623TIP3   OH259283   4.751   3.928   1.846 -0.0103  0.0524 -0.5401
12623TIP3    H159284   4.691   3.854   1.859  1.5580 -1.2881 -0.5435
12623TIP3    H259285   4.805   3.928   1.925  1.8617 -0.6499 -1.7551
12624TIP3   OH259286   1.758   2.486  11.693  0.0236  0.3162  0.1113
12624TIP3    H159287   1.723   2.575  11.701 -0.7468  0.0877 -0.6072
12624TIP3    H259288   1.683   2.429  11.714 -0.0123 -0.1769 -1.2787
12625TIP3   OH259289   0.029   3.635  12.691  0.3702  0.3004  0.2589
12625TIP3    H159290   0.045   3.714  12.742 -0.0805  0.1823  0.5838
12625TIP3    H259291  -0.050   3.597  12.729  0.2321  0.0217 -0.2970
12626TIP3   OH259292   4.988   4.908   4.821 -0.4448  0.0075  0.1490
12626TIP3    H159293   4.932   4.956   4.759 -0.7951  0.5322  0.8610
12626TIP3    H259294   5.037   4.847   4.766 -0.4687  0.7319 -0.6975
12627TIP3   OH259295   5.215   3.213   2.392 -0.9619 -0.0759 -0.0969
12627TIP3    H159296   5.140   3.260   2.355 -0.1548  0.3184 -1.2831
12627TIP3    H259297   5.195   3.121   2.375 -2.2115 -0.1758  1.6081
12628TIP3   OH259298   6.278   1.770   0.879  0.2153  0.0754  0.1828
12628TIP3    H159299   6.348   1.709   0.854  0.0255 -0.0756  0.0168
12628TIP3    H259300   6.206   1.750   0.819 -0.7637 -1.2750  1.6933
12629TIP3   OH259301   3.651   6.176   0.584  0.2908 -0.5906 -1.1300
12629TIP3    H159302   3.623   6.259   0.622 -0.8872 -1.7248  0.6054
12629TIP3    H259303   3.734   6.196   0.541  2.3444  0.6559  2.9538
12630TIP3   OH259304   0.952   1.409  12.804 -0.3813  0.4144 -0.2406
12630TIP3    H159305   0.980   1.447  12.887  1.7411  0.7682 -1.0691
12630TIP3    H259306   0.950   1.482  12.743 -0.0406 -0.1523 -0.9501
12631TIP3   OH259307   4.462   6.753   0.939 -0.4231 -0.0668  0.1418
12631TIP3    H159308   4.404   6.706   0.999 -0.9283  0.7149  0.2674
12631TIP3    H259309   4.443   6.845   0.953  0.4177  0.1827 -0.2561
12632TIP3   OH259310   5.781   4.541  15.950 -0.3822  0.2969 -0.8582
12632TIP3    H159311   5.841   4.610  15.978 -0.0834  0.2609 -1.3965
12632TIP3    H259312   5.833   4.461  15.951 -1.3677 -0.4253  2.2343
12633TIP3   OH259313   1.639   2.754   6.192 -0.5292  0.5796  0.2308
12633TIP3    H159314   1.564   2.744   6.134 -0.4234 -1.6967  0.4211
12633TIP3    H259315   1.600   2.777   6.277 -0.9882 -0.0001  0.1861
12634TIP3   OH259316   5.195   3.815   1.083 -0.1666 -0.3283  0.0484
12634TIP3    H159317   5.215   3.907   1.094 -0.3198  0.1192 -2.6727
12634TIP3    H259318   5.137   3.793   1.156  2.0185  0.9622  2.2822
12635TIP3   OH259319   5.640   5.479   1.337 -0.9181 -0.4662  0.0673
12635TIP3    H159320   5.624   5.516   1.250 -1.4140 -1.7960 -0.4400
12635TIP3    H259321   5.580   5.526   1.394 -0.4048  0.6030 -0.2487
12636TIP3   OH259322   3.853   4.638  13.628  0.3223  0.2646 -0.0367
12636TIP3    H159323   3.782   4.698  13.606  0.6000  0.7738  0.4409
12636TIP3    H259324   3.810   4.555  13.648 -0.0287  0.1273 -1.2829
12637TIP3   OH259325   2.137   1.235  12.034  0.5139 -0.1911 -0.2766
12637TIP3    H159326   2.185   1.260  11.955 -0.4438 -0.4819 -0.9675
12637TIP3    H259327   2.060   1.188  12.002 -0.7075  1.0166  0.7401
12638TIP3   OH259328   1.138   4.394  11.247 -0.1610 -0.2139 -0.5177
12638TIP3    H159329   1.138   4.463  11.180 -1.0760  0.9609  0.6289
12638TIP3    H259330   1.227   4.395  11.282 -0.7934  2.3704  1.3414
12639TIP3   OH259331   4.854   3.369  13.155 -0.2091  0.4900 -0.1336
12639TIP3    H159332   4.791   3.348  13.224 -0.2261  1.6832  0.2183
12639TIP3    H259333   4.806   3.353  13.074 -0.8921  1.1397  0.1322
12640TIP3   OH259334   3.301   2.872   0.384 -0.4081  0.0092 -0.1673
12640TIP3    H159335   3.384   2.869   0.337 -0.2956 -1.0694  0.0774
12640TIP3    H259336   3.325   2.888   0.475 -0.5759  1.2720 -0.3324
12641TIP3   OH259337   4.327   2.117  13.443 -0.8202  0.2614 -0.0516
12641TIP3    H159338   4.323   2.181  13.515  0.3316  0.0820  0.1978
12641TIP3    H259339   4.296   2.166  13.367 -0.1933  1.0621  0.1838
12642TIP3   OH259340   1.803   0.972  11.743 -0.0409  0.0981 -0.2316
12642TIP3    H159341   1.793   0.878  11.728 -1.3719  0.2303 -0.2619
12642TIP3    H259342   1.722   1.011  11.711 -0.0881  1.1088  1.0207
12643TIP3   OH259343   4.289   2.833   5.446 -0.3354 -0.3477  0.6343
12643TIP3    H159344   4.206   2.850   5.490 -0.2861 -0.6168  0.8362
12643TIP3    H259345   4.286   2.886   5.366 -0.8635 -0.6441  0.4520
12644TIP3   OH259346   3.221   4.131  11.441  0.6355  0.5448 -0.2349
12644TIP3    H159347   3.246   4.046  11.476  1.1644  0.8383  0.1241
12644TIP3    H259348   3.193   4.182  11.517  2.2662  1.3508 -0.1316
12645TIP3   OH259349   1.812   3.613   0.296 -0.0369  0.3080 -0.3432
12645TIP3    H159350   1.838   3.604   0.387  0.4225  2.1022 -0.2532
12645TIP3    H259351   1.813   3.524   0.261  2.5887 -0.1393  0.6444
12646TIP3   OH259352   1.925   3.473   3.483 -0.3312  0.4381 -0.0028
12646TIP3    H159353   1.964   3.397   3.440 -0.7463  0.0222  0.3389
12646TIP3    H259354   1.966   3.475   3.570 -0.7758  0.2285  0.2169
12647TIP3   OH259355   4.880   4.795  13.915 -1.0243 -0.2775  0.0198
12647TIP3    H159356   4.861   4.882  13.880 -0.0691  0.0583  0.2854
12647TIP3    H259357   4.974   4.798  13.937 -1.1043 -1.1878  0.5575
12648TIP3   OH259358   6.702   3.155  16.068  0.4307 -0.3006  0.2640
12648TIP3    H159359   6.680   3.207  16.145  0.0753 -0.6221  0.3773
12648TIP3    H259360   6.634   3.089  16.062  0.6835 -0.5360 -0.0905
12649TIP3   OH259361   5.113   5.591  16.811 -0.0784  0.0960 -0.1422
12649TIP3    H159362   5.069   5.668  16.777  3.8156  3.3163  1.2600
12649TIP3    H259363   5.090   5.588  16.904 -0.4236 -0.6403 -0.2437
12650TIP3   OH259364   4.451   1.683  15.560 -0.4005  0.3251 -0.0945
12650TIP3    H159365   4.366   1.713  15.527 -1.4950 -0.7011  1.6258
12650TIP3    H259366   4.513   1.705  15.491 -2.1354  0.6775 -1.6084
12651TIP3   OH259367   0.731   1.225  11.420 -0.1584  0.5623  0.0530
12651TIP3    H159368   0.676   1.232  11.342  0.1796 -2.2407 -0.5365
12651TIP3    H259369   0.669   1.226  11.493 -0.9882 -1.7012 -0.5590
12652TIP3   OH259370   4.481   5.119   1.286 -0.1079  0.0768  0.0898
12652TIP3    H159371   4.575   5.107   1.275  0.1478  1.9745 -0.0908
12652TIP3    H259372   4.467   5.213   1.278 -2.3182 -0.3190 -2.1691
12653TIP3   OH259373   5.443   3.476   3.874 -0.3080  0.1163 -0.1926
12653TIP3    H159374   5.488   3.392   3.867  3.3899  1.6827  1.8866
12653TIP3    H259375   5.417   3.482   3.965  0.3092  1.5566 -0.0890
12654TIP3   OH259376   5.336   1.232  12.177  0.2218  0.4293 -0.3222
12654TIP3    H159377   5.429   1.224  12.158  0.5557 -0.0646  1.4116
12654TIP3    H259378   5.330   1.241  12.272 -1.4278  1.7316 -0.4906
12655TIP3   OH259379   2.986   3.424   0.521  0.3530 -0.1597  0.0550
12655TIP3    H159380   2.923   3.487   0.556 -0.6834 -0.4065 -1.2875
12655TIP3    H259381   3.046   3.407   0.594  0.1131  1.6674  0.7250
12656TIP3   OH259382   6.095   1.933   5.162 -0.1391  0.3666 -0.1350
12656TIP3    H159383   6.183   1.895   5.168 -0.3635 -0.0460  0.9101
12656TIP3    H259384   6.038   1.859   5.142 -0.6285  0.0066  2.2786
12657TIP3   OH259385   3.297   5.571   5.236  0.8357  0.0932 -0.1939
12657TIP3    H159386   3.351   5.491   5.231 -1.4026 -1.5409  0.2330
12657TIP3    H259387   3.331   5.618   5.311  1.5154 -1.0278  0.2336
12658TIP3   OH259388   1.872   5.111  16.340 -0.4758  0.0770 -0.3049
12658TIP3    H159389   1.818   5.043  16.299  2.1400 -2.0031 -0.6742
12658TIP3    H259390   1.918   5.065  16.410  0.4391  1.8301  0.2969
12659TIP3   OH259391   1.014   4.753  13.056  0.4802 -0.1856  0.0509
12659TIP3    H159392   0.952   4.779  13.123  0.7577  0.0880  0.2006
12659TIP3    H259393   1.031   4.833  13.006  0.3622 -0.3608 -0.2784
12660TIP3   OH259394   3.473   4.517  12.023  0.3886 -0.3906 -0.6396
12660TIP3    H159395   3.548   4.459  12.037  0.7789 -0.0233 -1.1917
12660TIP3    H259396   3.452   4.508  11.931 -0.2944 -0.5392 -0.4740
12661TIP3   OH259397   5.389   1.602   4.941 -0.2641  0.3291  0.3858
12661TIP3    H159398   5.447   1.594   5.016  0.2838 -0.2350 -0.0875
12661TIP3    H259399   5.317   1.542   4.959  0.2672 -0.4012  0.1042
12662TIP3   OH259400   1.735   5.797  12.951  0.3147 -0.4139  0.6470
12662TIP3    H159401   1.749   5.827  13.040 -0.9701 -0.2981  0.8397
12662TIP3    H259402   1.710   5.876  12.903 -1.3049 -0.8118  0.7459
12663TIP3   OH259403   2.754   0.825  15.530  0.2761  0.6793  0.3984
12663TIP3    H159404   2.773   0.863  15.616 -1.6285  2.2470  0.2035
12663TIP3    H259405   2.660   0.842  15.517  0.6045  0.8545 -2.1571
12664TIP3   OH259406   6.116   3.007  16.751  0.2497  0.2109  0.1259
12664TIP3    H159407   6.022   3.022  16.743  0.4363  1.2353 -0.3023
12664TIP3    H259408   6.127   2.914  16.732 -0.5961  0.2456 -0.6091
12665TIP3   OH259409   0.106   0.767   5.430 -0.2096 -0.9048 -0.0281
12665TIP3    H159410   0.077   0.801   5.345  0.5038  0.0090  0.0820
12665TIP3    H259411   0.147   0.684   5.409 -4.1855 -3.1444 -0.0467
12666TIP3   OH259412   0.377   3.599  15.325  0.3024 -0.5581  0.1666
12666TIP3    H159413   0.315   3.532  15.353 -0.3368 -0.5222 -1.0950
12666TIP3    H259414   0.462   3.555  15.324  0.1065 -0.9525  0.7128
12667TIP3   OH259415   1.480   3.857  14.826 -0.2098  0.3713  0.7499
12667TIP3    H159416   1.550   3.796  14.804 -0.6547  0.2972 -0.6024
12667TIP3    H259417   1.488   3.871  14.920  1.5583  0.2897  0.6470
12668TIP3   OH259418   3.563   0.930   3.336 -0.7017 -0.2782  0.1498
12668TIP3    H159419   3.585   0.983   3.413  1.0126 -1.3926  0.4921
12668TIP3    H259420   3.587   0.984   3.261 -1.3252  0.3784  0.4197
12669TIP3   OH259421   3.680   2.724   6.079  0.1184 -0.0806  0.3580
12669TIP3    H159422   3.712   2.719   5.989 -1.0669  0.0179 -0.0844
12669TIP3    H259423   3.640   2.811   6.086  0.2963 -0.0460  1.0107
12670TIP3   OH259424   0.596   3.080   1.974 -0.2488 -0.8484  0.6756
12670TIP3    H159425   0.668   3.020   1.956 -1.1693 -1.9462  0.5145
12670TIP3    H259426   0.601   3.145   1.905  0.6989 -0.7945  0.7816
12671TIP3   OH259427   0.865   4.089   4.634 -0.3969 -0.2612  0.1394
12671TIP3    H159428   0.860   4.001   4.671 -0.0186 -0.3918 -0.1154
12671TIP3    H259429   0.956   4.116   4.648  0.0538 -0.7212 -1.5973
12672TIP3   OH259430   3.786   6.166   4.832  0.5776  0.1267 -0.2375
12672TIP3    H159431   3.857   6.216   4.792 -0.2639  1.3751 -0.1905
12672TIP3    H259432   3.729   6.144   4.759 -0.5011  1.6524  0.1106
12673TIP3   OH259433   6.294   1.952  16.581 -0.2791 -0.2963 -0.4690
12673TIP3    H159434   6.223   1.980  16.524  1.0899  0.5205 -1.8705
12673TIP3    H259435   6.318   2.031  16.629 -1.0990 -0.8658  0.9308
12674TIP3   OH259436   0.041   4.328  14.779 -0.2191  0.1784  0.1529
12674TIP3    H159437  -0.019   4.268  14.735 -0.5666 -1.1815  2.3529
12674TIP3    H259438   0.078   4.380  14.708 -0.7934 -1.8173 -1.7304
12675TIP3   OH259439   3.809   3.982  16.262  0.1736 -0.0029 -0.1583
12675TIP3    H159440   3.718   4.010  16.267  1.1056  3.3219  1.1642
12675TIP3    H259441   3.807   3.888  16.281 -2.9582 -0.1797 -0.7839
12676TIP3   OH259442   3.900   3.430   2.903 -0.4682 -0.2487  0.6020
12676TIP3    H159443   3.952   3.381   2.967  0.1324 -0.3055  0.0755
12676TIP3    H259444   3.917   3.522   2.923 -1.5309 -0.2376  1.5378
12677TIP3   OH259445   0.978   4.066   0.210  0.4747  0.3027 -0.1605
12677TIP3    H159446   0.999   4.142   0.264  1.0938 -0.5628  0.8626
12677TIP3    H259447   1.022   3.993   0.254 -0.3786 -0.7018 -0.9362
12678TIP3   OH259448   5.174   2.789   4.124  0.4800 -0.1024 -0.6288
12678TIP3    H159449   5.144   2.703   4.151 -0.7672 -0.0251 -1.6718
12678TIP3    H259450   5.094   2.837   4.101  1.1687  1.2301 -0.3841
12679TIP3   OH259451   1.709   3.933   0.084  0.6976 -0.1561 -0.3173
12679TIP3    H159452   1.718   3.837   0.086 -0.1877 -0.2748 -1.2064
12679TIP3    H259453   1.784   3.963   0.032  0.8437 -0.3751 -0.2370
12680TIP3   OH259454   2.028   4.700   2.056 -0.6439  0.4398 -0.0682
12680TIP3    H159455   1.983   4.637   1.999  0.0605  1.6017 -1.9867
12680TIP3    H259456   2.115   4.710   2.018  0.0804  0.8247  1.5905
12681TIP3   OH259457   3.101   2.930   0.209 -0.3367 -0.0953  0.0248
12681TIP3    H159458   3.158   2.918   0.285 -1.3971  0.4251  0.9423
12681TIP3    H259459   3.160   2.934   0.135  0.6821 -1.5628  0.6969
12682TIP3   OH259460   1.941   0.299  17.006  0.1007  0.1912 -0.5304
12682TIP3    H159461   1.854   0.299  17.046 -0.7839 -0.8674 -2.3258
12682TIP3    H259462   1.988   0.227  17.050  0.9253  2.0970  1.9768
12683TIP3   OH259463   2.351   3.939   0.101 -0.4289 -0.4624 -0.4220
12683TIP3    H159464   2.446   3.943   0.092 -0.4551 -0.9363 -1.0119
12683TIP3    H259465   2.323   3.879   0.032 -1.2232  0.2056 -0.6946
12684TIP3   OH259466   3.284   5.589   4.478  0.2202 -0.2224 -0.9177
12684TIP3    H159467   3.367   5.637   4.475  0.5585 -0.8453 -2.3219
12684TIP3    H259468   3.270   5.570   4.571  1.8974 -0.5076 -0.6968
12685TIP3   OH259469   6.611   2.954  12.026 -0.4273 -0.6086  0.3464
12685TIP3    H159470   6.673   2.904  11.972 -0.5889 -1.9068  1.2953
12685TIP3    H259471   6.665   2.988  12.098 -0.5740 -0.6705  0.4864
12686TIP3   OH259472   5.002   1.197  16.912  0.2827 -0.0627 -0.2058
12686TIP3    H159473   5.047   1.131  16.860  1.6459  0.4507  0.2704
12686TIP3    H259474   5.046   1.279  16.890  2.7252 -0.1489  3.5897
12687TIP3   OH259475   6.582   3.652  14.374 -0.4923  0.5354  0.4440
12687TIP3    H159476   6.561   3.602  14.453 -1.2934  1.5202  0.8755
12687TIP3    H259477   6.665   3.695  14.395 -0.0237 -0.2368  0.2332
12688TIP3   OH259478   1.799   1.058   1.869  0.5355 -0.3552 -0.3714
12688TIP3    H159479   1.827   1.137   1.822 -0.0918 -0.8269 -1.5867
12688TIP3    H259480   1.804   1.082   1.962  0.4709  1.0734 -0.7146
12689TIP3   OH259481   0.363   4.401   2.850 -0.6284 -0.0161  0.1179
12689TIP3    H159482   0.307   4.478   2.864 -0.3874 -0.2860  3.2366
12689TIP3    H259483   0.452   4.433   2.862 -0.2359 -0.1974 -1.8803
12690TIP3   OH259484   3.724   3.325   3.971  0.4949 -0.1289  0.2331
12690TIP3    H159485   3.770   3.262   4.026  1.3607 -0.2679 -0.6190
12690TIP3    H259486   3.783   3.401   3.968  0.2846  0.0183 -0.1912
12691TIP3   OH259487   3.145   6.478  13.053  0.0580 -0.6217 -0.0087
12691TIP3    H159488   3.165   6.494  13.145 -1.4608 -0.1738  0.2774
12691TIP3    H259489   3.126   6.385  13.048 -1.1149 -0.4249  0.4184
12692TIP3   OH259490   2.747   2.848  16.869 -0.2791 -0.3850 -0.2024
12692TIP3    H159491   2.723   2.763  16.832  0.3818 -1.4925  1.7857
12692TIP3    H259492   2.730   2.839  16.963  1.8745  0.9302  0.3658
12693TIP3   OH259493   2.474   2.271  14.735  0.2293  0.1322 -0.7086
12693TIP3    H159494   2.459   2.361  14.706 -0.2811 -0.3103 -1.8528
12693TIP3    H259495   2.389   2.240  14.764  0.5769  0.2950  0.5536
12694TIP3   OH259496   1.181   5.476   3.656  0.0800 -0.1939 -0.2181
12694TIP3    H159497   1.219   5.472   3.568 -0.6541 -2.0239 -0.4842
12694TIP3    H259498   1.117   5.405   3.658 -0.2427  0.1102  1.6541
12695TIP3   OH259499   0.685   0.662   3.296 -0.2581  0.5708 -0.1998
12695TIP3    H159500   0.752   0.705   3.348 -1.6277  1.5521  0.8257
12695TIP3    H259501   0.635   0.734   3.257 -1.2619 -0.1209 -0.2245
12696TIP3   OH259502   0.445   5.831  12.739  0.5757  0.4209  0.2013
12696TIP3    H159503   0.418   5.773  12.810  0.9819  1.9278  1.6696
12696TIP3    H259504   0.364   5.851  12.693 -0.1969  1.5182  1.9299
12697TIP3   OH259505   1.880   1.283   0.006 -0.6736  0.3861  0.2051
12697TIP3    H159506   1.896   1.257  -0.084  0.3059  0.8409  0.2320
12697TIP3    H259507   1.865   1.201   0.053 -1.7662  0.1892 -0.4637
12698TIP3   OH259508   3.058   0.025  13.195  0.2215  0.4932 -0.2819
12698TIP3    H159509   3.062   0.058  13.285  1.4168 -3.1499  1.1734
12698TIP3    H259510   2.965   0.014  13.177 -0.0785  2.1114  0.0923
12699TIP3   OH259511   4.484   6.635  16.454  0.0929  0.0573 -0.1709
12699TIP3    H159512   4.479   6.613  16.547  3.7695 -1.4563 -0.1852
12699TIP3    H259513   4.504   6.553  16.411  1.5738  1.2658 -1.9044
12700TIP3   OH259514   4.651   5.718  10.432  0.0145 -0.1534  0.2935
12700TIP3    H159515   4.589   5.730  10.360  1.6674  0.7646 -1.0517
12700TIP3    H259516   4.597   5.693  10.507 -1.6766 -2.2817 -1.4932
12701TIP3   OH259517   3.346   4.520   0.256  0.4008  0.5061 -0.1759
12701TIP3    H159518   3.374   4.512   0.164  0.3525  3.2655 -0.4886
12701TIP3    H259519   3.257   4.555   0.250  0.3349  0.5441  0.9578
12702TIP3   OH259520   5.135   5.630   2.953 -0.6883  0.4458 -0.1198
12702TIP3    H159521   5.072   5.600   3.019  0.4198 -2.7839 -0.3525
12702TIP3    H259522   5.116   5.723   2.943 -1.3723  1.0042  4.2213
12703TIP3   OH259523   3.622   0.743   1.492 -0.0681 -0.2777 -0.4555
12703TIP3    H159524   3.701   0.697   1.520  0.9255  1.5857 -0.0392
12703TIP3    H259525   3.644   0.835   1.498 -1.4254  0.2959 -2.7992
12704TIP3   OH259526   0.839   0.297   2.425 -0.6295  0.0352 -0.4600
12704TIP3    H159527   0.823   0.321   2.516 -2.4456 -1.7699 -0.2517
12704TIP3    H259528   0.909   0.232   2.429  1.7530  2.3991 -0.7344
12705TIP3   OH259529   5.664   5.640  11.850  0.0340 -0.2272 -0.3480
12705TIP3    H159530   5.680   5.726  11.888  0.7193 -1.1388  1.5532
12705TIP3    H259531   5.618   5.591  11.919  1.8347 -2.1352 -0.3984
12706TIP3   OH259532   5.444   0.797   3.293  0.5992  0.6733  0.4169
12706TIP3    H159533   5.500   0.857   3.342  1.2067  0.4112  0.0642
12706TIP3    H259534   5.357   0.808   3.331  0.6871  1.8201  0.3109
12707TIP3   OH259535   2.106   0.178   1.124  0.2395 -0.2762  0.0719
12707TIP3    H159536   2.136   0.176   1.215  2.4821 -0.4653 -0.6012
12707TIP3    H259537   2.115   0.269   1.097  2.2580 -0.6471 -0.7059
12708TIP3   OH259538   3.786   3.319  11.595  0.2488 -0.3097  0.2094
12708TIP3    H159539   3.696   3.285  11.593  0.5137 -1.0198  0.2028
12708TIP3    H259540   3.810   3.331  11.504 -0.3292  1.2236  0.2346
12709TIP3   OH259541   0.164   6.722   5.970 -0.4075  0.5545 -0.0822
12709TIP3    H159542   0.156   6.661   5.897  0.6033  0.1644  0.1220
12709TIP3    H259543   0.084   6.708   6.021 -0.1055 -0.7516  0.0677
12710TIP3   OH259544   3.632   0.403   2.870  0.1463 -0.0282  0.1411
12710TIP3    H159545   3.569   0.474   2.861 -1.8744 -1.6558  0.4839
12710TIP3    H259546   3.639   0.388   2.965 -0.8868 -1.4184  0.0338
12711TIP3   OH259547   3.042   1.532  13.135 -0.5584  0.1077  0.2054
12711TIP3    H159548   3.111   1.572  13.187 -0.5964 -0.5601  0.7892
12711TIP3    H259549   2.964   1.535  13.191 -1.4750  2.3913 -1.0718
12712TIP3   OH259550   4.739   3.444  15.030 -0.3174  0.0893 -0.0658
12712TIP3    H159551   4.662   3.423  15.084  1.2251  0.6167  2.5011
12712TIP3    H259552   4.793   3.365  15.035 -0.1156  0.1805 -0.8064
12713TIP3   OH259553   3.756   0.842   4.866  0.0598 -0.3763 -0.4769
12713TIP3    H159554   3.680   0.886   4.828 -0.6653 -1.0396  0.1907
12713TIP3    H259555   3.742   0.749   4.850  0.5032 -0.5422  0.0580
12714TIP3   OH259556   2.286   0.964   4.637 -0.4159  0.3063  0.2504
12714TIP3    H159557   2.206   0.911   4.633 -1.0275  1.1453  0.8900
12714TIP3    H259558   2.256   1.054   4.627  0.3412  0.7081  1.3798
12715TIP3   OH259559   1.019   3.465   2.088  0.3747  0.0125  0.1049
12715TIP3    H159560   1.001   3.390   2.032  2.6455 -2.7373  2.6929
12715TIP3    H259561   1.082   3.518   2.039 -1.8039  0.7855 -2.0641
12716TIP3   OH259562   0.890   4.014  11.512  0.1507 -0.0764 -0.2631
12716TIP3    H159563   0.827   3.966  11.566 -0.1669 -0.2983 -0.8182
12716TIP3    H259564   0.943   4.063  11.575 -1.0008  0.6275  0.1939
12717TIP3   OH259565   1.323   2.558  13.326 -0.1025 -0.0912 -0.7653
12717TIP3    H159566   1.235   2.551  13.363 -0.3093 -2.6347 -1.5569
12717TIP3    H259567   1.318   2.631  13.265 -1.6991 -0.2296 -0.8423
12718TIP3   OH259568   2.491   0.670   5.711 -0.8169 -0.2946 -0.0945
12718TIP3    H159569   2.406   0.714   5.708 -0.1150  1.1913  0.7156
12718TIP3    H259570   2.534   0.705   5.789  0.8347 -0.4454 -0.8829
12719TIP3   OH259571   3.931   0.894  15.155 -0.1114 -0.0833 -0.2055
12719TIP3    H159572   4.021   0.868  15.138 -0.1383  0.6342 -1.6439
12719TIP3    H259573   3.938   0.967  15.217  0.3499  0.2844 -0.6770
12720TIP3   OH259574   6.711   5.586  15.286  0.5533  0.0290  0.1165
12720TIP3    H159575   6.698   5.680  15.293  1.0255  0.1283 -0.2821
12720TIP3    H259576   6.787   5.568  15.342  1.0832  0.0416 -0.5813
12721TIP3   OH259577   4.564   2.447  14.104 -0.3381 -0.2634 -0.5646
12721TIP3    H159578   4.604   2.506  14.168  1.2148 -1.1057 -0.7012
12721TIP3    H259579   4.618   2.368  14.108 -0.7080 -0.6355 -2.3383
12722TIP3   OH259580   4.687   4.049   3.249 -0.7390 -0.0343  0.7745
12722TIP3    H159581   4.779   4.027   3.262 -0.2135  1.1556 -0.6656
12722TIP3    H259582   4.670   4.119   3.311  0.1353  1.6304 -0.7744
12723TIP3   OH259583   0.718   5.106   4.777 -0.1711  0.2398  0.0125
12723TIP3    H159584   0.731   5.052   4.855 -0.9047 -0.8985 -0.6340
12723TIP3    H259585   0.632   5.082   4.745  1.0242 -1.0846 -2.4946
12724TIP3   OH259586   3.555   4.770   2.245 -0.3278  0.2317  0.1025
12724TIP3    H159587   3.635   4.748   2.294 -0.0726  1.0829  0.0714
12724TIP3    H259588   3.578   4.849   2.196 -0.8574 -0.1300 -0.7397
12725TIP3   OH259589   0.325   5.835   2.486 -0.3157  0.0268  0.4980
12725TIP3    H159590   0.244   5.794   2.514 -0.9013  1.1218  0.4453
12725TIP3    H259591   0.347   5.897   2.556  0.0076  0.3522  0.1196
12726TIP3   OH259592   2.459   3.157   2.133 -0.3582 -0.3732  0.0032
12726TIP3    H159593   2.425   3.080   2.088 -0.8185 -0.7399  0.9560
12726TIP3    H259594   2.420   3.153   2.221  1.5944 -0.4198  0.9138
12727TIP3   OH259595   1.872   5.848  15.151 -0.2306 -0.1776  0.0838
12727TIP3    H159596   1.817   5.792  15.205  1.5700 -3.3246 -1.0987
12727TIP3    H259597   1.954   5.800  15.141  1.5460  2.7815 -0.9440
12728TIP3   OH259598   1.146   2.381   4.769 -0.1796  0.3495 -0.3441
12728TIP3    H159599   1.091   2.409   4.842 -0.6335  0.0252 -0.5598
12728TIP3    H259600   1.178   2.295   4.794 -1.6731 -0.5176 -1.2195
12729TIP3   OH259601   4.816   5.242   5.116 -0.2133  0.0460 -0.0308
12729TIP3    H159602   4.868   5.298   5.174 -2.7314  1.6564  0.8747
12729TIP3    H259603   4.855   5.253   5.030  2.6696 -1.1476  1.0073
12730TIP3   OH259604   2.910   5.263  15.595 -0.3785 -0.7021  0.0889
12730TIP3    H159605   2.972   5.282  15.524  0.1345 -1.2523  0.3804
12730TIP3    H259606   2.837   5.324  15.580 -0.0793 -0.5095 -0.6532
12731TIP3   OH259607   5.630   2.000  16.615  0.6978  0.0157 -0.1843
12731TIP3    H159608   5.621   2.066  16.684 -0.5591 -1.0449  0.7260
12731TIP3    H259609   5.667   1.924  16.659  0.0719 -0.6060 -0.7098
12732TIP3   OH259610   6.043   3.317   5.492  0.0941 -0.0555 -0.1407
12732TIP3    H159611   6.004   3.386   5.545 -0.1062  0.0131 -0.3727
12732TIP3    H259612   6.132   3.309   5.525  0.5250  1.1766 -0.9208
12733TIP3   OH259613   2.639   3.788   6.101  0.0196 -0.6039  0.6948
12733TIP3    H159614   2.607   3.707   6.142  0.1796 -0.2297  1.5766
12733TIP3    H259615   2.716   3.812   6.153 -0.7184  0.7584  1.1919
12734TIP3   OH259616   6.692   2.939  14.726  0.1705 -0.3464 -0.3624
12734TIP3    H159617   6.675   2.886  14.804  0.9306 -0.9079 -0.5666
12734TIP3    H259618   6.712   2.875  14.658  0.2721  0.1764 -0.8313
12735TIP3   OH259619   3.960   6.700  16.881 -0.2642  0.2648  0.4516
12735TIP3    H159620   4.046   6.726  16.913  0.7086 -0.1544 -1.6637
12735TIP3    H259621   3.944   6.755  16.805 -0.2990 -1.9146 -1.2239
12736TIP3   OH259622   4.270   0.013  16.717 -0.2069  0.4538 -0.5311
12736TIP3    H159623   4.219   0.035  16.794  0.9456  0.1964  0.3279
12736TIP3    H259624   4.274  -0.082  16.716 -1.5166  0.3784 -1.8045
12737TIP3   OH259625   4.509   0.781  15.365 -0.4154  0.2288  0.2851
12737TIP3    H159626   4.452   0.846  15.404  0.3912  0.5931  0.8884
12737TIP3    H259627   4.575   0.832  15.318  0.9129 -0.0841  1.7326
12738TIP3   OH259628   4.321   6.610   1.198  0.4241 -0.1202 -0.0967
12738TIP3    H159629   4.286   6.648   1.279  1.6062  2.1070 -0.5614
12738TIP3    H259630   4.408   6.579   1.222  0.6240  0.1929 -0.4040
12739TIP3   OH259631   1.781   2.386  15.635 -0.1088  0.1923  0.6726
12739TIP3    H159632   1.795   2.293  15.618  0.2343  0.5193 -1.0091
12739TIP3    H259633   1.747   2.389  15.724  1.8534 -1.3735  1.5381
12740TIP3   OH259634   0.932   0.004  16.776 -0.1887  0.5546 -0.1194
12740TIP3    H159635   0.993  -0.038  16.716  0.9909  1.5882  0.3037
12740TIP3    H259636   0.891  -0.068  16.824 -0.6691 -0.2431 -1.6863
12741TIP3   OH259637   1.910   5.455  14.496 -0.9143  0.4038  0.6862
12741TIP3    H159638   1.956   5.418  14.572 -0.7616 -0.5700  0.1239
12741TIP3    H259639   1.891   5.380  14.440 -1.2824  1.0812 -0.1096
12742TIP3   OH259640   6.281   6.778   3.546 -0.3172 -0.2848  0.3422
12742TIP3    H159641   6.263   6.778   3.640  1.6659  0.8606  0.8020
12742TIP3    H259642   6.231   6.852   3.512 -1.2101 -0.8333  0.4424
12743TIP3   OH259643   3.986   4.537  15.256 -0.0523  0.7701 -0.0031
12743TIP3    H159644   3.917   4.471  15.242  1.5468 -1.5449  2.1579
12743TIP3    H259645   3.958   4.586  15.333 -0.6882  1.9270 -0.9380
12744TIP3   OH259646   4.763   1.410   5.141  0.1065 -0.3024  0.7300
12744TIP3    H159647   4.856   1.429   5.155  0.3743 -1.4807  0.6707
12744TIP3    H259648   4.762   1.347   5.069 -0.9520  1.9214 -1.3273
12745TIP3   OH259649   2.681   0.502   9.720  0.5055 -0.2077 -0.5071
12745TIP3    H159650   2.604   0.528   9.669  0.3822  0.4901  0.0129
12745TIP3    H259651   2.716   0.426   9.674 -1.9519 -2.1573  0.6045
12746TIP3   OH259652   2.006   6.484  12.129 -0.2913 -0.3620 -0.2997
12746TIP3    H159653   2.053   6.423  12.186  0.7345 -1.2704 -2.0562
12746TIP3    H259654   2.072   6.547  12.100 -0.5811 -0.4697 -1.2286
12747TIP3   OH259655   2.751   2.404  10.972  0.2879 -0.6306  0.5697
12747TIP3    H159656   2.688   2.337  10.943  0.2829 -0.3039 -0.1974
12747TIP3    H259657   2.815   2.408  10.901  0.2778  0.1880  0.6029
12748TIP3   OH259658   1.831   4.436   1.514  0.6823  0.0156 -0.1105
12748TIP3    H159659   1.752   4.382   1.518 -0.4369  1.4666 -1.3297
12748TIP3    H259660   1.800   4.522   1.488  2.7329  0.5441 -1.0454
12749TIP3   OH259661   0.722   1.778  14.139 -0.7024  0.1401  0.6615
12749TIP3    H159662   0.703   1.859  14.092 -0.1325  0.4684  0.9861
12749TIP3    H259663   0.785   1.804  14.207  1.1525 -0.9415 -0.5587
12750TIP3   OH259664   4.772   3.547  16.295 -0.4617 -0.4395 -0.3083
12750TIP3    H159665   4.756   3.453  16.301 -0.3465 -0.4311  0.1450
12750TIP3    H259666   4.706   3.585  16.353 -0.8397 -0.2056 -0.8788
12751TIP3   OH259667   4.145   4.605  16.052  0.0277 -1.0975  0.4644
12751TIP3    H159668   4.094   4.685  16.064 -0.8911 -1.9800  3.2027
12751TIP3    H259669   4.233   4.636  16.030 -0.6353  0.6124  0.0918
12752TIP3   OH259670   5.201   1.841   1.588  0.3062  0.0039 -0.0211
12752TIP3    H159671   5.154   1.771   1.543  2.5157 -1.1687 -0.6312
12752TIP3    H259672   5.199   1.817   1.680 -0.1522 -0.1091 -0.0603
12753TIP3   OH259673   2.010   0.739   2.237  0.0904 -0.4849 -0.5827
12753TIP3    H159674   2.067   0.783   2.174 -0.5658  0.6331 -0.4081
12753TIP3    H259675   1.939   0.703   2.185  0.5242 -1.1905 -0.7004
12754TIP3   OH259676   4.264   2.709   0.768  0.3560  0.0062  0.0317
12754TIP3    H159677   4.226   2.769   0.833 -0.8770 -0.2022 -0.4654
12754TIP3    H259678   4.315   2.647   0.821 -0.6572 -0.1826  0.8290
12755TIP3   OH259679   4.903   6.283  16.219  0.6903 -0.0343  0.0169
12755TIP3    H159680   4.886   6.195  16.183  0.0439  0.0332  0.1404
12755TIP3    H259681   4.899   6.271  16.314  0.8654  0.0833  0.0379
12756TIP3   OH259682   2.115   5.064   0.452  0.1291  0.4168 -0.1323
12756TIP3    H159683   2.066   5.124   0.509  1.4191  0.8554  0.5334
12756TIP3    H259684   2.155   5.001   0.512  0.7802  0.3522 -0.6293
12757TIP3   OH259685   0.095   0.433   4.507 -0.3231 -0.2097 -0.3478
12757TIP3    H159686   0.035   0.445   4.434  0.7084 -2.8716 -1.7707
12757TIP3    H259687   0.169   0.385   4.469  1.8005  1.2026  1.7562
12758TIP3   OH259688   5.775   5.990  10.733  0.1804 -0.2238  0.0551
12758TIP3    H159689   5.710   6.016  10.668 -0.3545 -0.9488  0.2773
12758TIP3    H259690   5.840   6.060  10.733 -1.1911  1.1011  0.6336
12759TIP3   OH259691   0.853   2.679   2.983 -0.3202  0.0420  0.2171
12759TIP3    H159692   0.943   2.699   2.956  0.2721 -3.1924 -0.5750
12759TIP3    H259693   0.803   2.757   2.959  1.9761  1.3097 -0.7803
12760TIP3   OH259694   5.000   4.917  11.234  0.2691  0.0296  0.5831
12760TIP3    H159695   5.014   5.009  11.254  0.2189 -0.0297  0.8993
12760TIP3    H259696   5.054   4.900  11.157  1.4976 -0.0508  1.4267
12761TIP3   OH259697   0.190   0.894   2.879 -0.2803 -0.0657 -0.3629
12761TIP3    H159698   0.211   0.953   2.807  1.9391  0.6923  0.8106
12761TIP3    H259699   0.255   0.825   2.874 -0.0415  0.0417  0.9337
12762TIP3   OH259700   5.778   2.745  11.645 -0.0242 -0.0283 -0.4406
12762TIP3    H159701   5.803   2.802  11.573 -0.7353 -1.5090 -1.9331
12762TIP3    H259702   5.683   2.734  11.636 -0.1955  0.0699  0.9683
12763TIP3   OH259703   0.522   6.366  13.811 -0.3542 -0.3364  0.9222
12763TIP3    H159704   0.460   6.369  13.884  0.8145  0.2830  1.9347
12763TIP3    H259705   0.539   6.273  13.799  0.3054 -0.4143  2.2401
12764TIP3   OH259706   2.951   5.869   0.108  0.4661  0.0048  0.1057
12764TIP3    H159707   3.038   5.865   0.149  0.1493  1.2190  0.9543
12764TIP3    H259708   2.890   5.845   0.177  0.0011  1.0132  0.0641
12765TIP3   OH259709   3.649   3.189   2.741  0.0126  0.3979  0.0273
12765TIP3    H159710   3.557   3.203   2.718 -0.6160  0.6962  2.4241
12765TIP3    H259711   3.697   3.210   2.661 -1.9242  1.1744 -1.0083
12766TIP3   OH259712   1.227   5.749   2.433 -0.2399  0.1651  0.5410
12766TIP3    H159713   1.159   5.797   2.385 -1.6484 -3.1491 -1.1312
12766TIP3    H259714   1.203   5.760   2.525 -0.8377  2.0919  0.1985
12767TIP3   OH259715   5.608   4.353  12.752  0.0568  0.0824 -0.2365
12767TIP3    H159716   5.539   4.289  12.767  0.3898  0.1638  1.9846
12767TIP3    H259717   5.565   4.438  12.758  0.2320  0.1210  0.6466
12768TIP3   OH259718   6.117   0.092   0.045  0.0362  0.7980  0.6262
12768TIP3    H159719   6.141   0.085  -0.048 -0.7232 -0.2419  0.4858
12768TIP3    H259720   6.076   0.178   0.053 -1.0645  0.3979 -0.3183
12769TIP3   OH259721   1.504   5.975  12.544  0.1946  0.2251 -0.4202
12769TIP3    H159722   1.469   5.956  12.631 -0.6844  1.9025 -0.3664
12769TIP3    H259723   1.599   5.965  12.554 -0.0254 -1.7918  0.1202
12770TIP3   OH259724   3.274   2.232   2.739  0.2704 -0.3156 -0.3005
12770TIP3    H159725   3.347   2.257   2.682  0.0532  0.7112 -0.1497
12770TIP3    H259726   3.201   2.218   2.679  0.2727 -0.1125 -0.3527
12771TIP3   OH259727   5.615   1.193   0.133  0.7045 -0.1721 -0.3876
12771TIP3    H159728   5.634   1.241   0.052  0.7884 -0.4094 -0.5086
12771TIP3    H259729   5.551   1.127   0.108 -1.3796  1.4955  0.2857
12772TIP3   OH259730   3.451   4.415   5.578  0.1429 -0.3369  0.1175
12772TIP3    H159731   3.401   4.496   5.571  0.3455 -0.3042 -1.1422
12772TIP3    H259732   3.475   4.409   5.671 -0.5794  0.6089  0.3775
12773TIP3   OH259733   6.806   2.153   1.528  0.2613  0.6199 -0.0629
12773TIP3    H159734   6.736   2.160   1.464 -0.1578 -1.2693  0.1380
12773TIP3    H259735   6.765   2.173   1.612 -0.0446 -0.4399  0.0488
12774TIP3   OH259736   5.136   1.673   5.556 -0.2640  0.6093  0.4649
12774TIP3    H159737   5.167   1.752   5.600 -0.9293  0.9418  0.3435
12774TIP3    H259738   5.216   1.634   5.519  0.2028  0.7034  1.3341
12775TIP3   OH259739   6.763   2.795   5.531 -0.2130 -0.0681 -0.1039
12775TIP3    H159740   6.764   2.872   5.474  0.1953  0.0818  0.0989
12775TIP3    H259741   6.855   2.766   5.533 -0.4466 -0.8806 -0.6032
12776TIP3   OH259742   5.225   3.629   0.431 -0.1182 -0.2276 -0.1651
12776TIP3    H159743   5.156   3.600   0.491  0.2772  1.5541  1.2407
12776TIP3    H259744   5.183   3.629   0.344 -1.8497  0.6060  0.6216
12777TIP3   OH259745   2.123   0.415  16.595 -0.9633 -0.1510  0.5581
12777TIP3    H159746   2.103   0.449  16.508  0.1969  1.6043  0.9324
12777TIP3    H259747   2.217   0.429  16.606 -0.9526 -0.9836  1.8440
12778TIP3   OH259748   4.681   4.146  11.444  0.1081 -0.4087  0.0257
12778TIP3    H159749   4.659   4.206  11.372 -0.3489 -0.3004  0.2525
12778TIP3    H259750   4.752   4.189  11.491 -0.0605 -0.1548  0.0495
12779TIP3   OH259751   6.298   5.720  15.036 -0.1588 -0.0226  0.0076
12779TIP3    H159752   6.208   5.686  15.039  0.9679 -3.3306 -0.2541
12779TIP3    H259753   6.297   5.794  15.097 -3.2054  0.5790 -0.5838
12780TIP3   OH259754   3.786   6.630   6.087  0.0667 -0.7114  0.0809
12780TIP3    H159755   3.819   6.694   6.151  1.6511 -1.3352 -0.0696
12780TIP3    H259756   3.796   6.673   6.003 -2.6161  0.3613  0.2266
12781TIP3   OH259757   2.146   3.212   5.211 -0.2226 -0.4594  0.3231
12781TIP3    H159758   2.075   3.266   5.246  0.2180  0.9917 -0.9019
12781TIP3    H259759   2.112   3.179   5.128  0.1764 -0.5566  0.1980
12782TIP3   OH259760   1.779   1.521   0.762 -0.3232  0.0567  0.4355
12782TIP3    H159761   1.771   1.486   0.673  0.2483  0.5143  0.1944
12782TIP3    H259762   1.709   1.585   0.769 -1.3503 -1.0726  0.8653
12783TIP3   OH259763   5.714   2.611   6.494 -0.4844 -0.5897 -0.4745
12783TIP3    H159764   5.745   2.701   6.493 -0.8548 -0.4181  1.1250
12783TIP3    H259765   5.786   2.562   6.534 -0.6302 -0.8510 -0.5329
12784TIP3   OH259766   3.675   2.453  13.262 -0.6329 -0.2167  0.0713
12784TIP3    H159767   3.744   2.459  13.196 -1.8183  1.2802 -1.1191
12784TIP3    H259768   3.679   2.535  13.309 -1.1376 -0.4094  0.4609
12785TIP3   OH259769   1.583   2.367  15.013 -0.3251  0.3872  0.1159
12785TIP3    H159770   1.601   2.441  14.955 -1.0752  0.8113  0.4176
12785TIP3    H259771   1.529   2.403  15.083 -0.5176 -0.4015  0.3873
12786TIP3   OH259772   0.195   4.313   2.221 -0.1288 -0.2857 -0.8756
12786TIP3    H159773   0.223   4.385   2.277 -0.4618  0.5231 -1.7340
12786TIP3    H259774   0.223   4.234   2.268  0.0297  0.3834  0.1906
12787TIP3   OH259775   4.943   1.057  12.582  0.8014  0.6071 -0.1733
12787TIP3    H159776   5.006   1.089  12.517  0.4319  2.5810  0.3670
12787TIP3    H259777   4.889   1.133  12.602  0.4006 -0.1492  1.8665
12788TIP3   OH259778   5.116   2.004  14.896  0.3901  0.0926 -0.3751
12788TIP3    H159779   5.168   2.008  14.977  0.8243 -1.5542 -0.5359
12788TIP3    H259780   5.152   2.074  14.841  0.1894  1.1381  0.7855
12789TIP3   OH259781   5.282   1.743  15.259  0.7521 -0.0774 -1.0041
12789TIP3    H159782   5.220   1.682  15.299  2.4239 -0.8445  0.5621
12789TIP3    H259783   5.264   1.827  15.301  1.0018 -0.3779 -0.2867
12790TIP3   OH259784   4.270   5.693  11.543 -1.0216  0.1075  0.6179
12790TIP3    H159785   4.224   5.757  11.489 -0.3916 -0.2482 -0.3726
12790TIP3    H259786   4.363   5.714  11.532 -0.8331 -0.6617  0.6708
12791TIP3   OH259787   5.631   4.205  13.091 -0.1278  0.0966  0.3648
12791TIP3    H159788   5.644   4.220  13.185  0.1380 -2.3006  0.7657
12791TIP3    H259789   5.571   4.131  13.087 -1.1100  0.9570 -1.3974
12792TIP3   OH259790   5.850   5.054  11.742 -0.5756  0.2619 -0.1085
12792TIP3    H159791   5.813   4.991  11.804 -0.8447 -0.6400 -1.1631
12792TIP3    H259792   5.777   5.078  11.685 -1.0350  3.1141  1.4345
12793TIP3   OH259793   2.592   1.600  12.221  0.4082  0.4391  0.0117
12793TIP3    H159794   2.537   1.525  12.198  0.4545  0.4871 -0.2600
12793TIP3    H259795   2.583   1.660  12.147 -0.6676  1.2929  0.7868
12794TIP3   OH259796   6.403   0.896   0.768 -0.3249 -0.1588 -0.5359
12794TIP3    H159797   6.329   0.836   0.780 -2.2024  1.7662 -1.8919
12794TIP3    H259798   6.454   0.857   0.697 -1.2148 -0.4385 -1.0327
12795TIP3   OH259799   1.301   1.478  13.336  0.0523  0.1360  0.0883
12795TIP3    H159800   1.310   1.399  13.388  0.1316  1.1914  1.7552
12795TIP3    H259801   1.347   1.546  13.386 -0.3345  1.3252 -1.0883
12796TIP3   OH259802   3.107   5.495  11.985  1.0066 -0.5538 -0.2733
12796TIP3    H159803   3.181   5.550  12.009 -0.1199  0.4716  1.0285
12796TIP3    H259804   3.113   5.419  12.043  1.1233 -0.5561 -0.2888
12797TIP3   OH259805   1.273   0.773  15.422 -0.1397  0.2760 -0.2622
12797TIP3    H159806   1.301   0.724  15.499 -0.3697 -1.9528 -1.5116
12797TIP3    H259807   1.350   0.825  15.397  0.0393  0.7805  1.2253
12798TIP3   OH259808   1.462   2.452  15.241 -0.0844 -0.3707  0.5652
12798TIP3    H159809   1.510   2.478  15.320 -0.9597  0.4183  0.8563
12798TIP3    H259810   1.404   2.526  15.222 -0.1229 -0.6814 -0.6368
12799TIP3   OH259811   4.330   2.141   0.931  0.1194  0.5399  0.4831
12799TIP3    H159812   4.345   2.081   1.004  0.9008 -0.2100 -0.2709
12799TIP3    H259813   4.292   2.087   0.862  0.4890  0.9826 -0.0827
12800TIP3   OH259814   2.658   3.263   5.436  0.1749 -0.2238 -0.4211
12800TIP3    H159815   2.701   3.309   5.364 -2.1199  2.5892 -0.2306
12800TIP3    H259816   2.566   3.292   5.430 -0.8022 -2.5747  1.6137
12801TIP3   OH259817   3.834   3.081   1.023 -0.1370 -0.8657  0.3402
12801TIP3    H159818   3.781   3.033   1.086 -0.3969 -0.0932  0.7257
12801TIP3    H259819   3.779   3.155   0.997  0.8412  0.1026  0.9490
12802TIP3   OH259820   5.142   4.718   5.613  0.1936 -0.2496  0.9664
12802TIP3    H159821   5.198   4.795   5.604  1.4460 -1.0524  1.6356
12802TIP3    H259822   5.073   4.731   5.548  2.1450 -0.0630 -1.2008
12803TIP3   OH259823   1.682   5.757  15.359 -0.0269 -0.0024  0.4105
12803TIP3    H159824   1.601   5.794  15.325  0.7944  1.0440 -0.4766
12803TIP3    H259825   1.673   5.663  15.347 -0.6068  0.1991 -0.8012
12804TIP3   OH259826   6.275   6.733   4.764 -0.2785 -0.3688 -0.7016
12804TIP3    H159827   6.269   6.795   4.691 -2.1536 -1.6152 -1.6804
12804TIP3    H259828   6.312   6.653   4.726 -0.8441 -0.8854 -0.1909
12805TIP3   OH259829   5.897   3.532   4.553  0.2283  0.1689  0.2078
12805TIP3    H159830   5.900   3.531   4.457  2.4709  0.4155  0.2111
12805TIP3    H259831   5.932   3.447   4.579 -2.6466 -0.9129  0.8872
12806TIP3   OH259832   1.744   4.630   0.291 -0.1064  0.1709  0.1480
12806TIP3    H159833   1.691   4.574   0.234  0.7028 -1.3102  0.7907
12806TIP3    H259834   1.756   4.711   0.240  0.4372 -1.0114 -1.7210
12807TIP3   OH259835   4.857   5.155  10.457  0.1678  0.6407  0.4074
12807TIP3    H159836   4.844   5.067  10.421  0.9693  0.6335  0.1183
12807TIP3    H259837   4.799   5.211  10.405  0.0911  0.3742  0.2044
12808TIP3   OH259838   5.866   6.157   5.258 -0.4633  0.0522 -0.2632
12808TIP3    H159839   5.923   6.182   5.185  1.2305 -1.5914  0.3950
12808TIP3    H259840   5.923   6.162   5.335 -1.8889  0.6050  0.7902
12809TIP3   OH259841   3.573   6.168  15.910 -0.5746  0.1401 -0.2844
12809TIP3    H159842   3.626   6.119  15.973  1.2782  0.0974 -1.7791
12809TIP3    H259843   3.487   6.127  15.914  0.5108 -2.3464 -0.4689
12810TIP3   OH259844   5.779   0.253  13.919  0.8216 -0.6408 -0.0251
12810TIP3    H159845   5.755   0.311  13.846  1.5878 -0.2242  0.0421
12810TIP3    H259846   5.738   0.169  13.898 -1.4076  0.2465  0.5129
12811TIP3   OH259847   5.711   4.459   5.350 -0.6811  0.1832 -0.2437
12811TIP3    H159848   5.653   4.486   5.280 -0.7487  1.7217  0.3572
12811TIP3    H259849   5.797   4.495   5.326 -0.6415  0.4743  0.3175
12812TIP3   OH259850   5.397   4.453   2.895  0.1035  0.2081 -0.6304
12812TIP3    H159851   5.478   4.501   2.878 -0.1572  0.7558 -0.3419
12812TIP3    H259852   5.415   4.402   2.973 -0.9188  3.0059  1.6099
12813TIP3   OH259853   0.207   4.523   6.053 -0.3653 -0.4455 -0.1615
12813TIP3    H159854   0.293   4.539   6.094  0.5775 -1.9016 -1.4827
12813TIP3    H259855   0.149   4.505   6.127  1.4346 -3.6944  0.6446
12814TIP3   OH259856   5.021   3.154   3.707 -0.7068 -0.6583  0.4201
12814TIP3    H159857   5.000   3.247   3.715 -0.4854 -0.2833 -2.2981
12814TIP3    H259858   5.089   3.139   3.773 -1.0124  0.9976  1.1717
12815TIP3   OH259859   1.845   4.432   5.837 -0.6614 -0.4595 -0.8848
12815TIP3    H159860   1.882   4.345   5.850  1.8329  0.6514  0.2687
12815TIP3    H259861   1.901   4.472   5.770 -1.8510  0.2309 -1.4933
12816TIP3   OH259862   4.582   2.218  14.353 -0.0043  0.1746 -1.2001
12816TIP3    H159863   4.578   2.142  14.295  0.0593  0.7080 -1.9081
12816TIP3    H259864   4.634   2.187  14.428  1.6607  0.0664 -2.3362
12817TIP3   OH259865   2.867   0.821  16.954  0.4292 -0.2222 -0.5190
12817TIP3    H159866   2.878   0.891  16.890  1.7769 -0.8830 -1.0510
12817TIP3    H259867   2.816   0.754  16.907 -2.0996  0.9082  0.4364
12818TIP3   OH259868   2.203   4.314  12.176  0.0552  0.3454  0.3965
12818TIP3    H159869   2.206   4.255  12.101 -1.2153 -0.4479  0.9263
12818TIP3    H259870   2.145   4.270  12.238 -1.4389  2.4294  0.5781
12819TIP3   OH259871   0.651   5.502   5.896 -0.2527 -0.2636 -0.1921
12819TIP3    H159872   0.577   5.465   5.849 -0.8383 -0.2501  0.6821
12819TIP3    H259873   0.655   5.593   5.868  0.1578 -0.5515 -1.1001
12820TIP3   OH259874   2.868   5.897   3.658  0.2383 -0.1097 -0.1784
12820TIP3    H159875   2.919   5.954   3.715 -1.2635  0.9609  0.1833
12820TIP3    H259876   2.831   5.956   3.592 -0.8933 -0.7447 -0.1448
12821TIP3   OH259877   6.737   5.445   1.229  0.1337 -0.3065  0.9159
12821TIP3    H159878   6.692   5.526   1.253  1.1373  0.2375  1.0201
12821TIP3    H259879   6.686   5.376   1.270 -0.7537  0.2717  0.8008
12822TIP3   OH259880   6.485   1.291  12.781 -0.3972  0.8755 -0.5668
12822TIP3    H159881   6.428   1.217  12.802 -2.3068  1.7785 -2.2587
12822TIP3    H259882   6.551   1.254  12.722  0.3543 -0.0044  0.7649
12823TIP3   OH259883   3.981   4.818  13.804 -0.2262 -0.2094 -0.4765
12823TIP3    H159884   3.937   4.744  13.764 -0.4766 -1.6761  2.2786
12823TIP3    H259885   4.058   4.780  13.848 -0.7638  0.9746  1.6277
12824TIP3   OH259886   6.263   1.926  11.393  0.4303  0.2755 -0.1114
12824TIP3    H159887   6.203   1.973  11.450 -0.5279  0.0342 -0.8932
12824TIP3    H259888   6.217   1.920  11.309  0.0476 -2.8768  0.2011
12825TIP3   OH259889   2.481   2.706   4.964 -0.1919 -0.0066  0.0606
12825TIP3    H159890   2.516   2.617   4.963  0.5886  0.2918  0.2187
12825TIP3    H259891   2.415   2.707   4.894  1.2846 -0.1090 -1.3873
12826TIP3   OH259892   1.811   4.207   2.661 -0.1749 -0.1572 -0.4675
12826TIP3    H159893   1.872   4.142   2.696 -0.9095  0.2469  1.7353
12826TIP3    H259894   1.803   4.272   2.732 -1.1981  1.1337 -1.7130
12827TIP3   OH259895   6.366   4.785   1.477  0.2377 -0.5066 -0.1552
12827TIP3    H159896   6.391   4.733   1.401  2.0911  1.4432 -0.9972
12827TIP3    H259897   6.275   4.811   1.459 -0.5201 -2.8473  0.0117
12828TIP3   OH259898   5.313   1.967   4.933 -0.1854  0.7075 -0.5343
12828TIP3    H159899   5.366   1.910   4.878  1.2935  0.5024  1.0360
12828TIP3    H259900   5.376   2.026   4.974 -1.1821  0.6192  1.2114
12829TIP3   OH259901   6.245   0.660  14.624 -0.1494  0.1677 -0.3410
12829TIP3    H159902   6.244   0.642  14.530  0.6307  0.6312 -0.4455
12829TIP3    H259903   6.336   0.682  14.644 -0.3734  0.4279  0.4528
12830TIP3   OH259904   4.454   4.887  16.439 -0.1608  0.2004  0.4190
12830TIP3    H159905   4.453   4.877  16.344 -0.3519 -0.2918  0.4701
12830TIP3    H259906   4.538   4.852  16.466 -1.1554 -2.1918  0.6759
12831TIP3   OH259907   0.964   2.523   4.606  0.2591  0.1315 -0.4481
12831TIP3    H159908   0.934   2.612   4.622  0.8359  0.1288  0.7468
12831TIP3    H259909   1.014   2.499   4.684  0.8358 -0.9335 -1.1013
12832TIP3   OH259910   6.727   5.163   4.100 -0.0923  0.0418 -0.3662
12832TIP3    H159911   6.761   5.248   4.125  0.0724 -0.3987  0.9742
12832TIP3    H259912   6.652   5.149   4.158 -0.2603 -0.6283 -0.7288
12833TIP3   OH259913   1.456   0.425   4.564 -0.5369 -0.3777  0.0521
12833TIP3    H159914   1.495   0.502   4.522  0.0911  0.5192  2.1562
12833TIP3    H259915   1.386   0.461   4.619  0.5772 -1.1070  2.0475
12834TIP3   OH259916   4.497   3.301  13.773 -0.1080 -0.1773 -0.5203
12834TIP3    H159917   4.576   3.352  13.791 -1.2799  1.0530  1.5780
12834TIP3    H259918   4.498   3.233  13.841 -1.2664  0.3957  0.0931
12835TIP3   OH259919   2.503   2.456  11.988 -1.2510 -0.3283 -0.6397
12835TIP3    H159920   2.450   2.477  11.911  1.4673 -0.8731 -2.8159
12835TIP3    H259921   2.502   2.361  11.993 -2.2878 -0.2702  0.7210
12836TIP3   OH259922   6.108   5.322   3.209  0.4755 -0.2896 -0.2286
12836TIP3    H159923   6.104   5.301   3.116  0.6874  0.5900 -0.4407
12836TIP3    H259924   6.052   5.399   3.219  1.7049  0.5957  0.0808
12837TIP3   OH259925   2.856   0.381  16.128  0.0156  0.3212  0.2935
12837TIP3    H159926   2.837   0.451  16.191  0.5229  0.5984  0.1415
12837TIP3    H259927   2.942   0.347  16.154 -0.0655 -0.0019  0.1454
12838TIP3   OH259928   2.029   3.354  14.164  0.0707 -0.2716 -0.8485
12838TIP3    H159929   1.986   3.344  14.249 -1.3217  0.6017 -1.4359
12838TIP3    H259930   2.050   3.447  14.159 -1.0682 -0.0584 -2.0167
12839TIP3   OH259931   0.030   0.895  16.590 -0.2397 -0.0077 -0.0264
12839TIP3    H159932  -0.033   0.839  16.636 -1.3540 -1.0879 -2.6984
12839TIP3    H259933   0.111   0.886  16.641 -1.1800 -1.7223  1.2931
12840TIP3   OH259934   0.495   1.135   3.263 -0.0186 -0.3134 -0.1723
12840TIP3    H159935   0.444   1.187   3.202 -1.2043 -1.5821 -0.3227
12840TIP3    H259936   0.582   1.130   3.225 -0.0207  1.1106 -0.3962
12841TIP3   OH259937   0.428   3.485  15.019  0.3818 -0.6176  0.1371
12841TIP3    H159938   0.333   3.489  15.015  0.4145  1.6587  0.5372
12841TIP3    H259939   0.449   3.489  15.112  0.8949  1.5854 -0.0375
12842TIP3   OH259940   3.043   2.365   5.807  0.5202  0.4907 -0.6269
12842TIP3    H159941   2.999   2.421   5.871  1.1498 -0.0052  0.2686
12842TIP3    H259942   3.017   2.400   5.722 -0.1067  1.3452 -0.0976
12843TIP3   OH259943   6.491   2.362   0.303 -0.1254 -0.3316 -0.1449
12843TIP3    H159944   6.533   2.348   0.387  1.5023 -0.4092 -0.9300
12843TIP3    H259945   6.424   2.294   0.297  1.4976 -2.0009 -0.0176
12844TIP3   OH259946   5.948   4.023  12.183  0.6162  0.1653  0.1580
12844TIP3    H159947   5.967   4.083  12.255  0.8801  1.0013 -0.5843
12844TIP3    H259948   6.034   4.000  12.148  0.6153 -1.7805  1.2972
12845TIP3   OH259949   1.281   1.661  14.255  0.1134  0.5390  0.7192
12845TIP3    H159950   1.217   1.722  14.293 -0.5803  0.8546 -0.8593
12845TIP3    H259951   1.347   1.717  14.215 -0.1306  0.2523 -0.0956
12846TIP3   OH259952   3.896   2.837  15.083 -0.5344  0.1937  0.5128
12846TIP3    H159953   3.947   2.775  15.032 -1.2923 -0.9954  1.1676
12846TIP3    H259954   3.954   2.860  15.157 -0.8167 -0.9432  1.1071
12847TIP3   OH259955   0.881   3.502  15.312  0.5809  0.4161  0.0815
12847TIP3    H159956   0.934   3.494  15.233  0.3394  1.4437 -0.1984
12847TIP3    H259957   0.940   3.476  15.383  0.3903 -1.8715 -0.5220
12848TIP3   OH259958   4.213   0.386  15.486  0.5852 -0.1257 -0.2118
12848TIP3    H159959   4.183   0.319  15.425  0.6563 -0.5021  0.1653
12848TIP3    H259960   4.267   0.339  15.549  0.9342  0.3457 -0.1551
12849TIP3   OH259961   1.033   3.741  16.775  0.4913 -0.7209  0.2033
12849TIP3    H159962   1.012   3.718  16.866  2.0781 -0.8780  0.5667
12849TIP3    H259963   0.971   3.811  16.753  0.4367 -0.2941  1.6046
12850TIP3   OH259964   2.611   2.504   0.384 -0.2275 -0.4209  0.8257
12850TIP3    H159965   2.660   2.558   0.446 -1.6158  2.2268 -0.2332
12850TIP3    H259966   2.610   2.555   0.303  1.0154 -3.4850 -1.3178
12851TIP3   OH259967   1.612   0.648   4.503  0.2141  0.1172  0.5715
12851TIP3    H159968   1.661   0.670   4.582  0.1040  1.3163  0.3181
12851TIP3    H259969   1.679   0.644   4.434 -0.1181  3.3982 -0.1150
12852TIP3   OH259970   4.220   4.647  15.456  0.0429  0.3455  0.4713
12852TIP3    H159971   4.129   4.619  15.467  0.2363 -0.3711  0.3031
12852TIP3    H259972   4.259   4.580  15.400  0.8166  0.3510  0.9852
12853TIP3   OH259973   1.132   6.218  10.446 -0.2322  0.2640  0.8102
12853TIP3    H159974   1.107   6.310  10.437 -0.4065  0.2930  1.5093
12853TIP3    H259975   1.142   6.186  10.356 -2.7555  0.2594  0.4596
12854TIP3   OH259976   5.634   6.461   3.199  0.3721  0.1053  0.2298
12854TIP3    H159977   5.709   6.506   3.240  0.6595 -0.0541 -0.1153
12854TIP3    H259978   5.622   6.506   3.115 -0.6094  0.8383  0.7418
12855TIP3   OH259979   3.985   2.319   0.415 -0.3936  0.1389 -0.1192
12855TIP3    H159980   3.918   2.263   0.455  1.5985 -1.5035  1.1149
12855TIP3    H259981   4.020   2.369   0.488 -1.2566  2.1371 -1.0156
12856TIP3   OH259982   6.467   0.439  13.815  0.4742  0.6728  0.0603
12856TIP3    H159983   6.555   0.461  13.846  0.4286  2.0514 -0.6772
12856TIP3    H259984   6.430   0.384  13.883  1.7178  0.5140  0.6315
12857TIP3   OH259985   2.529   0.068  12.482  0.4235  0.5014  0.2263
12857TIP3    H159986   2.498   0.047  12.570 -1.3262 -1.2682 -0.7171
12857TIP3    H259987   2.609   0.118  12.496  0.3726  0.0166  2.8018
12858TIP3   OH259988   3.086   0.072   4.884 -0.1590  0.2329 -0.0894
12858TIP3    H159989   3.149   0.029   4.826  0.3338  0.4918  0.2442
12858TIP3    H259990   3.011   0.013   4.886 -0.2411  0.2829 -1.0899
12859TIP3   OH259991   4.940   6.700   1.041  0.2747 -0.2730 -0.1610
12859TIP3    H159992   4.931   6.604   1.045 -0.2258 -0.6038 -4.4898
12859TIP3    H259993   4.864   6.733   1.089 -0.2256 -2.0736  0.3729
12860TIP3   OH259994   1.767   6.651   0.971 -0.0333 -0.4054 -0.1888
12860TIP3    H159995   1.693   6.649   1.031 -0.1029  0.5921 -0.2226
12860TIP3    H259996   1.844   6.638   1.027 -0.1603 -0.4206 -0.0176
12861TIP3   OH259997   4.441   2.150  11.202  0.3950 -0.0187  0.0113
12861TIP3    H159998   4.418   2.159  11.109 -0.0521  0.9392  0.2120
12861TIP3    H259999   4.451   2.239  11.233 -0.7624 -0.2724  1.2059
12862TIP3   OH260000   6.069   3.168   0.829 -0.0327  0.0110 -0.2705
12862TIP3    H160001   5.998   3.105   0.819  0.5598 -0.4006 -2.1772
12862TIP3    H260002   6.027   3.254   0.825 -0.9047 -0.1427  2.7816
12863TIP3   OH260003   2.045   0.558   0.719 -0.2680 -0.4331 -0.4678
12863TIP3    H160004   1.981   0.625   0.744 -1.6821 -2.3311  1.2581
12863TIP3    H260005   2.024   0.539   0.628 -1.0293  0.1984 -0.4437
12864TIP3   OH260006   4.870   0.028  13.938  0.4449  0.0474  0.2439
12864TIP3    H160007   4.821   0.045  14.018  0.1506  0.6737 -0.0613
12864TIP3    H260008   4.837   0.092  13.876  2.4430  1.2658  0.3569
12865TIP3   OH260009   1.614   5.150  16.959  0.9507 -0.0520  0.1311
12865TIP3    H160010   1.521   5.160  16.940  0.9857 -1.7701 -1.2079
12865TIP3    H260011   1.626   5.193  17.044 -1.2829 -0.7150  0.8524
12866TIP3   OH260012   4.468   4.863  14.106  0.4275 -0.9384 -0.5041
12866TIP3    H160013   4.446   4.918  14.031 -0.4879 -0.6094 -0.0109
12866TIP3    H260014   4.564   4.862  14.107  0.5236  1.6685  0.1534
12867TIP3   OH260015   5.507   4.847  16.725  0.3250  0.3133  0.0647
12867TIP3    H160016   5.452   4.909  16.772  0.1410 -0.6881  1.2102
12867TIP3    H260017   5.569   4.815  16.790 -1.2218 -2.6596  0.2726
12868TIP3   OH260018   6.470   1.330   4.464  0.2162  0.6337  0.7010
12868TIP3    H160019   6.476   1.425   4.455 -0.1275  0.5801 -0.1978
12868TIP3    H260020   6.547   1.306   4.515  1.1591  1.2312 -0.3791
12869TIP3   OH260021   2.525   0.146   3.830 -0.5985 -0.0501 -0.1302
12869TIP3    H160022   2.588   0.213   3.857 -0.7679  0.3602 -0.7350
12869TIP3    H260023   2.448   0.162   3.885  0.4236 -1.6862  1.9103
12870TIP3   OH260024   2.182   6.013  15.565 -0.1708  0.6873  0.5512
12870TIP3    H160025   2.219   6.085  15.616  0.3062 -0.0449  1.2730
12870TIP3    H260026   2.196   6.037  15.474  1.9128  0.5496  0.7953
12871TIP3   OH260027   0.744   5.374   0.174 -0.1403  0.0994 -0.1444
12871TIP3    H160028   0.696   5.291   0.168 -2.2650  0.8086  3.4717
12871TIP3    H260029   0.691   5.437   0.126  0.3502 -0.2132 -1.1085
12872TIP3   OH260030   0.982   2.492  13.331 -0.4073  0.8020  0.1029
12872TIP3    H160031   0.943   2.531  13.253 -2.3883  0.9381  1.0925
12872TIP3    H260032   1.021   2.565  13.378  0.0929  0.8366 -0.3550
12873TIP3   OH260033   2.145   6.745  11.406  0.3912  0.2246 -0.5445
12873TIP3    H160034   2.235   6.718  11.390  0.9220  0.9966  0.9027
12873TIP3    H260035   2.141   6.836  11.375  0.3586  0.4641  0.1435
12874TIP3   OH260036   3.197   2.725  16.152  0.4244 -0.2260 -0.5940
12874TIP3    H160037   3.198   2.644  16.101  1.9494 -2.1828  2.3005
12874TIP3    H260038   3.116   2.720  16.203  0.6678 -0.0947 -0.1866
12875TIP3   OH260039   5.628   0.557   4.359 -0.3666  0.2257  0.0410
12875TIP3    H160040   5.641   0.465   4.383  2.2001  0.7292  0.8421
12875TIP3    H260041   5.705   0.579   4.307 -1.2520  1.7697 -0.6644
12876TIP3   OH260042   0.569   4.017  16.483 -1.0289  0.1866  0.4528
12876TIP3    H160043   0.513   4.090  16.459 -1.1723 -0.4692 -1.3617
12876TIP3    H260044   0.652   4.058  16.510 -1.1288  1.0317 -0.4571
12877TIP3   OH260045   2.504   1.536  16.990  0.2130  0.0434  0.2635
12877TIP3    H160046   2.587   1.503  17.026  0.4214 -0.5322 -0.7205
12877TIP3    H260047   2.472   1.596  17.057  1.4352  0.2850  0.6636
12878TIP3   OH260048   5.588   1.614   0.210  0.4915 -0.3604  0.3847
12878TIP3    H160049   5.527   1.683   0.235 -0.0638 -0.4352 -0.6785
12878TIP3    H260050   5.533   1.547   0.170  1.1223 -1.0542  0.6457
12879TIP3   OH260051   2.856   2.942   6.131 -0.1332  1.0334  0.5621
12879TIP3    H160052   2.940   2.932   6.086 -0.8137 -1.3827 -0.3488
12879TIP3    H260053   2.879   2.945   6.224  0.9561 -1.0195  0.4217
12880TIP3   OH260054   4.684   1.070  14.022  0.4861  0.4244 -0.5741
12880TIP3    H160055   4.600   1.091  14.063  0.5145  1.6439 -1.0887
12880TIP3    H260056   4.673   0.982  13.987 -0.8762  0.8714 -1.3546
12881TIP3   OH260057   5.951   4.045  16.803 -0.2455  0.0897 -0.1832
12881TIP3    H160058   5.944   4.138  16.822  2.4903  0.1781  0.8594
12881TIP3    H260059   6.037   4.020  16.839 -1.7805 -3.3109  1.5903
12882TIP3   OH260060   1.969   1.779  12.198 -0.0702  0.1054  0.1069
12882TIP3    H160061   1.988   1.829  12.119  0.8172  1.6162  1.2312
12882TIP3    H260062   2.018   1.823  12.267  3.8437 -4.3238  0.6706
12883TIP3   OH260063   3.212   6.081   2.506 -0.1515 -0.3025 -0.5606
12883TIP3    H160064   3.231   5.990   2.530  0.2736 -1.0210 -3.2600
12883TIP3    H260065   3.273   6.133   2.558 -0.1660 -1.5512  0.7811
12884TIP3   OH260066   4.286   4.104   5.496 -0.2972 -0.3312  0.2564
12884TIP3    H160067   4.287   4.178   5.435  0.5754  0.4745  1.2116
12884TIP3    H260068   4.361   4.119   5.553 -0.8824 -1.2613  1.3133
12885TIP3   OH260069   2.732   4.165   1.869 -0.4031 -0.6215  0.0023
12885TIP3    H160070   2.725   4.213   1.951  1.7399 -1.3163  0.6606
12885TIP3    H260071   2.792   4.216   1.816 -0.1555 -1.2327 -0.3178
12886TIP3   OH260072   5.622   4.674   1.036 -0.6070  0.3380 -0.4255
12886TIP3    H160073   5.545   4.635   1.079 -0.5114  0.4367 -0.1619
12886TIP3    H260074   5.596   4.682   0.944 -0.6556 -0.2667 -0.4650
12887TIP3   OH260075   2.431   4.821   5.320 -0.3540  0.2296  0.2381
12887TIP3    H160076   2.497   4.871   5.368 -1.0442  1.6480 -0.2193
12887TIP3    H260077   2.472   4.799   5.237 -1.1585  3.2788 -1.1201
12888TIP3   OH260078   0.487   3.006   5.806 -0.3516  0.1455  0.1376
12888TIP3    H160079   0.433   3.040   5.877  0.2675 -0.6180  1.0161
12888TIP3    H260080   0.478   2.911   5.813  0.9819  0.0021  0.2461
12889TIP3   OH260081   4.466   2.829  15.275 -0.4424 -0.0890 -0.2205
12889TIP3    H160082   4.393   2.804  15.332 -0.4807 -0.0121 -0.2351
12889TIP3    H260083   4.497   2.912  15.311  0.1427 -0.5082  0.2556
12890TIP3   OH260084   3.578   4.351   5.829  0.1630  0.2307  0.1280
12890TIP3    H160085   3.499   4.334   5.881  0.1786  0.5878  0.2700
12890TIP3    H260086   3.632   4.274   5.842 -0.0665  0.0832  0.2142
12891TIP3   OH260087   3.994   0.025  11.381  0.1725 -0.4551 -0.2679
12891TIP3    H160088   4.010   0.014  11.287 -0.3755 -0.8556 -0.3194
12891TIP3    H260089   4.075  -0.002  11.423  0.8120  0.7471 -0.6632
12892TIP3   OH260090   0.374   5.905  16.995 -0.1521  0.1558  0.0012
12892TIP3    H160091   0.371   5.961  17.072 -0.1015 -0.9681  0.8466
12892TIP3    H260092   0.286   5.867  16.989 -1.0165  2.2482 -2.0832
12893TIP3   OH260093   1.877   4.940  11.422 -0.3002  0.4545 -0.4016
12893TIP3    H160094   1.783   4.927  11.409 -0.3812  0.1650  0.3970
12893TIP3    H260095   1.902   5.003  11.355 -1.2710  1.3546  0.0566
12894TIP3   OH260096   4.665   0.081  14.748 -0.1107 -0.1496  0.4743
12894TIP3    H160097   4.670   0.118  14.660 -0.1994 -0.4140  0.3545
12894TIP3    H260098   4.754   0.056  14.769  0.2081  1.4824  1.1600
12895TIP3   OH260099   4.012   5.853  12.008  0.3772  0.1686  0.3198
12895TIP3    H160100   4.076   5.855  11.937 -1.2804  0.6967 -1.2306
12895TIP3    H260101   3.959   5.931  11.994  0.1953  0.4680  2.3703
12896TIP3   OH260102   3.395   2.066   3.060  0.0717  0.1868  0.3799
12896TIP3    H160103   3.368   1.990   3.113  2.4048 -1.6766 -0.9014
12896TIP3    H260104   3.450   2.118   3.119  1.2715 -0.9840  0.3553
12897TIP3   OH260105   0.475   3.729  14.712 -0.2283 -0.1444 -0.6702
12897TIP3    H160106   0.550   3.762  14.663 -0.1409 -0.6011 -0.8517
12897TIP3    H260107   0.503   3.642  14.741  1.0875  1.3150  3.0951
12898TIP3   OH260108   4.822   2.845  15.642 -0.5300  0.2254  0.5363
12898TIP3    H160109   4.841   2.909  15.711  0.5815  1.2643 -0.6672
12898TIP3    H260110   4.728   2.852  15.628 -0.2442  2.8805 -0.6980
12899TIP3   OH260111   4.792   3.345   1.264  0.0154  0.8525  1.0871
12899TIP3    H160112   4.813   3.406   1.194  0.7352 -0.9652 -0.3912
12899TIP3    H260113   4.798   3.259   1.223 -0.1950 -0.2681  3.2389
12900TIP3   OH260114   6.611   3.918  15.295 -0.2212 -0.0527  0.2451
12900TIP3    H160115   6.582   3.879  15.212  0.2052  0.1963 -0.0304
12900TIP3    H260116   6.548   3.887  15.360 -0.6247 -0.1674 -0.1936
12901TIP3   OH260117   0.255   1.064  11.148  0.0861 -0.3320 -0.2171
12901TIP3    H160118   0.188   1.013  11.104 -0.5370  0.7646 -0.5893
12901TIP3    H260119   0.318   1.085  11.079  0.7590 -1.2466  0.1024
12902TIP3   OH260120   3.885   4.512   1.691  0.6017 -0.2171  0.0199
12902TIP3    H160121   3.796   4.531   1.661  0.9245  0.2331 -0.6941
12902TIP3    H260122   3.941   4.547   1.621  1.4040  1.4187  1.3963
12903TIP3   OH260123   0.449   2.253  12.351  0.1342 -0.4287 -0.1399
12903TIP3    H160124   0.362   2.252  12.390  0.1526 -0.6921 -0.1051
12903TIP3    H260125   0.486   2.338  12.376 -1.1667  0.9548 -2.5191
12904TIP3   OH260126   1.119   0.731   1.056  0.0955  0.0121  0.2423
12904TIP3    H160127   1.131   0.706   0.964 -0.0798  0.2595  0.1528
12904TIP3    H260128   1.153   0.820   1.061 -1.4801  0.6447  0.0391
12905TIP3   OH260129   3.632   2.529   1.878 -0.1838  0.2649  0.0839
12905TIP3    H160130   3.643   2.533   1.783  0.4994 -2.9334 -0.0868
12905TIP3    H260131   3.560   2.468   1.892  1.0036 -0.8961  1.5745
12906TIP3   OH260132   0.681   6.810   4.826  0.1289 -0.4580  0.1824
12906TIP3    H160133   0.773   6.790   4.809 -0.6600 -2.2883 -2.4800
12906TIP3    H260134   0.634   6.774   4.751 -2.6137  2.0795  0.4893
12907TIP3   OH260135   4.701   5.241   5.619 -0.2225 -0.7280 -0.2984
12907TIP3    H160136   4.690   5.234   5.525 -0.6172 -0.2247 -0.2998
12907TIP3    H260137   4.686   5.334   5.638 -1.7085 -1.0811  0.4317
12908TIP3   OH260138   5.402   1.475   2.117  0.2399  0.5626 -0.1174
12908TIP3    H160139   5.401   1.425   2.199 -1.2540 -0.1843 -0.5544
12908TIP3    H260140   5.348   1.424   2.057  0.8171  1.3999 -1.4038
12909TIP3   OH260141   0.295   2.742   2.074 -0.5700 -0.5513  0.4088
12909TIP3    H160142   0.366   2.678   2.069 -0.5355 -0.4262 -2.2471
12909TIP3    H260143   0.328   2.819   2.028 -0.2838  1.8624  4.2659
12910TIP3   OH260144   2.595   4.796   4.065  0.4251 -0.4877 -0.3446
12910TIP3    H160145   2.644   4.878   4.067 -0.4457  0.0280  0.6003
12910TIP3    H260146   2.604   4.765   3.975  0.9501  0.5321 -0.6573
12911TIP3   OH260147   0.762   6.042  16.961 -0.0767  0.2434  0.3683
12911TIP3    H160148   0.706   6.119  16.975 -0.1198  0.4538 -0.8117
12911TIP3    H260149   0.788   6.015  17.049 -1.0878  0.8462  0.8781
12912TIP3   OH260150   0.048   5.332  15.777 -0.0328  0.0734 -0.0043
12912TIP3    H160151   0.141   5.350  15.760 -0.2460  0.5414 -0.7214
12912TIP3    H260152   0.025   5.392  15.848  0.3289 -0.3782  0.4990
12913TIP3   OH260153   5.332   1.544   3.228  0.4799  0.3348  0.2319
12913TIP3    H160154   5.237   1.530   3.228  0.7981 -2.3780  0.5703
12913TIP3    H260155   5.352   1.574   3.140 -0.3919 -2.0641 -0.8701
12914TIP3   OH260156   0.551   4.529  14.835 -0.2861 -0.0773 -0.1529
12914TIP3    H160157   0.507   4.456  14.792 -2.3516  0.0735  1.5119
12914TIP3    H260158   0.486   4.600  14.836  1.0756  1.2276 -0.2483
12915TIP3   OH260159   2.028   2.336   1.503  0.5783 -0.2680 -0.3675
12915TIP3    H160160   2.108   2.320   1.454  2.2161 -0.1727  2.0605
12915TIP3    H260161   1.980   2.253   1.499  0.5091 -0.1577 -2.2998
12916TIP3   OH260162   6.009   5.475  15.181  0.0106 -1.3071 -1.0186
12916TIP3    H160163   5.935   5.437  15.133 -1.1599  0.2128 -0.4774
12916TIP3    H260164   6.015   5.564  15.148  0.1038 -0.6959  0.6029
12917TIP3   OH260165   2.963   5.625   4.492  0.2028 -0.1695 -0.0098
12917TIP3    H160166   2.983   5.677   4.569 -0.5194  1.0143 -0.5709
12917TIP3    H260167   3.047   5.609   4.450  0.3824  1.5935 -0.4298
12918TIP3   OH260168   1.666   6.569  13.797  0.3884 -0.0566 -0.1951
12918TIP3    H160169   1.649   6.515  13.875  0.0167 -0.4642 -0.5506
12918TIP3    H260170   1.610   6.531  13.730 -1.5704  2.1021  0.0880
12919TIP3   OH260171   1.379   2.287   2.256 -0.0365 -0.0711 -0.0852
12919TIP3    H160172   1.359   2.222   2.189 -0.1611 -1.9312  1.6736
12919TIP3    H260173   1.314   2.273   2.325  1.4021  0.2425  1.4243
12920TIP3   OH260174   1.237   1.147   0.286  0.1462 -0.1067  0.5339
12920TIP3    H160175   1.292   1.213   0.328  1.1669 -0.1274 -0.6951
12920TIP3    H260176   1.196   1.192   0.213  0.9040 -0.8103 -0.3594
12921TIP3   OH260177   0.033   3.451  11.985 -0.1174  0.2356 -0.1011
12921TIP3    H160178   0.032   3.543  12.012  1.5614 -0.1282  1.3515
12921TIP3    H260179   0.085   3.451  11.904  0.8305  0.4437  0.4928
12922TIP3   OH260180   2.622   5.405   1.441 -0.5647  0.8206 -0.0512
12922TIP3    H160181   2.683   5.477   1.451  1.7177 -0.8421 -1.0368
12922TIP3    H260182   2.603   5.376   1.530 -1.0110  2.2125  0.3184
12923TIP3   OH260183   2.480   2.207   6.099 -0.4341  0.0339 -0.4620
12923TIP3    H160184   2.397   2.253   6.084 -0.4618 -0.3157 -1.4548
12923TIP3    H260185   2.458   2.114   6.091 -0.4164 -0.2217  1.7013
12924TIP3   OH260186   5.329   4.352   1.553  0.8855  0.2153 -0.0731
12924TIP3    H160187   5.270   4.292   1.599 -0.1069  1.2319  0.0031
12924TIP3    H260188   5.381   4.295   1.496  0.0691 -0.7364  0.1091
12925TIP3   OH260189   1.954   1.535   5.929 -0.2899  0.8266  0.1696
12925TIP3    H160190   1.863   1.511   5.909 -0.3318  1.1672 -0.0655
12925TIP3    H260191   1.967   1.506   6.019 -0.1518 -0.5953 -0.2757
12926TIP3   OH260192   6.480   3.432  15.807 -0.5459  0.5415  0.0675
12926TIP3    H160193   6.412   3.468  15.864 -0.7809  1.6583 -0.8866
12926TIP3    H260194   6.457   3.462  15.719  1.0894  0.7932 -0.3082
12927TIP3   OH260195   2.713   3.968   2.144  0.6544 -0.1962  0.4221
12927TIP3    H160196   2.694   3.880   2.176  0.4862 -0.3503 -0.0894
12927TIP3    H260197   2.638   3.990   2.089  0.9893  0.0209  0.0502
12928TIP3   OH260198   3.996   5.164   3.907  0.1863  0.0164 -0.6159
12928TIP3    H160199   4.000   5.079   3.951 -0.8951  0.2072 -0.1396
12928TIP3    H260200   4.021   5.144   3.816  2.7047 -0.3326  0.0717
12929TIP3   OH260201   1.467   2.034   2.773  0.0408 -0.1876  0.1114
12929TIP3    H160202   1.458   2.086   2.853 -1.7400 -1.7510  0.9951
12929TIP3    H260203   1.558   2.004   2.774 -0.1456 -0.8236  2.0181
12930TIP3   OH260204   3.259   5.114   3.708 -0.1074  0.3886  0.2220
12930TIP3    H160205   3.330   5.130   3.645 -1.1073 -1.1391 -1.3935
12930TIP3    H260206   3.303   5.081   3.786  1.0456  0.7365 -0.2588
12931TIP3   OH260207   1.308   1.288   1.494  0.2779 -0.9338 -0.2571
12931TIP3    H160208   1.397   1.305   1.464  0.4112 -0.4074  0.3994
12931TIP3    H260209   1.266   1.242   1.421  1.1592 -1.4250 -0.4640
12932TIP3   OH260210   6.244   1.071   5.157  0.3696  0.1295  0.1325
12932TIP3    H160211   6.174   1.099   5.215  0.6885  0.7834  0.2054
12932TIP3    H260212   6.266   1.149   5.106 -1.0530 -0.8225 -2.0895
12933TIP3   OH260213   1.276   2.246  15.366  0.1185  0.1318 -0.1547
12933TIP3    H160214   1.345   2.180  15.375  0.1605  0.3635  1.4318
12933TIP3    H260215   1.321   2.323  15.331  0.4723 -0.0275 -0.0528
12934TIP3   OH260216   5.827   5.877  11.710  0.1177  0.0281  0.0827
12934TIP3    H160217   5.814   5.897  11.803 -1.4501 -0.0588 -0.0831
12934TIP3    H260218   5.876   5.953  11.677 -1.8557  1.5332  0.4019
12935TIP3   OH260219   6.369   3.230  16.456 -0.4457 -0.1286  0.6652
12935TIP3    H160220   6.462   3.252  16.466 -0.3674 -0.3455  0.4147
12935TIP3    H260221   6.359   3.206  16.364  0.0450 -3.6825  1.3734
12936TIP3   OH260222   5.706   5.592   3.878  0.4413  0.0059  0.1700
12936TIP3    H160223   5.685   5.509   3.834  0.5746 -0.3356  0.7302
12936TIP3    H260224   5.800   5.586   3.896 -0.0010 -0.8558  2.4744
12937TIP3   OH260225   3.068   4.336   0.354 -0.4798  0.4694 -0.3306
12937TIP3    H160226   3.043   4.426   0.336  0.8762  0.7378 -1.0766
12937TIP3    H260227   3.148   4.344   0.407 -1.7143 -0.3276  1.7775
12938TIP3   OH260228   0.563   3.367  14.321 -0.0681  0.6431  0.4136
12938TIP3    H160229   0.644   3.395  14.278  0.6611  1.3556  2.1716
12938TIP3    H260230   0.494   3.417  14.277  0.4476  0.2536 -0.8977
12939TIP3   OH260231   5.499   5.175   3.954 -0.4833  0.1908  0.1040
12939TIP3    H160232   5.589   5.142   3.963  0.1340  1.8210  0.0930
12939TIP3    H260233   5.447   5.096   3.939  0.7892 -0.9057  1.1516
12940TIP3   OH260234   1.580   2.853   3.989 -0.2520  0.1140 -0.0682
12940TIP3    H160235   1.581   2.760   3.968  0.7878  0.5093 -2.0059
12940TIP3    H260236   1.606   2.857   4.081 -0.7647 -1.5242  0.1748
12941TIP3   OH260237   1.618   5.492  15.351  0.1202 -0.3579  0.3071
12941TIP3    H160238   1.662   5.415  15.315 -1.0449 -0.3511 -1.1856
12941TIP3    H260239   1.534   5.459  15.383 -0.3984  0.2920 -0.3743
12942TIP3   OH260240   2.634   0.152  16.005 -0.3208 -0.3323 -0.3748
12942TIP3    H160241   2.623   0.246  15.990 -0.6616 -0.2539  0.3276
12942TIP3    H260242   2.728   0.140  16.017 -0.1859 -0.2045 -1.2340
12943TIP3   OH260243   0.888   3.509  13.205 -0.3340 -0.1443 -0.1211
12943TIP3    H160244   0.822   3.450  13.243 -0.2358  0.2012  0.6059
12943TIP3    H260245   0.837   3.582  13.171 -0.3141  0.3242  0.8129
12944TIP3   OH260246   4.372   6.534  11.351  0.4289  0.4160  0.0975
12944TIP3    H160247   4.404   6.551  11.263 -0.9118  2.3052 -0.0951
12944TIP3    H260248   4.366   6.621  11.392  2.4144 -0.5049  2.6063
12945TIP3   OH260249   1.980   5.294   0.579  0.1836  0.1240  0.4994
12945TIP3    H160250   1.898   5.249   0.559  1.4993 -1.9181 -0.5828
12945TIP3    H260251   1.958   5.387   0.574 -2.3113 -0.3492  1.3907
12946TIP3   OH260252   1.699   1.362   1.744 -0.8097  0.0903 -0.2834
12946TIP3    H160253   1.713   1.435   1.804 -1.1929  0.7086 -0.9329
12946TIP3    H260254   1.774   1.367   1.684 -0.4278 -0.5247  0.1326
12947TIP3   OH260255   5.651   3.170  11.855  0.1502 -0.3532 -0.3488
12947TIP3    H160256   5.736   3.151  11.814  0.7834  0.1111  0.6953
12947TIP3    H260257   5.666   3.155  11.948 -0.1435  2.2338  0.1856
12948TIP3   OH260258   3.071   1.574   3.112  0.3917 -0.2560 -0.2592
12948TIP3    H160259   3.109   1.498   3.069 -1.1172 -2.4560  2.0181
12948TIP3    H260260   3.059   1.547   3.203 -3.2152  1.4870 -0.0448
12949TIP3   OH260261   2.146   3.784  13.850 -0.2118 -0.3294  0.5193
12949TIP3    H160262   2.091   3.714  13.816 -0.3544 -0.6241  1.3342
12949TIP3    H260263   2.104   3.865  13.821 -0.7588 -0.5600  0.6673
12950TIP3   OH260264   2.586   4.116  13.805  0.3206 -0.1829  0.1342
12950TIP3    H160265   2.492   4.119  13.789  0.3210  2.8034  0.1482
12950TIP3    H260266   2.595   4.058  13.881 -1.4715 -0.7453 -0.0361
12951TIP3   OH260267   1.649   4.209  11.194 -0.0735  0.0775 -0.4025
12951TIP3    H160268   1.695   4.284  11.231 -0.9951  0.6137 -0.3356
12951TIP3    H260269   1.698   4.188  11.114  1.6372 -0.7879  0.8141
12952TIP3   OH260270   4.058   2.971  15.263  0.3645 -0.4500 -0.1114
12952TIP3    H160271   4.132   3.006  15.213 -0.2457  1.4979  0.2603
12952TIP3    H260272   4.096   2.945  15.347  0.7239  0.0552 -0.1124
12953TIP3   OH260273   5.376   5.339   2.476 -0.3082  0.0832  0.3639
12953TIP3    H160274   5.470   5.339   2.495  0.3788  0.5146 -2.4898
12953TIP3    H260275   5.358   5.430   2.451 -0.9557 -0.4434 -1.1735
12954TIP3   OH260276   1.194   0.544  17.039  0.3215 -0.7686 -0.2353
12954TIP3    H160277   1.123   0.575  17.095 -0.8630 -1.6335 -1.1915
12954TIP3    H260278   1.273   0.555  17.091 -0.5326  0.0916  0.9179
12955TIP3   OH260279   5.927   4.839  11.536 -0.3382 -0.4503  0.2203
12955TIP3    H160280   5.888   4.766  11.583  1.3974 -1.1371  0.6824
12955TIP3    H260281   5.882   4.917  11.570 -1.8364 -1.2303  0.1008
12956TIP3   OH260282   4.088   1.774   0.031 -0.0408  0.0639  0.2604
12956TIP3    H160283   3.995   1.788   0.014 -0.0266 -0.3701 -0.1983
12956TIP3    H260284   4.124   1.747  -0.053  0.4802  0.1117  0.4628
12957TIP3   OH260285   3.140   6.739  15.150 -0.0110  0.7387  0.4742
12957TIP3    H160286   3.137   6.816  15.093 -0.3283 -0.7586 -1.6210
12957TIP3    H260287   3.231   6.710  15.147 -0.2158  0.1376  0.0019
12958TIP3   OH260288   0.749   2.408  12.071  0.3774  0.3726  0.1518
12958TIP3    H160289   0.709   2.456  12.144  0.3614  0.4946  0.0631
12958TIP3    H260290   0.675   2.379  12.018  0.3905  0.3094  0.1685
12959TIP3   OH260291   4.722   5.107  11.679  0.0832 -0.0671 -1.2127
12959TIP3    H160292   4.699   5.027  11.728 -0.0808  0.3982 -0.5068
12959TIP3    H260293   4.817   5.108  11.679  0.1153  0.6348  0.3370
12960TIP3   OH260294   1.963   6.261   2.676  0.3055 -0.6370  0.3356
12960TIP3    H160295   1.999   6.345   2.648  2.0058 -1.1639  0.7788
12960TIP3    H260296   1.895   6.241   2.612  0.1689  0.8617 -0.0273
12961TIP3   OH260297   3.557   1.762   0.610  0.5909 -0.7064 -0.0394
12961TIP3    H160298   3.541   1.680   0.657 -0.2185 -0.1204  0.7607
12961TIP3    H260299   3.469   1.794   0.587  0.9182 -0.2805 -0.7300
12962TIP3   OH260300   4.181   4.870   3.076 -0.1484 -0.3186 -0.0936
12962TIP3    H160301   4.267   4.906   3.053 -0.6316  0.4287 -0.7512
12962TIP3    H260302   4.202   4.788   3.122  0.9142 -0.1408 -0.2245
12963TIP3   OH260303   5.465   3.628  13.918 -0.3358  0.2040  0.3029
12963TIP3    H160304   5.458   3.598  13.827 -0.2790 -0.4043  0.4998
12963TIP3    H260305   5.407   3.570  13.967  0.5732 -0.2579  0.8407
12964TIP3   OH260306   5.164   4.987   5.472 -0.4442 -0.2319 -0.8606
12964TIP3    H160307   5.248   4.971   5.515 -0.3456 -0.8711 -1.2819
12964TIP3    H260308   5.176   4.958   5.382 -0.5295  1.4650 -1.4589
12965TIP3   OH260309   3.224   3.175  12.495  0.4869 -0.0045  0.1511
12965TIP3    H160310   3.273   3.106  12.539  0.7603  0.6628  0.9105
12965TIP3    H260311   3.148   3.130  12.458 -0.3927 -0.4211  2.3233
12966TIP3   OH260312   5.830   4.971  11.116  0.3479 -0.2932 -0.0056
12966TIP3    H160313   5.735   4.965  11.129  0.1721 -1.3912 -1.5533
12966TIP3    H260314   5.864   4.889  11.151  0.8647  0.4673  1.3560
12967TIP3   OH260315   4.778   6.199  16.835 -0.7098  0.1790 -0.0331
12967TIP3    H160316   4.852   6.258  16.846 -1.4720  1.5490 -1.6410
12967TIP3    H260317   4.746   6.182  16.924 -0.9501  2.9040  0.4779
12968TIP3   OH260318   2.499   3.795  16.273 -0.1780 -0.1762  0.3792
12968TIP3    H160319   2.527   3.763  16.358 -3.0221  0.5003  1.6854
12968TIP3    H260320   2.470   3.717  16.226  2.8717 -0.7911 -0.7459
12969TIP3   OH260321   1.872   5.736  14.488  0.0589 -0.5783  0.6332
12969TIP3    H160322   1.859   5.646  14.459 -1.0289 -1.6097  3.9024
12969TIP3    H260323   1.956   5.735  14.535 -0.6968 -0.3310  2.0483
12970TIP3   OH260324   4.904   6.030  12.917 -0.3947 -0.3536 -0.4047
12970TIP3    H160325   4.913   5.941  12.951 -2.0620 -1.6205 -2.9839
12970TIP3    H260326   4.810   6.041  12.902  0.1166  0.3666 -3.6808
12971TIP3   OH260327   5.631   0.862   3.793 -0.1685 -0.1159  0.6345
12971TIP3    H160328   5.700   0.806   3.757  1.2851  0.2726  2.6570
12971TIP3    H260329   5.579   0.803   3.848 -1.5530 -0.4120 -0.8967
12972TIP3   OH260330   5.384   2.425  12.244  0.0808  0.1805  0.1206
12972TIP3    H160331   5.373   2.333  12.220 -4.9742  0.4089  0.5179
12972TIP3    H260332   5.364   2.428  12.337 -0.3639  1.7341  0.0029
12973TIP3   OH260333   0.314   2.046  13.775  0.1296  0.1626 -0.2914
12973TIP3    H160334   0.385   2.104  13.748 -2.3806  4.8930  1.9801
12973TIP3    H260335   0.253   2.046  13.701 -0.2441  1.3050 -0.0114
12974TIP3   OH260336   1.135   3.405  14.852  0.0221 -0.1980 -0.1722
12974TIP3    H160337   1.168   3.327  14.808  1.4968  0.0966  0.3436
12974TIP3    H260338   1.201   3.472  14.833  0.0687  0.2495  1.4412
12975TIP3   OH260339   4.327   4.317   2.234  0.7930 -0.0603 -0.5136
12975TIP3    H160340   4.294   4.369   2.161 -0.3011 -0.3244 -0.2328
12975TIP3    H260341   4.254   4.315   2.296  0.9792 -1.5427 -0.3178
12976TIP3   OH260342   6.630   2.982   3.630 -0.4077 -0.2639  0.2379
12976TIP3    H160343   6.569   2.944   3.694  0.3419  1.3578  1.9967
12976TIP3    H260344   6.691   2.911   3.611 -0.3573 -0.6791  1.7474
12977TIP3   OH260345   4.261   3.552  16.948 -0.6075  0.8656  0.4745
12977TIP3    H160346   4.219   3.496  17.013  1.8601 -1.7853 -0.0354
12977TIP3    H260347   4.322   3.606  16.999  2.3968 -2.2241  0.4527
12978TIP3   OH260348   0.004   1.262   3.640 -0.5248 -0.6557  0.0848
12978TIP3    H160349   0.006   1.302   3.553  0.1893 -0.2756  0.2698
12978TIP3    H260350  -0.089   1.249   3.658 -0.8242  1.5357  0.3040
12979TIP3   OH260351   3.481   2.786   6.639  0.8258 -0.2688 -0.1911
12979TIP3    H160352   3.519   2.821   6.558  0.8326  0.3424  0.0682
12979TIP3    H260353   3.386   2.792   6.625  0.7756  1.7902  0.6199
12980TIP3   OH260354   2.529   6.075  16.988  0.5326 -0.3928  0.3037
12980TIP3    H160355   2.574   6.119  16.915  0.3646 -0.6227  0.0593
12980TIP3    H260356   2.598   6.025  17.031  0.2365 -2.1022 -1.0855
12981TIP3   OH260357   2.203   6.399  13.600 -1.0060  0.1012  0.0570
12981TIP3    H160358   2.114   6.367  13.616 -1.6047  1.0239 -1.2669
12981TIP3    H260359   2.192   6.470  13.537  0.7130 -0.0085 -0.4074
12982TIP3   OH260360   1.079   0.013  10.799 -0.2312 -0.1662 -0.0374
12982TIP3    H160361   1.094   0.105  10.779  1.1851 -0.1346  1.0216
12982TIP3    H260362   1.161  -0.031  10.777 -0.6896 -1.0824  0.0118
12983TIP3   OH260363   3.050   1.625  15.003 -0.0071  0.1662 -0.2852
12983TIP3    H160364   2.984   1.622  15.073 -0.9102  0.2363 -1.1145
12983TIP3    H260365   3.108   1.551  15.022  0.3983  0.8136  1.1361
12984TIP3   OH260366   4.484   5.875  12.385 -0.5506 -0.8070  0.5421
12984TIP3    H160367   4.508   5.783  12.381 -2.4901 -1.4107  1.5150
12984TIP3    H260368   4.520   5.906  12.469 -0.2615 -0.7934  0.4128
12985TIP3   OH260369   2.229   1.958   2.124  0.1163 -0.5008  0.2418
12985TIP3    H160370   2.267   1.874   2.150 -1.8075 -1.6820 -0.5521
12985TIP3    H260371   2.224   1.953   2.028  0.2452  0.6677  0.1576
12986TIP3   OH260372   5.768   1.218   1.925  0.1008 -0.1495  0.2542
12986TIP3    H160373   5.795   1.153   1.990  0.4864  0.3258  0.5758
12986TIP3    H260374   5.711   1.278   1.973 -0.6956 -0.5453 -0.1718
12987TIP3   OH260375   0.277   4.666   1.721 -0.4017  0.2132 -0.2135
12987TIP3    H160376   0.217   4.734   1.752 -3.3165 -0.6522 -3.2700
12987TIP3    H260377   0.231   4.584   1.737  2.7445 -1.2185  2.7618
12988TIP3   OH260378   2.256   6.083  13.308  0.0037  0.6224 -0.3954
12988TIP3    H160379   2.262   5.988  13.306  1.7435  0.6716  0.8049
12988TIP3    H260380   2.162   6.101  13.310 -0.4521 -1.2142  3.5311
12989TIP3   OH260381   0.675   3.582  10.835  0.1506  0.6456 -0.2138
12989TIP3    H160382   0.717   3.641  10.772  0.7495  0.4941  0.0401
12989TIP3    H260383   0.621   3.639  10.890  0.1621  0.8613 -0.4262
12990TIP3   OH260384   6.096   5.231  14.135 -0.3777 -0.4450 -0.3436
12990TIP3    H160385   6.087   5.268  14.048 -1.1580  0.2301  0.0116
12990TIP3    H260386   6.088   5.136  14.121  2.2240 -0.5800 -1.3214
12991TIP3   OH260387   5.212   6.716   3.172 -0.1941  0.1411  0.4910
12991TIP3    H160388   5.257   6.693   3.253 -0.2281  1.2009  0.8323
12991TIP3    H260389   5.158   6.640   3.151  2.2111 -1.4290 -0.2926
12992TIP3   OH260390   3.352   0.752   5.304  0.1911 -0.0994 -0.3318
12992TIP3    H160391   3.301   0.784   5.378  0.1705 -0.3675 -0.2324
12992TIP3    H260392   3.433   0.803   5.306 -1.0523  2.1381 -1.9352
12993TIP3   OH260393   2.860   1.550   0.333 -0.1471 -0.1881 -0.4138
12993TIP3    H160394   2.865   1.578   0.424 -0.4948  0.0973 -0.4798
12993TIP3    H260395   2.812   1.467   0.337  0.5998 -0.6207 -0.2534
12994TIP3   OH260396   2.650   3.676  10.767 -0.2961 -0.6190  0.5706
12994TIP3    H160397   2.744   3.683  10.787 -0.4290  0.7271  0.8772
12994TIP3    H260398   2.647   3.662  10.672  0.2149  0.6722  0.3321
12995TIP3   OH260399   4.407   5.291   1.853 -0.5283  0.1127 -0.6650
12995TIP3    H160400   4.401   5.213   1.799  0.1034  0.0817 -0.6873
12995TIP3    H260401   4.463   5.266   1.926  3.6562  1.8140 -2.9772
12996TIP3   OH260402   4.745   1.248   3.765 -0.2231 -1.1936 -0.5005
12996TIP3    H160403   4.717   1.195   3.691  3.0612  0.6424 -3.3654
12996TIP3    H260404   4.742   1.338   3.733  1.9780 -0.3665  1.3398
12997TIP3   OH260405   4.478   3.681   0.893  0.6654 -0.0495  0.6457
12997TIP3    H160406   4.538   3.626   0.842  1.2147  1.3974 -0.3556
12997TIP3    H260407   4.460   3.631   0.972  0.7692 -1.8537 -0.4142
12998TIP3   OH260408   5.448   2.605  16.258  0.0846 -0.1760  0.2927
12998TIP3    H160409   5.421   2.691  16.290 -0.6492 -0.0476 -0.6565
12998TIP3    H260410   5.410   2.598  16.170  0.5538 -1.2645  0.1592
12999TIP3   OH260411   1.799   3.668   0.036 -0.0005 -0.1533  0.4055
12999TIP3    H160412   1.864   3.611  -0.004  0.4739  1.6857 -1.6542
12999TIP3    H260413   1.792   3.637   0.126  1.3775 -2.3966 -0.1808
13000TIP3   OH260414   0.599   1.865   1.688 -0.3057  0.3331 -0.0550
13000TIP3    H160415   0.609   1.816   1.770 -0.2678 -0.5198 -0.5559
13000TIP3    H260416   0.586   1.956   1.716  1.6765  0.3947  0.8349
13001TIP3   OH260417   0.971   4.196   1.489 -0.3392 -0.3479  0.6370
13001TIP3    H160418   1.019   4.144   1.553 -0.0158 -0.2078  0.5089
13001TIP3    H260419   0.902   4.239   1.539 -0.0726 -0.2191  0.8969
13002TIP3   OH260420   1.576   3.069  12.856 -0.0234 -0.7153 -0.2156
13002TIP3    H160421   1.631   3.137  12.819  0.4991 -1.7826 -1.4946
13002TIP3    H260422   1.605   3.060  12.946  2.1360 -1.4382 -0.9310
13003TIP3   OH260423   4.201   1.560  13.103 -0.3041 -0.1314  0.0643
13003TIP3    H160424   4.225   1.489  13.163 -0.8772  0.0875  0.5578
13003TIP3    H260425   4.189   1.636  13.160 -1.2883 -0.0234 -0.2776
13004TIP3   OH260426   5.467   5.274   3.048 -0.8362 -0.5299 -0.4152
13004TIP3    H160427   5.425   5.269   2.962 -2.9061 -1.4594  0.5831
13004TIP3    H260428   5.452   5.188   3.087 -0.7224  0.1507  1.2082
13005TIP3   OH260429   1.685   4.892   3.919 -0.3197 -0.0192 -0.2372
13005TIP3    H160430   1.740   4.832   3.969  0.9607  0.4510 -1.0537
13005TIP3    H260431   1.630   4.933   3.986 -0.3723 -1.1940  0.4775
13006TIP3   OH260432   5.305   0.834   0.185 -0.0362  0.0122 -0.1968
13006TIP3    H160433   5.350   0.895   0.127  1.1141 -0.5698  0.0597
13006TIP3    H260434   5.320   0.868   0.273  1.6747 -1.2637  0.0527
13007TIP3   OH260435   5.241   1.282   1.211  1.0193 -0.4595  0.3027
13007TIP3    H160436   5.251   1.364   1.259 -0.6989 -0.3599  0.5774
13007TIP3    H260437   5.171   1.235   1.259  0.6491 -1.2341 -0.9452
13008TIP3   OH260438   1.643   4.403  13.207  0.2707 -0.0460  0.0170
13008TIP3    H160439   1.684   4.476  13.255  1.0793 -0.7908  0.4898
13008TIP3    H260440   1.713   4.370  13.150 -0.6951  0.8747 -1.7785
13009TIP3   OH260441   0.529   1.607  10.969  0.2407  0.1276 -0.4506
13009TIP3    H160442   0.517   1.662  11.046  1.1373 -0.1924 -0.0725
13009TIP3    H260443   0.514   1.665  10.895  0.1406  0.6230 -0.0453
13010TIP3   OH260444   5.052   0.991  14.150  0.1711 -0.0822 -0.1211
13010TIP3    H160445   4.971   1.000  14.200 -1.1449 -1.3183 -1.8959
13010TIP3    H260446   5.023   0.987  14.059  2.3923  1.1885 -0.9677
13011TIP3   OH260447   3.684   1.498   6.036  0.7136  0.1600 -0.2919
13011TIP3    H160448   3.606   1.496   5.980  1.2357  0.0073 -1.0184
13011TIP3    H260449   3.681   1.584   6.078 -0.6536 -0.4082  0.8496
13012TIP3   OH260450   0.990   4.073  17.013  0.0946  0.1060 -0.5854
13012TIP3    H160451   0.981   4.077  17.108  0.1126  0.1777 -0.5869
13012TIP3    H260452   1.080   4.098  16.995  0.0703  0.1670 -0.6258
13013TIP3   OH260453   4.929   1.400  12.184 -0.2923  0.5081 -0.0520
13013TIP3    H160454   4.976   1.330  12.139 -0.8631 -1.5536  2.3022
13013TIP3    H260455   4.837   1.384  12.165 -0.4294  0.6084  0.4942
13014TIP3   OH260456   6.722   1.584  16.335  0.9683 -0.3483 -0.3458
13014TIP3    H160457   6.635   1.589  16.295  1.0796  2.4407 -0.3873
13014TIP3    H260458   6.778   1.635  16.277  1.8345  0.9929  1.5822
13015TIP3   OH260459   6.020   0.902   1.815 -0.5476 -0.1517  0.0054
13015TIP3    H160460   6.074   0.975   1.844  0.3678 -0.7929 -0.0270
13015TIP3    H260461   6.026   0.839   1.887  0.2658 -0.9986 -0.7821
13016TIP3   OH260462   6.284   1.032   2.692 -0.4202  0.7271  0.0538
13016TIP3    H160463   6.357   0.972   2.704 -0.8578 -0.0889 -1.1632
13016TIP3    H260464   6.282   1.085   2.772  0.3771 -0.4362  0.8668
13017TIP3   OH260465   0.997   6.206  16.023 -0.3604  0.0872  0.4519
13017TIP3    H160466   1.028   6.199  15.933 -0.9927  1.3383  0.1137
13017TIP3    H260467   0.934   6.134  16.032  0.3982 -0.6254  0.2144
13018TIP3   OH260468   5.787   0.756  16.336  0.0975  0.2413 -0.1798
13018TIP3    H160469   5.791   0.674  16.287  1.1181  0.3207 -0.2457
13018TIP3    H260470   5.869   0.800  16.315  0.0284  0.7998  0.6982
13019TIP3   OH260471   4.323   4.513  14.516  0.1757  0.0767  0.1946
13019TIP3    H160472   4.290   4.429  14.485  1.4962 -0.0377 -1.0638
13019TIP3    H260473   4.353   4.496  14.605  2.0159 -1.3074 -0.6117
13020TIP3   OH260474   0.310   4.877   0.413  0.0129 -0.4102  0.0798
13020TIP3    H160475   0.282   4.903   0.501 -0.2768  2.4833 -0.7754
13020TIP3    H260476   0.402   4.901   0.409 -0.2937  0.7133 -0.7925
13021TIP3   OH260477   0.557   4.987   4.374 -0.2707 -0.4433 -0.1548
13021TIP3    H160478   0.647   4.959   4.361  0.7681  1.5907  1.9271
13021TIP3    H260479   0.559   5.039   4.455 -2.4943  3.0098 -2.0624
13022TIP3   OH260480   5.990   4.557   5.348 -0.2247 -0.0981 -0.5680
13022TIP3    H160481   6.035   4.479   5.379 -1.2121 -0.9592 -1.2189
13022TIP3    H260482   6.060   4.620   5.329  0.6486 -1.1496 -0.9165
13023TIP3   OH260483   2.459   0.069   5.681  0.0992 -0.7439 -0.3356
13023TIP3    H160484   2.507   0.056   5.599 -0.1250  0.1015 -0.6058
13023TIP3    H260485   2.387   0.128   5.658  2.6162  3.3643  1.3283
13024TIP3   OH260486   5.041   0.001   3.484 -0.0322  0.4572 -0.3052
13024TIP3    H160487   5.044  -0.094   3.472 -1.4867  0.1368  1.4038
13024TIP3    H260488   5.132   0.029   3.473  0.2987 -0.9987 -1.6785
13025TIP3   OH260489   1.148   3.059   2.998  0.2395  0.7084 -0.1952
13025TIP3    H160490   1.131   2.971   2.964 -0.0789  0.4968  0.4807
13025TIP3    H260491   1.156   3.046   3.093  1.7148  1.1864 -0.2336
13026TIP3   OH260492   5.558   6.632   4.576  0.2554  0.6131 -0.4699
13026TIP3    H160493   5.521   6.667   4.657 -0.8344  0.2267 -0.7872
13026TIP3    H260494   5.511   6.551   4.561  0.6131  0.5618 -1.3768
13027TIP3   OH260495   5.557   4.285  14.726  0.4223 -0.2176  0.4290
13027TIP3    H160496   5.595   4.345  14.791  0.7864 -1.5369  1.4709
13027TIP3    H260497   5.630   4.265  14.667  0.1096  0.9249 -0.3759
13028TIP3   OH260498   5.420   3.305  11.337  0.4171  0.3498 -0.3496
13028TIP3    H160499   5.436   3.369  11.269 -0.0101  0.6346 -0.1869
13028TIP3    H260500   5.485   3.325  11.405 -0.9559  1.8919  0.5805
13029TIP3   OH260501   5.902   1.499   4.796 -0.1833 -0.6599  0.3597
13029TIP3    H160502   5.868   1.563   4.734  0.2173  0.4108  1.2153
13029TIP3    H260503   5.845   1.423   4.785 -0.8759 -0.0458 -0.4428
13030TIP3   OH260504   0.134   0.032   3.641 -0.0835 -0.1266 -0.7205
13030TIP3    H160505   0.110  -0.029   3.572  0.8543  0.6441 -1.7709
13030TIP3    H260506   0.161   0.111   3.594  0.1685  0.5624  0.5500
13031TIP3   OH260507   2.698   4.983  14.805 -0.0198  0.3769 -0.2463
13031TIP3    H160508   2.698   5.023  14.718 -2.0020  0.5764 -0.2184
13031TIP3    H260509   2.654   4.899  14.792 -1.3180  0.8785  0.7089
13032TIP3   OH260510   1.901   3.753   3.047 -0.2440 -0.3678  0.9170
13032TIP3    H160511   1.819   3.799   3.027  0.5372  0.2591 -1.0996
13032TIP3    H260512   1.884   3.662   3.022  0.1457  0.0711 -1.1388
13033TIP3   OH260513   0.437   6.474  12.170 -0.5233 -0.0286  0.1012
13033TIP3    H160514   0.476   6.544  12.223 -1.2428 -1.1695  2.2882
13033TIP3    H260515   0.352   6.508  12.144 -0.4048  0.3319  0.1837
13034TIP3   OH260516   6.073   4.342  13.618  0.8242 -0.1496 -0.6281
13034TIP3    H160517   6.031   4.260  13.643 -0.0315  0.1666 -1.0267
13034TIP3    H260518   6.128   4.364  13.694  0.0316 -0.3949  0.0330
13035TIP3   OH260519   5.305   5.032   1.942  0.3175  0.6409 -0.2479
13035TIP3    H160520   5.234   5.091   1.967 -1.1700 -0.9973 -0.3985
13035TIP3    H260521   5.278   4.998   1.856  1.1714 -0.1649 -0.2063
13036TIP3   OH260522   1.943   1.196  11.549 -0.0767 -0.0296  0.2709
13036TIP3    H160523   1.909   1.110  11.525 -0.6092 -0.0286  0.9910
13036TIP3    H260524   1.990   1.181  11.632 -1.1501  0.5699  1.0048
13037TIP3   OH260525   4.390   5.450  12.116  0.3425  0.1662  0.5535
13037TIP3    H160526   4.345   5.368  12.096  0.9870  0.0347 -0.4629
13037TIP3    H260527   4.322   5.509  12.146 -0.4414 -0.1689 -0.5128
13038TIP3   OH260528   2.240   3.052  14.661 -0.3244 -0.0207  0.4774
13038TIP3    H160529   2.163   3.067  14.606  1.1400  1.6290 -1.2510
13038TIP3    H260530   2.311   3.037  14.600  0.8053 -1.2724  2.0307
13039TIP3   OH260531   4.936   5.722   5.521 -0.1618  0.4432 -0.4944
13039TIP3    H160532   5.014   5.778   5.524 -0.2591  0.5832 -0.6096
13039TIP3    H260533   4.888   5.750   5.443  1.2926 -1.8247 -2.3235
13040TIP3   OH260534   1.919   6.241   0.830  0.3503  0.4038  0.2857
13040TIP3    H160535   1.968   6.243   0.912 -0.7000  0.2384  0.9339
13040TIP3    H260536   1.852   6.309   0.841  0.2673  0.4486 -0.4789
13041TIP3   OH260537   0.223   5.175   2.722 -0.4306 -0.2321 -0.4304
13041TIP3    H160538   0.269   5.162   2.639  0.9271  2.1557 -0.1572
13041TIP3    H260539   0.284   5.144   2.788 -1.0790 -1.1406 -0.2367
13042TIP3   OH260540   0.155   1.849   0.895 -0.2257 -0.2323 -0.2337
13042TIP3    H160541   0.213   1.776   0.872 -0.5020 -0.2980 -0.7298
13042TIP3    H260542   0.209   1.927   0.888  0.4372 -0.4804  1.5562
13043TIP3   OH260543   0.031   0.036  13.231  0.0568  0.0973  0.1049
13043TIP3    H160544  -0.006   0.123  13.212 -0.4141 -0.3271 -1.0222
13043TIP3    H260545   0.068   0.008  13.147  0.4416 -0.6841  0.5341
13044TIP3   OH260546   5.147   3.347   3.523  0.3738 -0.7236 -0.4502
13044TIP3    H160547   5.241   3.340   3.542 -0.1420 -0.7227  2.7047
13044TIP3    H260548   5.107   3.277   3.575 -1.4181 -0.6538 -1.6471
13045TIP3   OH260549   2.714   2.514  16.112  0.0782  0.5129 -0.1907
13045TIP3    H160550   2.705   2.607  16.091 -0.8487  0.7227  1.0370
13045TIP3    H260551   2.706   2.510  16.207 -0.3277 -0.8715 -0.2632
13046TIP3   OH260552   0.007   4.821   2.878  0.8735 -0.5423 -0.8054
13046TIP3    H160553  -0.038   4.754   2.827 -0.3084 -0.5638  0.2168
13046TIP3    H260554  -0.039   4.823   2.962  1.9220  0.4099 -0.2128
13047TIP3   OH260555   3.942   2.165   0.881 -0.1092  0.2246  0.6331
13047TIP3    H160556   3.852   2.161   0.850  0.2002 -1.6093 -0.1663
13047TIP3    H260557   3.942   2.120   0.965 -0.0689  0.9931  1.0611
13048TIP3   OH260558   0.369   4.780   3.885 -0.4721 -0.2886  0.0115
13048TIP3    H160559   0.396   4.781   3.976  1.1771  1.4049 -0.4151
13048TIP3    H260560   0.424   4.846   3.843 -0.9683 -1.2148 -2.2755
13049TIP3   OH260561   1.607   0.455   2.049  0.4419 -0.0388 -0.2076
13049TIP3    H160562   1.552   0.427   2.122 -1.6516 -0.4432 -1.8538
13049TIP3    H260563   1.587   0.548   2.038  1.5933  0.3063  0.3737
13050TIP3   OH260564   3.798   0.838   2.268 -0.0468 -0.2975  0.0673
13050TIP3    H160565   3.802   0.755   2.220  0.8279  0.2091 -0.7783
13050TIP3    H260566   3.838   0.901   2.208  1.5476  0.2739  1.6666
13051TIP3   OH260567   2.226   1.896   3.407 -0.1302  0.1351  0.1766
13051TIP3    H160568   2.145   1.858   3.373 -0.3488  0.0787  0.7419
13051TIP3    H260569   2.294   1.866   3.347 -0.0718 -2.3238  1.3264
13052TIP3   OH260570   1.476   1.004   2.066  0.4372 -1.1213 -0.0635
13052TIP3    H160571   1.549   1.012   2.127  0.4013 -1.4552  0.0257
13052TIP3    H260572   1.496   1.067   1.996 -0.2091  0.2752  0.9658
13053TIP3   OH260573   0.164   5.185   4.464  0.3354  0.3673  0.1376
13053TIP3    H160574   0.192   5.148   4.547 -1.8788 -2.0022 -0.0571
13053TIP3    H260575   0.096   5.248   4.488 -0.5370 -0.5553  0.1552
13054TIP3   OH260576   4.191   6.347  11.448 -0.1129 -0.2894  0.2678
13054TIP3    H160577   4.240   6.428  11.452 -0.0395 -0.3344  0.2795
13054TIP3    H260578   4.101   6.372  11.468 -0.7870  0.3752 -3.0167
13055TIP3   OH260579   3.361   0.528  12.391 -0.1091  0.3223  0.0691
13055TIP3    H160580   3.380   0.441  12.426  1.2147  1.0309  1.2042
13055TIP3    H260581   3.282   0.555  12.438  0.6357  0.5363  1.2330
13056TIP3   OH260582   3.697   2.414   2.491  0.0032 -0.1081 -0.3186
13056TIP3    H160583   3.771   2.423   2.551  1.6912 -1.5810 -2.0656
13056TIP3    H260584   3.696   2.496   2.441  0.1304  0.1295  0.0691
13057TIP3   OH260585   5.456   1.660   3.453  0.3714  0.2423  0.2575
13057TIP3    H160586   5.531   1.715   3.433  2.2859 -1.7479  1.4273
13057TIP3    H260587   5.424   1.629   3.368  1.8499 -0.0290 -0.2182
13058TIP3   OH260588   1.390   0.876   5.382 -0.6644  0.0483 -0.0446
13058TIP3    H160589   1.361   0.909   5.296 -2.1827  2.7897  1.3620
13058TIP3    H260590   1.485   0.881   5.379 -0.6728 -0.1461 -1.6324
13059TIP3   OH260591   5.419   2.904   4.195  0.5560 -0.2541  0.2977
13059TIP3    H160592   5.336   2.857   4.187  0.4499  0.1743 -1.4124
13059TIP3    H260593   5.483   2.845   4.154  0.9861 -0.2696  0.9768
13060TIP3   OH260594   5.891   6.739   1.895  0.2010  0.1625 -0.3545
13060TIP3    H160595   5.914   6.669   1.833  0.3068 -0.9906  0.9514
13060TIP3    H260596   5.963   6.741   1.958 -0.8676 -0.1024  0.9240
13061TIP3   OH260597   2.128   2.736   0.236 -0.2055  0.3646  0.2596
13061TIP3    H160598   2.043   2.758   0.197 -0.6250  0.3532  1.1366
13061TIP3    H260599   2.187   2.803   0.203 -0.7562  0.9025  0.3521
13062TIP3   OH260600   6.123   6.100  12.071 -0.2071 -0.7034  0.2218
13062TIP3    H160601   6.205   6.096  12.120  0.0972  0.0615 -0.2077
13062TIP3    H260602   6.124   6.187  12.031 -0.9734 -0.9003 -0.2299
13063TIP3   OH260603   6.013   1.264   2.199 -0.7787  0.0545  0.0760
13063TIP3    H160604   6.019   1.168   2.206 -1.0446 -0.0337 -0.8270
13063TIP3    H260605   6.009   1.294   2.290 -0.1519 -0.7554  0.3835
13064TIP3   OH260606   3.278   5.021  14.015 -0.1397  0.6781 -0.0092
13064TIP3    H160607   3.352   5.065  13.973  2.5521 -2.4028  1.1435
13064TIP3    H260608   3.260   4.946  13.959  0.6355 -1.0559  1.9390
13065TIP3   OH260609   4.072   6.200  16.251  0.0051 -0.0474 -0.4447
13065TIP3    H160610   3.997   6.246  16.212  0.8334  1.9502  0.1956
13065TIP3    H260611   4.122   6.269  16.294  1.0634 -1.6618  1.0193
13066TIP3   OH260612   3.581   3.151   4.787 -0.5201  0.2985  0.3042
13066TIP3    H160613   3.588   3.167   4.881  2.1597  2.2449 -0.0955
13066TIP3    H260614   3.516   3.214   4.757 -1.0477 -0.0148  0.7611
13067TIP3   OH260615   1.443   2.693   0.546 -0.0746 -0.6488 -0.2788
13067TIP3    H160616   1.437   2.715   0.639 -0.5559  0.0029 -0.4569
13067TIP3    H260617   1.401   2.766   0.501 -1.7321 -1.8926 -0.8967
13068TIP3   OH260618   3.681   1.248   4.793 -0.3475 -0.4522 -0.0571
13068TIP3    H160619   3.764   1.293   4.778 -0.5994  0.4977  1.1878
13068TIP3    H260620   3.639   1.298   4.863 -1.2630 -1.8354  0.4299
13069TIP3   OH260621   4.201   0.398  13.397 -0.4291  0.0633 -0.0154
13069TIP3    H160622   4.168   0.371  13.311 -0.0346  2.4380 -0.9842
13069TIP3    H260623   4.274   0.339  13.414 -1.0777 -1.0292 -0.8781
13070TIP3   OH260624   3.805   6.453  15.348  0.5314 -0.6057  0.5394
13070TIP3    H160625   3.818   6.441  15.254  1.4337 -0.9372  0.6907
13070TIP3    H260626   3.741   6.386  15.372 -0.3226  0.0086  0.0290
13071TIP3   OH260627   6.562   3.757  10.912  0.4234 -0.0828  0.6996
13071TIP3    H160628   6.481   3.800  10.938 -0.4606 -0.8723 -0.6629
13071TIP3    H260629   6.573   3.778  10.820  0.4491 -1.9907  0.2351
13072TIP3   OH260630   1.650   0.943  11.012 -0.9160 -0.5941  0.7281
13072TIP3    H160631   1.648   0.863  10.961 -0.1716 -0.7834  0.9853
13072TIP3    H260632   1.622   0.916  11.100  0.3166 -0.7846  1.0783
13073TIP3   OH260633   3.924   5.938   6.402  0.4560 -0.0904  0.7092
13073TIP3    H160634   3.872   6.013   6.430  1.1569  0.1513  1.4389
13073TIP3    H260635   3.895   5.866   6.459  0.2016 -0.2175  0.4174
13074TIP3   OH260636   3.741   4.270   1.944 -0.2274 -0.4683  0.6686
13074TIP3    H160637   3.821   4.251   1.897  0.0618 -1.2631  1.4459
13074TIP3    H260638   3.693   4.187   1.944 -0.0155 -0.6208  2.1278
13075TIP3   OH260639   1.872   4.754   5.179 -0.0440  0.9558 -0.1653
13075TIP3    H160640   1.861   4.848   5.168 -0.0834  1.4305  2.9486
13075TIP3    H260641   1.790   4.726   5.222  0.1492 -0.4169 -0.6516
13076TIP3   OH260642   1.338   1.797  12.914  0.5614 -0.1256 -0.1269
13076TIP3    H160643   1.254   1.768  12.949  0.3932 -0.0656 -0.4760
13076TIP3    H260644   1.396   1.801  12.990  0.5249 -1.1480 -0.0269
13077TIP3   OH260645   3.660   5.767  13.986  0.3055 -0.1475 -0.6501
13077TIP3    H160646   3.628   5.763  13.896  1.0918  0.0998 -0.9445
13077TIP3    H260647   3.728   5.834  13.984  0.4492 -0.2686  0.0931
13078TIP3   OH260648   6.478   3.639  11.372 -0.1753  0.2442  0.2925
13078TIP3    H160649   6.543   3.685  11.424  0.7108 -0.0964 -0.5031
13078TIP3    H260650   6.444   3.572  11.432  0.3696  0.2706  0.6376
13079TIP3   OH260651   3.987   1.082  12.456 -0.3423 -0.0677  0.3675
13079TIP3    H160652   4.000   1.036  12.538  0.1647 -1.6714 -0.5713
13079TIP3    H260653   3.905   1.130  12.468 -0.6333 -0.8330  1.5537
13080TIP3   OH260654   5.514   4.879   2.355  0.5688  0.0352  0.5942
13080TIP3    H160655   5.473   4.797   2.326  0.3755 -0.4993  2.2850
13080TIP3    H260656   5.591   4.851   2.405 -0.9274  0.7200  3.4361
13081TIP3   OH260657   1.023   2.850   6.001 -0.2580 -0.1140 -0.4349
13081TIP3    H160658   1.012   2.792   6.076 -1.8255 -0.8882 -1.1902
13081TIP3    H260659   0.966   2.924   6.019 -1.2950 -0.6934 -1.1755
13082TIP3   OH260660   2.398   3.680   4.398  0.2548 -0.1565 -0.0316
13082TIP3    H160661   2.441   3.669   4.313  1.7804  0.1214  0.6788
13082TIP3    H260662   2.470   3.688   4.461 -0.8382 -0.8982  1.3687
13083TIP3   OH260663   3.296   5.934   5.164  0.0217  0.5507  0.0111
13083TIP3    H160664   3.242   5.875   5.112  1.1094 -0.0557 -0.4673
13083TIP3    H260665   3.266   6.022   5.141  1.7663  0.4286 -3.2339
13084TIP3   OH260666   5.902   4.147  13.705  0.0106  0.3098 -0.1210
13084TIP3    H160667   5.883   4.196  13.785  1.9433  1.1320 -0.0949
13084TIP3    H260668   5.887   4.055  13.729  0.4910  0.5508  1.1912
13085TIP3   OH260669   3.476   3.526   4.280  0.1529  0.1634 -0.4336
13085TIP3    H160670   3.499   3.573   4.360  2.5988 -2.4136  0.5197
13085TIP3    H260671   3.519   3.575   4.210  0.0091  1.0873  0.1097
13086TIP3   OH260672   4.915   4.171   4.305  0.1649 -0.1356  0.4769
13086TIP3    H160673   4.848   4.231   4.339  0.1700 -0.3834  0.9293
13086TIP3    H260674   4.869   4.119   4.239  0.0177 -0.0175  0.4842
13087TIP3   OH260675   1.616   3.379  13.798 -0.0433 -0.4848  0.6800
13087TIP3    H160676   1.644   3.440  13.866  0.4029  1.3537 -1.0399
13087TIP3    H260677   1.533   3.415  13.766  0.1740 -0.8186 -0.2998
13088TIP3   OH260678   1.978   6.606   1.925  0.2102  0.1029  0.2340
13088TIP3    H160679   1.917   6.558   1.869  0.6706  0.1998 -0.3561
13088TIP3    H260680   1.922   6.647   1.992 -0.2754 -0.5198  0.2175
13089TIP3   OH260681   5.893   2.522  14.150 -0.2365 -0.3997  0.2894
13089TIP3    H160682   5.810   2.499  14.109 -0.2021  0.0889 -0.0529
13089TIP3    H260683   5.960   2.492  14.089 -0.1734 -0.1850  0.2527
13090TIP3   OH260684   0.163   4.743  14.077 -0.0327  0.4941  0.2327
13090TIP3    H160685   0.141   4.650  14.071  3.5225 -0.5537  1.1489
13090TIP3    H260686   0.191   4.767  13.988 -1.1691  0.8300 -0.0603
13091TIP3   OH260687   4.693   6.136   4.741  0.4072  0.1857  0.6464
13091TIP3    H160688   4.605   6.102   4.761 -1.0948  3.1780 -0.3705
13091TIP3    H260689   4.744   6.058   4.720 -2.0089 -1.6646  1.1739
13092TIP3   OH260690   6.796   1.668  14.203  0.2406 -0.0383  0.3282
13092TIP3    H160691   6.817   1.616  14.125 -0.2526 -2.5326  1.7523
13092TIP3    H260692   6.882   1.686  14.243  0.4235  0.4319 -0.2550
13093TIP3   OH260693   1.687   4.676  15.090 -0.6378 -0.3441  0.8866
13093TIP3    H160694   1.668   4.731  15.014  0.9632  0.2808  0.8979
13093TIP3    H260695   1.727   4.597  15.054  0.6104  0.1795  1.0922
13094TIP3   OH260696   4.866   1.993   2.263 -0.1758  0.2713  0.3965
13094TIP3    H160697   4.927   1.922   2.242 -0.6025 -0.2694  0.9425
13094TIP3    H260698   4.826   2.016   2.178  2.4381  2.2635 -0.4123
13095TIP3   OH260699   2.184   4.600   1.737 -0.1842  0.7814  0.0316
13095TIP3    H160700   2.184   4.667   1.806  0.9813  0.6819  0.1518
13095TIP3    H260701   2.096   4.563   1.739 -0.3607  1.2215  1.0345
13096TIP3   OH260702   3.110   0.152   5.178 -0.3798  0.0286  0.3157
13096TIP3    H160703   3.084   0.115   5.093 -1.3238  0.2926  0.4736
13096TIP3    H260704   3.139   0.241   5.156 -0.7475  0.1413  0.2873
13097TIP3   OH260705   6.467   5.793   2.329 -0.6558 -0.3038 -0.0913
13097TIP3    H160706   6.486   5.704   2.301  0.4111 -0.5738  1.3807
13097TIP3    H260707   6.553   5.836   2.332 -1.0031  0.3727  0.4899
13098TIP3   OH260708   2.316   3.715  14.753 -0.1861 -0.0217 -0.0122
13098TIP3    H160709   2.253   3.716  14.825  0.8004 -1.5315  0.9143
13098TIP3    H260710   2.300   3.633  14.707  0.8333 -0.2372 -0.0079
13099TIP3   OH260711   3.308   4.524  12.233 -0.2750  0.0384  0.3621
13099TIP3    H160712   3.355   4.468  12.294 -0.6434 -0.5052  0.1523
13099TIP3    H260713   3.373   4.547  12.167 -0.7823 -2.4900 -1.1492
13100TIP3   OH260714   0.706   2.610  15.313  0.3316  0.1560  0.0036
13100TIP3    H160715   0.757   2.649  15.384 -0.4939  0.4393  0.4572
13100TIP3    H260716   0.616   2.613  15.344 -0.1558  1.0197 -1.3758
13101TIP3   OH260717   6.542   0.713  15.687 -0.6072  0.3402 -0.8175
13101TIP3    H160718   6.467   0.742  15.634 -0.2907  1.1255 -0.8493
13101TIP3    H260719   6.562   0.626  15.654 -1.3209  0.2380 -1.0108
13102TIP3   OH260720   3.269   1.685  11.427  0.6372 -0.7223  0.0500
13102TIP3    H160721   3.303   1.704  11.340 -0.3839  2.1463  0.1808
13102TIP3    H260722   3.335   1.628  11.467  1.3264 -1.7514 -2.4009
13103TIP3   OH260723   3.470   3.391  13.098 -0.1332  0.2390 -0.4040
13103TIP3    H160724   3.455   3.351  13.184 -0.5581 -0.0899 -0.6254
13103TIP3    H260725   3.421   3.473  13.101  0.9954  0.9096  0.1637
13104TIP3   OH260726   4.209   2.632   4.619  0.0145 -0.3501  0.0034
13104TIP3    H160727   4.241   2.542   4.621 -0.1380 -0.4438 -1.1926
13104TIP3    H260728   4.263   2.678   4.683  1.0157 -0.9975 -0.3567
13105TIP3   OH260729   4.216   1.739   5.991  0.2288 -0.9623 -0.5146
13105TIP3    H160730   4.142   1.701   5.944  0.6693 -0.0653 -2.0192
13105TIP3    H260731   4.203   1.713   6.082 -2.6914  0.3119 -0.4472
13106TIP3   OH260732   3.634   2.830  14.671 -0.2143 -0.1546  0.1578
13106TIP3    H160733   3.637   2.886  14.748  2.9443  4.1782 -2.6744
13106TIP3    H260734   3.720   2.789  14.667 -0.9566 -1.7744 -0.2359
13107TIP3   OH260735   3.163   4.789  16.641 -0.3561 -0.2182  0.2416
13107TIP3    H160736   3.095   4.848  16.609 -1.5539 -2.0086 -0.7542
13107TIP3    H260737   3.196   4.746  16.562  0.9300 -0.4174  0.8676
13108TIP3   OH260738   1.220   6.547  12.896  0.2892  0.2810 -0.0644
13108TIP3    H160739   1.200   6.487  12.824 -1.6885  0.1530  0.5354
13108TIP3    H260740   1.138   6.553  12.946  1.2233  1.4089  1.4136
13109TIP3   OH260741   3.151   6.346   2.690  0.0576 -0.0892  0.4090
13109TIP3    H160742   3.185   6.432   2.714  0.0951 -0.1022  0.4008
13109TIP3    H260743   3.057   6.360   2.680  0.1525  0.1018 -0.2487
13110TIP3   OH260744   5.081   5.882  12.184  0.5358  0.5119 -0.2877
13110TIP3    H160745   5.086   5.974  12.210 -0.3020  0.5834 -0.3346
13110TIP3    H260746   5.049   5.885  12.094 -1.0399  0.1397  0.2319
13111TIP3   OH260747   2.042   2.716  14.613  0.0548 -0.9582  0.4639
13111TIP3    H160748   2.001   2.775  14.676 -1.0369  1.7988 -2.5495
13111TIP3    H260749   2.115   2.676  14.661 -0.5209  1.1439  3.3486
13112TIP3   OH260750   0.201   0.596   0.547 -0.0116 -0.2992  0.3077
13112TIP3    H160751   0.117   0.566   0.513  0.2890 -0.6937 -0.0972
13112TIP3    H260752   0.255   0.517   0.553  1.5433  0.3210 -2.9007
13113TIP3   OH260753   1.682   4.251   4.340 -0.1685  0.0171  0.2722
13113TIP3    H160754   1.740   4.220   4.409 -1.6684 -0.9883  1.1314
13113TIP3    H260755   1.618   4.181   4.329 -2.1269  1.6950  0.4387
13114TIP3   OH260756   3.733   4.441  14.585 -0.9680  0.0118 -0.6219
13114TIP3    H160757   3.688   4.375  14.637  1.6423 -0.8517  0.7094
13114TIP3    H260758   3.717   4.523  14.631 -0.1126 -0.4966  0.6459
13115TIP3   OH260759   4.494   0.701   2.181  0.4516 -0.0781  0.8111
13115TIP3    H160760   4.401   0.683   2.164  0.2937  0.2092  1.3392
13115TIP3    H260761   4.533   0.614   2.196  0.7919 -0.4562 -1.7894
13116TIP3   OH260762   1.243   3.138   3.736  0.5505 -0.6202 -0.2506
13116TIP3    H160763   1.295   3.060   3.758  1.4137  0.0300  0.0611
13116TIP3    H260764   1.154   3.104   3.722  0.7392 -1.5621  0.6664
13117TIP3   OH260765   1.061   2.742  16.256  1.0400  0.2715  0.5266
13117TIP3    H160766   1.096   2.831  16.265 -0.5886  0.9908  0.2148
13117TIP3    H260767   1.137   2.688  16.237  1.9573  1.7555 -0.2185
13118TIP3   OH260768   1.274   1.383  14.946  0.5154  0.1597 -0.1952
13118TIP3    H160769   1.222   1.346  14.875  0.8253 -0.1330 -0.2712
13118TIP3    H260770   1.233   1.468  14.965 -0.3401 -0.3254  0.1415
13119TIP3   OH260771   0.189   1.901  13.272 -0.1508 -0.0097 -0.4239
13119TIP3    H160772   0.263   1.857  13.315  0.0297  0.3086 -0.4028
13119TIP3    H260773   0.231   1.955  13.204 -0.4153 -0.3387 -0.8477
13120TIP3   OH260774   0.753   6.380  15.158  0.2695 -0.7120  0.1284
13120TIP3    H160775   0.847   6.389  15.168  0.3455  0.2065 -1.2030
13120TIP3    H260776   0.718   6.464  15.188  0.0232 -0.3892 -1.0313
13121TIP3   OH260777   1.267   2.000   4.347 -0.4686 -0.5621 -0.2681
13121TIP3    H160778   1.203   1.937   4.381 -0.5893 -0.5621 -0.4960
13121TIP3    H260779   1.219   2.052   4.283 -0.2140 -0.6295 -0.5158
13122TIP3   OH260780   1.442   3.204  16.016  0.3093 -0.0842  0.3822
13122TIP3    H160781   1.476   3.235  15.932  0.9607 -1.9678 -0.1089
13122TIP3    H260782   1.519   3.175  16.064 -0.2339 -0.9994  0.7392
13123TIP3   OH260783   0.389   4.753   2.710 -0.1056  0.7701  0.1774
13123TIP3    H160784   0.395   4.836   2.755 -1.4665  1.6084 -1.0753
13123TIP3    H260785   0.322   4.704   2.758 -0.9900  1.3522 -0.4330
13124TIP3   OH260786   6.388   1.304   3.996 -0.0679  0.2834 -0.0838
13124TIP3    H160787   6.413   1.292   3.905 -1.5246 -2.4550 -0.2171
13124TIP3    H260788   6.427   1.230   4.042  1.6064  2.2254  1.8240
13125TIP3   OH260789   3.736   1.044   4.623  0.1919  0.4193  0.2481
13125TIP3    H160790   3.826   1.034   4.654  0.2441  0.1261  0.0051
13125TIP3    H260791   3.700   1.114   4.677  1.0681  1.6503 -0.6936
13126TIP3   OH260792   4.929   3.832   1.579 -0.7868  0.4009 -0.2020
13126TIP3    H160793   4.884   3.869   1.655  0.4318 -0.5210  1.0046
13126TIP3    H260794   4.859   3.794   1.526 -1.6304  0.8580  0.5516
13127TIP3   OH260795   3.158   3.171  10.685  0.2689  0.0746  0.1082
13127TIP3    H160796   3.137   3.102  10.621 -0.4422  0.1764  0.2232
13127TIP3    H260797   3.129   3.134  10.769 -1.2045  0.9675  0.0187
13128TIP3   OH260798   2.128   2.624   2.556 -0.1068 -0.3651 -0.1025
13128TIP3    H160799   2.171   2.688   2.613 -4.0250  2.2193  0.4132
13128TIP3    H260800   2.146   2.655   2.468 -0.1744  0.1882  0.0710
13129TIP3   OH260801   3.263   6.036  10.902 -0.1489  0.0339  0.1336
13129TIP3    H160802   3.290   5.991  10.981  0.1297 -0.2802 -0.1389
13129TIP3    H260803   3.337   6.093  10.880 -0.1572 -0.0057  0.0023
13130TIP3   OH260804   6.513   0.960   2.192 -0.1674 -0.2136  0.4232
13130TIP3    H160805   6.476   0.942   2.106 -0.2387 -1.8087  0.7651
13130TIP3    H260806   6.563   1.041   2.179 -0.2939 -0.3373 -1.0770
13131TIP3   OH260807   4.624   6.317  12.718  0.3665  0.8780  0.1084
13131TIP3    H160808   4.569   6.348  12.645  1.5544  1.6417 -0.4896
13131TIP3    H260809   4.682   6.390  12.737  1.1343  0.1160  0.7763
13132TIP3   OH260810   4.365   5.993  14.140 -0.0060 -0.4951  0.1236
13132TIP3    H160811   4.316   5.964  14.217  1.5618 -0.1426  1.3159
13132TIP3    H260812   4.311   6.062  14.102 -1.6071 -1.8067 -0.1056
13133TIP3   OH260813   2.281   0.054  16.532  0.6224  0.1396 -0.5365
13133TIP3    H160814   2.341  -0.015  16.505 -0.4088 -1.2823  0.6207
13133TIP3    H260815   2.205   0.044  16.474  0.5165  0.3913 -0.4449
13134TIP3   OH260816   0.376   2.938   1.879 -0.8201 -0.0697  0.2851
13134TIP3    H160817   0.339   3.005   1.822 -0.8352 -0.6573 -0.4041
13134TIP3    H260818   0.443   2.984   1.929 -1.1678  0.5708  0.1780
13135TIP3   OH260819   4.396   3.751   1.623 -0.5711  0.8040  0.1090
13135TIP3    H160820   4.416   3.767   1.716 -0.5657 -1.6027  0.6025
13135TIP3    H260821   4.441   3.668   1.603 -3.8549 -0.9303 -0.8268
13136TIP3   OH260822   5.019   4.858  11.508 -0.4168  0.2081  0.1070
13136TIP3    H160823   4.945   4.797  11.508  0.4788 -0.9152 -0.2241
13136TIP3    H260824   5.027   4.886  11.417  1.0033 -1.5366 -0.3669
13137TIP3   OH260825   0.794   1.014   3.239  0.5778  0.5989 -0.3337
13137TIP3    H160826   0.882   0.976   3.238  0.6530  0.7432  0.3214
13137TIP3    H260827   0.790   1.062   3.322 -0.2778  0.2111 -0.1364
13138TIP3   OH260828   6.080   5.330  14.393 -0.1414 -0.2113  0.4275
13138TIP3    H160829   6.139   5.406  14.395 -1.9181  1.3383 -0.8385
13138TIP3    H260830   6.090   5.296  14.304 -0.4681 -0.5002  0.5035
13139TIP3   OH260831   0.262   3.818  11.548  0.0820 -0.8583  0.2605
13139TIP3    H160832   0.216   3.881  11.603  1.2945  1.3159 -1.0458
13139TIP3    H260833   0.221   3.826  11.462  0.7938 -1.2349 -0.1301
13140TIP3   OH260834   4.306   0.609  16.044 -0.6550 -0.6415 -0.1615
13140TIP3    H160835   4.377   0.648  15.993  0.8683 -1.6182  1.1226
13140TIP3    H260836   4.232   0.607  15.984  0.1724  1.0726 -1.3207
13141TIP3   OH260837   0.224   3.877  11.003 -0.0804 -0.2717 -0.0468
13141TIP3    H160838   0.154   3.927  10.960 -0.3952 -1.4924 -0.9968
13141TIP3    H260839   0.305   3.923  10.978 -0.3902 -0.0206 -0.6127
13142TIP3   OH260840   1.105   0.947  12.619 -0.0233  0.4107 -0.2893
13142TIP3    H160841   1.049   0.937  12.543 -0.1116 -0.7283 -0.0926
13142TIP3    H260842   1.085   1.035  12.652  0.8016  1.3531 -2.1722
13143TIP3   OH260843   6.572   3.090   2.113 -0.1461  0.9374  0.0009
13143TIP3    H160844   6.507   3.037   2.067  0.5184  0.5013 -0.4513
13143TIP3    H260845   6.616   3.139   2.043 -0.0465  1.3039  0.3165
13144TIP3   OH260846   4.568   4.332  13.865 -0.5066 -0.1892 -0.0583
13144TIP3    H160847   4.504   4.398  13.840 -0.5622 -0.1905  0.0846
13144TIP3    H260848   4.518   4.250  13.870 -0.5379 -0.1515  0.2680
13145TIP3   OH260849   4.656   5.235   1.673  0.7119 -0.6954  0.1265
13145TIP3    H160850   4.580   5.206   1.724  1.8592 -1.3628  1.5123
13145TIP3    H260851   4.623   5.242   1.583 -1.0851 -0.5647  0.7493
13146TIP3   OH260852   4.757   5.618  13.767  0.2521 -0.0861 -0.3675
13146TIP3    H160853   4.687   5.641  13.827 -0.6629  2.9079 -2.3887
13146TIP3    H260854   4.830   5.593  13.824 -0.4510  2.8383  2.0505
13147TIP3   OH260855   2.186   3.192   4.553 -0.0404 -0.0847 -0.7420
13147TIP3    H160856   2.253   3.260   4.544  0.7274 -0.1096  2.9655
13147TIP3    H260857   2.216   3.121   4.498  1.5511  0.9313 -1.2608
13148TIP3   OH260858   4.679   0.559   1.307  0.4181  0.4484  0.6815
13148TIP3    H160859   4.662   0.528   1.396 -0.5927  1.2968  0.8031
13148TIP3    H260860   4.618   0.632   1.295 -1.3390 -1.2574 -1.6130
13149TIP3   OH260861   3.547   0.057   6.444  0.6621  0.3632  0.1680
13149TIP3    H160862   3.505   0.110   6.375 -0.4607 -0.0173  0.5298
13149TIP3    H260863   3.630   0.101   6.460  0.2909  1.3198 -0.3981
13150TIP3   OH260864   3.584   0.372  11.605  0.3450  0.3470  0.8849
13150TIP3    H160865   3.559   0.446  11.661  0.0343  1.0133 -0.1034
13150TIP3    H260866   3.637   0.316  11.661  0.4278  1.2305  1.7096
13151TIP3   OH260867   0.830   6.102   4.560 -0.1312 -0.5173 -0.2148
13151TIP3    H160868   0.808   6.170   4.496  1.1306 -0.9736 -1.1769
13151TIP3    H260869   0.794   6.021   4.522 -0.1701 -0.6537  0.1109
13152TIP3   OH260870   2.349   5.841  10.756  0.7497 -0.0709  0.7448
13152TIP3    H160871   2.442   5.825  10.742  0.8756  2.7418 -3.0401
13152TIP3    H260872   2.306   5.760  10.730  2.0336 -0.1526 -1.3083
13153TIP3   OH260873   5.849   4.512  16.448  0.5521  0.5717  0.2928
13153TIP3    H160874   5.846   4.420  16.475  1.2915  0.5801  0.4240
13153TIP3    H260875   5.870   4.559  16.528  0.0239  0.8766  0.2552
13154TIP3   OH260876   4.845   1.612  17.003 -0.3915  0.1440  0.1725
13154TIP3    H160877   4.860   1.637  17.094  0.8691 -0.7664  0.2435
13154TIP3    H260878   4.838   1.694  16.956 -1.6275  0.6432  1.1559
13155TIP3   OH260879   5.176   5.912   0.942 -0.2722  0.1822  0.6464
13155TIP3    H160880   5.097   5.922   0.889 -0.0079  0.3726  0.2861
13155TIP3    H260881   5.205   6.001   0.961  1.6298  0.2198 -1.9086
13156TIP3   OH260882   4.361   4.700   5.399  0.0208  0.0725  0.4442
13156TIP3    H160883   4.278   4.668   5.435 -0.9051  1.3315 -0.4721
13156TIP3    H260884   4.365   4.664   5.310  0.5652 -0.1394  0.5479
13157TIP3   OH260885   6.679   2.198  15.007 -0.6799  0.3753  0.0437
13157TIP3    H160886   6.589   2.210  14.977 -0.4037  0.6654 -0.6677
13157TIP3    H260887   6.670   2.149  15.089 -1.3561 -2.5145 -1.6048
13158TIP3   OH260888   0.987   6.785  11.058  0.6476  0.1838 -0.0315
13158TIP3    H160889   0.940   6.865  11.083 -1.1769 -0.5278 -0.9626
13158TIP3    H260890   1.039   6.810  10.982  0.2409  0.5555 -0.1921
13159TIP3   OH260891   2.084   3.830   5.512  0.1353 -0.2795 -0.0338
13159TIP3    H160892   2.078   3.800   5.603 -0.0985 -0.0067  0.0410
13159TIP3    H260893   2.021   3.901   5.506 -2.3397 -2.4126 -1.2477
13160TIP3   OH260894   0.737   1.617   2.658 -0.1135 -0.1235  0.0451
13160TIP3    H160895   0.739   1.557   2.583  0.1620 -2.0034  1.4799
13160TIP3    H260896   0.827   1.617   2.691 -0.3514  0.2269  0.7181
13161TIP3   OH260897   5.805   1.121   3.425 -0.8501  0.4349 -0.0064
13161TIP3    H160898   5.728   1.147   3.374  0.2396  0.0103 -1.9808
13161TIP3    H260899   5.861   1.199   3.423 -1.1201  0.6882  1.2876
13162TIP3   OH260900   0.743   3.603   2.757 -0.1650 -1.0525 -0.4206
13162TIP3    H160901   0.783   3.563   2.680  2.9187 -0.3952  0.6659
13162TIP3    H260902   0.765   3.696   2.751 -3.4421 -0.1720 -0.7124
13163TIP3   OH260903   1.969   5.235  14.089  0.0705  0.2607 -0.4442
13163TIP3    H160904   1.956   5.299  14.159  0.4746  1.1746 -1.1844
13163TIP3    H260905   1.883   5.224  14.049  0.3111  1.6358 -1.3902
13164TIP3   OH260906   2.701   0.946  14.726  0.3657 -0.1555 -0.5453
13164TIP3    H160907   2.749   1.015  14.680  1.2121 -0.8599 -0.7503
13164TIP3    H260908   2.643   0.909  14.660 -0.9421  1.1171 -0.1337
13165TIP3   OH260909   0.808   5.603  11.207 -0.7959 -0.0921  0.1250
13165TIP3    H160910   0.732   5.553  11.237  0.3560 -2.2930 -0.4310
13165TIP3    H260911   0.870   5.596  11.280 -0.3567 -0.0723 -0.2482
13166TIP3   OH260912   2.106   6.133  12.684 -0.7382 -0.5938  0.5266
13166TIP3    H160913   2.083   6.216  12.642  0.2182 -1.1126 -1.1257
13166TIP3    H260914   2.140   6.158  12.770 -1.9757  0.5753  0.7168
13167TIP3   OH260915   5.150   6.288   0.700  0.2697  0.6282  0.2508
13167TIP3    H160916   5.065   6.328   0.717  0.4505  0.6284  1.2423
13167TIP3    H260917   5.183   6.334   0.623 -0.3976  0.9900  0.1719
13168TIP3   OH260918   4.309   5.094   2.166 -0.2667  0.3599  0.3518
13168TIP3    H160919   4.356   5.176   2.153 -0.0868  0.1747 -0.2136
13168TIP3    H260920   4.374   5.025   2.150 -0.5441  0.1067  0.2852
13169TIP3   OH260921   0.991   1.958  10.407  1.1449 -0.0838  0.0696
13169TIP3    H160922   1.039   2.040  10.398 -1.0777  1.2341 -0.5056
13169TIP3    H260923   0.899   1.984  10.416  0.0976 -2.5336 -2.1200
13170TIP3   OH260924   5.413   2.161   0.414  0.0580  0.3456  0.5206
13170TIP3    H160925   5.339   2.218   0.432  0.7463  1.0620  1.1896
13170TIP3    H260926   5.378   2.093   0.356 -0.7381  1.5343 -0.4376
13171TIP3   OH260927   5.489   3.528  11.143 -0.0713  0.1283  0.2351
13171TIP3    H160928   5.581   3.531  11.118  0.4745 -2.1283  1.7002
13171TIP3    H260929   5.464   3.620  11.156  2.0917  0.7588  0.2884
13172TIP3   OH260930   1.763   5.410   3.338 -0.0671 -0.3422  0.0013
13172TIP3    H160931   1.806   5.496   3.337 -0.2153 -0.2631  0.2891
13172TIP3    H260932   1.798   5.365   3.261  0.7303 -0.3716  0.3639
13173TIP3   OH260933   5.341   0.176  13.607  0.0358 -0.5954  0.1041
13173TIP3    H160934   5.362   0.099  13.659  1.5028  0.2006  0.7539
13173TIP3    H260935   5.255   0.203  13.639  0.5705 -0.5773  1.6169
13174TIP3   OH260936   0.552   5.784  16.840 -0.2570 -0.1415 -0.1171
13174TIP3    H160937   0.552   5.826  16.754 -1.4665  0.1180 -0.0169
13174TIP3    H260938   0.495   5.840  16.893 -0.2455 -0.7941  0.6000
13175TIP3   OH260939   2.253   2.117   0.127 -0.1390 -0.1586 -0.5240
13175TIP3    H160940   2.270   2.178   0.198  1.9766 -0.0149 -1.0914
13175TIP3    H260941   2.159   2.124   0.111 -0.5600  0.2699  1.8032
13176TIP3   OH260942   5.858   2.634   1.662 -0.6634 -0.0499  0.6781
13176TIP3    H160943   5.768   2.606   1.648 -1.2455  0.7122  2.5779
13176TIP3    H260944   5.893   2.571   1.724  0.4107 -0.7986 -0.6257
13177TIP3   OH260945   3.152   2.266   3.044  0.0900 -0.4969 -0.5776
13177TIP3    H160946   3.203   2.187   3.062  0.3488 -0.5108 -1.3399
13177TIP3    H260947   3.114   2.250   2.957 -1.2320 -0.4960 -0.0274
13178TIP3   OH260948   5.213   1.300   0.595 -0.0632 -0.4017  0.0037
13178TIP3    H160949   5.235   1.208   0.608  1.8056  0.2680  2.3083
13178TIP3    H260950   5.117   1.301   0.588 -0.1182 -2.4943 -0.0603
13179TIP3   OH260951   4.774   4.404   1.773  0.3310 -0.6383 -0.6268
13179TIP3    H160952   4.848   4.445   1.819 -0.0845 -0.3911 -0.1780
13179TIP3    H260953   4.727   4.478   1.734  0.5179 -0.8226 -1.2164
13180TIP3   OH260954   2.114   6.453   1.329  0.3365  0.2958  0.5033
13180TIP3    H160955   2.038   6.395   1.320  0.0126  0.7897 -0.0116
13180TIP3    H260956   2.109   6.486   1.419 -0.4022  0.7856  0.2902
13181TIP3   OH260957   0.811   5.743  14.515  0.0830  0.0200  0.2455
13181TIP3    H160958   0.844   5.679  14.452  0.7302  1.3166 -0.7618
13181TIP3    H260959   0.816   5.827  14.470 -1.1631  0.7520  1.3856
13182TIP3   OH260960   5.240   6.183   3.382  0.5247  0.3374  0.0584
13182TIP3    H160961   5.273   6.103   3.342  0.0370  1.2830 -2.4119
13182TIP3    H260962   5.315   6.243   3.383  0.3485  0.5659 -0.1501
13183TIP3   OH260963   1.237   2.272  13.951  0.2436  0.4230 -0.2620
13183TIP3    H160964   1.178   2.324  14.005  0.6959  0.9767 -0.2877
13183TIP3    H260965   1.309   2.332  13.930  0.1324  0.1745 -1.3764
13184TIP3   OH260966   0.809   4.303  14.776  0.2342  0.2759  0.7176
13184TIP3    H160967   0.767   4.218  14.759  2.0969 -0.4867 -0.2853
13184TIP3    H260968   0.806   4.349  14.693  0.2707  0.7335  0.9646
13185TIP3   OH260969   0.918   0.131   3.084  0.7000  0.2737 -0.4147
13185TIP3    H160970   0.984   0.112   3.150  2.3168  0.8035 -1.8325
13185TIP3    H260971   0.871   0.207   3.119  0.8596 -0.0702  0.5751
13186TIP3   OH260972   1.936   3.530  15.055 -0.4010  0.2727 -0.1016
13186TIP3    H160973   1.989   3.477  14.996  1.0109  1.1827  0.2719
13186TIP3    H260974   1.855   3.481  15.066  0.5186 -1.3992 -0.3946
13187TIP3   OH260975   2.266   3.112  12.781 -0.6143 -0.2121 -0.0342
13187TIP3    H160976   2.300   3.056  12.711 -1.3842 -1.8353  0.8280
13187TIP3    H260977   2.184   3.147  12.747 -1.6141 -1.9707  0.4331
13188TIP3   OH260978   3.962   0.868   4.182  0.1155 -0.8795 -0.1043
13188TIP3    H160979   3.972   0.791   4.239  2.3482  0.0035  0.8272
13188TIP3    H260980   4.001   0.939   4.232 -0.5118  0.5660 -1.5867
13189TIP3   OH260981   2.999   2.710  16.319 -0.3006  0.0235  0.2619
13189TIP3    H160982   3.013   2.787  16.375  0.1589 -0.1077  0.3288
13189TIP3    H260983   3.024   2.636  16.373  2.6416  0.0526 -0.9107
13190TIP3   OH260984   5.957   2.211  11.191  0.0417 -0.0912 -0.1306
13190TIP3    H160985   6.002   2.290  11.163  0.5076  0.4428  1.9415
13190TIP3    H260986   5.875   2.211  11.141  1.1184  0.3557 -1.9621
13191TIP3   OH260987   5.282   0.482  12.905 -0.2744  0.0685  0.4560
13191TIP3    H160988   5.220   0.554  12.915 -0.3562  0.1486 -0.5042
13191TIP3    H260989   5.257   0.418  12.971 -0.3625  0.8072  1.1481
13192TIP3   OH260990   0.346   6.757   1.227  0.0789 -0.1636  0.0460
13192TIP3    H160991   0.350   6.667   1.197 -1.1842 -0.2237  0.0272
13192TIP3    H260992   0.288   6.755   1.303 -0.8101  0.7810 -0.5786
13193TIP3   OH260993   3.276   6.455  15.544  0.0710 -0.1113  0.9777
13193TIP3    H160994   3.333   6.409  15.606  1.8062 -0.7803 -0.9788
13193TIP3    H260995   3.233   6.385  15.496 -0.2771  0.3698  0.5875
13194TIP3   OH260996   0.488   5.267  10.405  0.0956  0.4372  0.3675
13194TIP3    H160997   0.526   5.234  10.324 -0.6841  0.4029  0.0086
13194TIP3    H260998   0.501   5.197  10.468 -0.8729 -0.2637 -0.1929
13195TIP3   OH260999   6.130   5.757  12.786  0.5819 -0.0659  0.5566
13195TIP3    H161000   6.122   5.662  12.777 -0.2257 -0.1572  1.9545
13195TIP3    H261001   6.044   5.786  12.817  0.5577  1.2448 -0.6037
13196TIP3   OH261002   5.005   3.718   0.891 -0.0872  0.8652  0.3080
13196TIP3    H161003   5.096   3.725   0.919  0.4283 -1.0692 -0.7052
13196TIP3    H261004   4.980   3.807   0.869  2.0922  1.2280 -0.9399
13197TIP3   OH261005   5.423   0.005   6.708 -0.2650  0.0129  0.3018
13197TIP3    H161006   5.377  -0.047   6.641 -1.0881  1.1751 -0.0575
13197TIP3    H261007   5.355   0.057   6.749  0.8279  2.8184 -1.1782
13198TIP3   OH261008   1.561   0.782   4.114  0.1802  0.1546  0.4126
13198TIP3    H161009   1.645   0.805   4.153  1.2866  0.4807 -2.0214
13198TIP3    H261010   1.515   0.865   4.105  0.6962  0.3432 -0.6244
13199TIP3   OH261011   1.662   0.404  16.369  0.9420  0.1869  0.1457
13199TIP3    H161012   1.621   0.320  16.389  0.4016  0.5769  0.7207
13199TIP3    H261013   1.744   0.381  16.325  2.4366 -0.8247  3.1300
13200TIP3   OH261014   4.665   3.544   2.980 -0.2331  0.0898 -0.1549
13200TIP3    H161015   4.740   3.504   2.936 -0.4904 -1.4539  0.7045
13200TIP3    H261016   4.704   3.600   3.048  0.1428  0.4146 -0.6373
13201TIP3   OH261017   5.907   0.603   1.553 -0.3452 -0.0644  0.2227
13201TIP3    H161018   5.868   0.641   1.474  0.0474  1.5578  0.7668
13201TIP3    H261019   5.860   0.645   1.625  1.3075  0.7558  0.8777
13202TIP3   OH261020   6.486   1.649   0.027 -0.0479  0.2527 -0.6794
13202TIP3    H161021   6.434   1.598   0.088 -2.3828  1.8310 -1.2064
13202TIP3    H261022   6.469   1.609  -0.058  0.1040  0.4080 -0.7837
13203TIP3   OH261023   4.085   6.770  12.957  0.4904  0.0635 -0.0823
13203TIP3    H161024   4.166   6.810  12.991 -0.0699  0.9654  0.2166
13203TIP3    H261025   4.038   6.842  12.917 -0.6880 -0.2190  0.7437
13204TIP3   OH261026   4.159   2.286  16.358 -0.0897 -0.2886  0.3704
13204TIP3    H161027   4.120   2.321  16.438 -1.5030  0.5779 -0.6325
13204TIP3    H261028   4.232   2.345  16.339 -0.6365  0.3659  0.2670
13205TIP3   OH261029   2.624   2.113   0.585  0.1016 -1.3854 -0.1151
13205TIP3    H161030   2.667   2.034   0.553  0.4736 -1.2756  0.1130
13205TIP3    H261031   2.695   2.172   0.610 -0.1687 -0.9723 -0.2861
13206TIP3   OH261032   4.897   4.136   4.963 -0.3301 -0.1249 -0.0233
13206TIP3    H161033   4.868   4.045   4.970 -1.3364  0.1242 -0.6976
13206TIP3    H261034   4.818   4.188   4.975  0.1461  0.6514 -0.1410
13207TIP3   OH261035   0.896   3.744   2.409  0.1225  0.3024 -0.0127
13207TIP3    H161036   0.964   3.812   2.406 -0.1978  0.5837 -1.2916
13207TIP3    H261037   0.935   3.673   2.460  0.4774  1.4146  1.3273
13208TIP3   OH261038   1.910   4.150  14.463 -0.6948  0.0967 -0.2466
13208TIP3    H161039   1.982   4.164  14.400 -1.0793  3.6062 -0.1090
13208TIP3    H261040   1.954   4.129  14.545  0.1272  0.8375 -0.4812
13209TIP3   OH261041   1.839   1.523   5.392 -0.0920  0.7064  0.3949
13209TIP3    H161042   1.928   1.556   5.388  0.4336 -0.4421  1.7514
13209TIP3    H261043   1.846   1.431   5.363 -0.9465  0.7864 -0.1078
13210TIP3   OH261044   4.826   1.929   5.903  0.3705 -0.1482 -0.0555
13210TIP3    H161045   4.742   1.918   5.947  2.1387 -1.9570  3.2385
13210TIP3    H261046   4.804   1.973   5.820 -3.3164  2.9143  2.2105
13211TIP3   OH261047   6.497   3.959   2.200  0.2115 -0.3937 -0.6844
13211TIP3    H161048   6.462   4.043   2.230 -1.8864 -1.8173  1.2018
13211TIP3    H261049   6.589   3.962   2.224 -0.1730  0.7977  0.8249
13212TIP3   OH261050   4.190   1.066   2.342 -0.2737 -0.1388  0.5788
13212TIP3    H161051   4.123   1.131   2.364  0.2811  0.5374  0.3277
13212TIP3    H261052   4.146   1.007   2.281 -0.1751  1.3186 -1.0027
13213TIP3   OH261053   5.080   0.485  13.984 -0.8144  0.0407 -0.0934
13213TIP3    H161054   5.049   0.405  14.025 -0.9549  0.2356  0.1842
13213TIP3    H261055   5.142   0.523  14.047  0.4716 -0.6517 -0.8933
13214TIP3   OH261056   2.468   3.880   2.901 -0.0045  0.0750  0.2184
13214TIP3    H161057   2.538   3.913   2.956  0.3379  0.7800 -0.6190
13214TIP3    H261058   2.407   3.838   2.962  0.5889  0.4271  1.0713
13215TIP3   OH261059   5.048   0.114   1.241 -0.2918  0.9360 -0.0965
13215TIP3    H161060   5.056   0.098   1.148  1.3196  0.2260  0.1427
13215TIP3    H261061   5.120   0.065   1.281  0.0431  2.5234  1.3667
13216TIP3   OH261062   0.509   1.066  13.302  0.0516  0.3165 -0.0458
13216TIP3    H161063   0.428   1.110  13.275 -0.0442 -0.0169 -0.3020
13216TIP3    H261064   0.568   1.077  13.227  0.7364  1.7636  0.6534
13217TIP3   OH261065   5.562   3.190   3.239  0.3988 -0.1064 -0.0395
13217TIP3    H161066   5.571   3.230   3.326  4.5418 -0.9767  0.1083
13217TIP3    H261067   5.650   3.163   3.215 -1.0809 -2.9937 -3.1128
13218TIP3   OH261068   2.896   3.937   4.691  0.0200 -0.3977 -0.3885
13218TIP3    H161069   2.933   4.018   4.656  0.8872 -0.0682  1.1892
13218TIP3    H261070   2.892   3.877   4.616 -0.9280  1.1761 -1.6596
13219TIP3   OH261071   5.430   5.594  16.032  0.0205  0.0370 -0.6203
13219TIP3    H161072   5.513   5.582  16.077 -0.1327 -0.8151 -0.5449
13219TIP3    H261073   5.364   5.592  16.102 -0.1397 -0.3237 -0.7770
13220TIP3   OH261074   3.158   0.771   0.785  0.0819  0.3133 -0.4687
13220TIP3    H161075   3.199   0.728   0.710  0.8538 -0.1912  0.2303
13220TIP3    H261076   3.219   0.840   0.809  1.2629 -1.3077  1.4407
13221TIP3   OH261077   0.183   1.165   3.251  0.4445 -0.2265 -0.5386
13221TIP3    H161078   0.105   1.122   3.218 -0.7976  0.6370  1.1373
13221TIP3    H261079   0.249   1.096   3.257 -1.1544 -1.6926  0.9954
13222TIP3   OH261080   4.882   6.556  12.062 -0.2757 -0.2494 -0.0775
13222TIP3    H161081   4.886   6.535  12.156  0.2304 -1.7950 -0.4258
13222TIP3    H261082   4.971   6.586  12.041 -0.5690  0.7599  0.0650
13223TIP3   OH261083   0.708   2.724  15.049  0.1648  0.2725 -0.0291
13223TIP3    H161084   0.658   2.659  15.000 -0.8695  0.7637  0.3325
13223TIP3    H261085   0.710   2.690  15.139 -0.9568  1.0444  0.3023
13224TIP3   OH261086   1.440   3.515  11.223  0.1683 -0.5456  0.3892
13224TIP3    H161087   1.455   3.468  11.140 -0.2689 -0.5999  0.3372
13224TIP3    H261088   1.526   3.515  11.266  0.9222  1.2968 -0.9787
13225TIP3   OH261089   1.734   6.170  12.465 -0.1330 -0.0875 -0.0415
13225TIP3    H161090   1.821   6.201  12.442 -0.7884  2.6925  0.9115
13225TIP3    H261091   1.679   6.192  12.390 -0.3059 -0.5173 -0.0472
13226TIP3   OH261092   3.364   5.281   5.909 -0.0726 -0.2745 -0.0596
13226TIP3    H161093   3.423   5.350   5.880  1.9128 -0.8925  2.1892
13226TIP3    H261094   3.330   5.311   5.993  2.4662 -2.7324  2.0398
13227TIP3   OH261095   6.398   0.901   5.679  0.4498  0.2526 -0.0517
13227TIP3    H161096   6.382   0.865   5.766  0.6527  0.2918  0.0035
13227TIP3    H261097   6.491   0.925   5.680  0.9243 -1.3477 -0.8493
13228TIP3   OH261098   3.707   0.820  12.099 -0.1608 -0.0308  0.5159
13228TIP3    H161099   3.789   0.788  12.061 -0.8385 -0.4365 -0.6570
13228TIP3    H261100   3.731   0.851  12.186  1.4087  0.7143 -0.1440
13229TIP3   OH261101   6.221   3.753  15.308  0.2362  0.2892 -0.0002
13229TIP3    H161102   6.298   3.776  15.360  0.0241  1.6275 -0.2556
13229TIP3    H261103   6.188   3.836  15.276 -1.2319 -0.2837 -0.0359
13230TIP3   OH261104   6.622   6.275   0.818 -0.4376  0.1905  0.5713
13230TIP3    H161105   6.669   6.357   0.836 -1.0654  0.4434  1.1393
13230TIP3    H261106   6.683   6.206   0.846  0.1530  0.4541 -0.0464
13231TIP3   OH261107   1.595   3.332  11.647 -0.5256  0.1442  0.3991
13231TIP3    H161108   1.575   3.345  11.740 -0.8862  0.3513  0.2981
13231TIP3    H261109   1.512   3.303  11.609 -0.7907  1.5078 -0.1280
13232TIP3   OH261110   0.027   5.045  11.454 -0.6832  0.0365  0.0569
13232TIP3    H161111  -0.013   5.007  11.532  0.9975 -3.5310 -0.6275
13232TIP3    H261112   0.119   5.060  11.478 -0.3313 -0.3434 -0.9797
13233TIP3   OH261113   5.187   2.884  13.428  0.0797  0.1317 -0.0359
13233TIP3    H161114   5.245   2.912  13.498 -0.8422  0.0912  0.7766
13233TIP3    H261115   5.234   2.903  13.348  2.3592 -2.3416  0.5879
13234TIP3   OH261116   3.584   1.178   3.013 -0.2016  0.5913 -0.0109
13234TIP3    H161117   3.571   1.203   3.105 -1.1740  0.9027 -0.2169
13234TIP3    H261118   3.502   1.135   2.989  0.0183  0.5895 -0.7653
13235TIP3   OH261119   2.850   0.929   0.587 -0.1566 -0.4898 -0.7202
13235TIP3    H161120   2.769   0.897   0.547 -0.0109 -2.0728  0.1854
13235TIP3    H261121   2.912   0.938   0.514 -0.9576  0.2129 -1.3384
13236TIP3   OH261122   5.609   5.118   4.681  0.1902  0.5085  0.1305
13236TIP3    H161123   5.566   5.066   4.614  0.3920  1.1753 -0.5276
13236TIP3    H261124   5.585   5.075   4.764 -0.9843  0.3409 -0.2822
13237TIP3   OH261125   5.460   1.879   2.449  0.0647  0.2402  0.1127
13237TIP3    H161126   5.458   1.845   2.359 -1.4965  1.8589 -0.5104
13237TIP3    H261127   5.391   1.830   2.494  0.7153 -0.4300  0.4074
13238TIP3   OH261128   3.874   6.717  15.363  0.3732 -0.0129  0.1778
13238TIP3    H161129   3.842   6.744  15.449  0.6521  0.7512  0.0472
13238TIP3    H261130   3.839   6.628  15.352 -1.4734  0.6631  0.1644
13239TIP3   OH261131   2.867   4.359  16.776  0.0730  0.3540  0.5782
13239TIP3    H161132   2.832   4.371  16.864  1.1208  1.4935  0.8665
13239TIP3    H261133   2.810   4.412  16.720 -0.4885 -0.2338  0.5847
13240TIP3   OH261134   4.845   2.871   2.709  0.1940  0.1253  0.4667
13240TIP3    H161135   4.843   2.842   2.801  0.3193  1.0377  0.7700
13240TIP3    H261136   4.888   2.800   2.662  0.0070 -0.4120  1.1003
13241TIP3   OH261137   5.638   0.672  14.258  0.5697 -0.0934  0.1829
13241TIP3    H161138   5.635   0.611  14.184  1.9740  0.1978 -0.1358
13241TIP3    H261139   5.619   0.758  14.220 -1.0543 -0.2407  0.5745
13242TIP3   OH261140   4.229   1.139   5.365 -0.2514  0.7169 -0.0133
13242TIP3    H161141   4.228   1.227   5.329  1.2898  0.9888  0.5571
13242TIP3    H261142   4.317   1.106   5.347 -0.2068 -0.0093  1.3869
13243TIP3   OH261143   3.311   5.495   5.580  0.3482  1.1219 -0.1268
13243TIP3    H161144   3.225   5.508   5.540  1.4037  0.5371 -2.7701
13243TIP3    H261145   3.325   5.400   5.576  0.7791  1.1151  1.1158
13244TIP3   OH261146   1.381   5.266  13.411  0.3138  0.4180  0.0247
13244TIP3    H161147   1.395   5.194  13.472 -0.9978 -1.0282 -1.3159
13244TIP3    H261148   1.396   5.229  13.325 -2.1417  1.2071 -0.8439
13245TIP3   OH261149   6.299   3.697   1.453  0.5716  0.2030 -0.4914
13245TIP3    H161150   6.290   3.646   1.372  0.2057  0.4295 -0.5980
13245TIP3    H261151   6.366   3.652   1.503 -0.5965 -1.1019 -0.0437
13246TIP3   OH261152   4.105   4.588  16.670 -0.3279  0.0738  0.6357
13246TIP3    H161153   4.157   4.575  16.591 -0.2474  0.4767  0.6206
13246TIP3    H261154   4.075   4.500  16.694 -0.7512  0.0040 -0.1075
13247TIP3   OH261155   4.880   3.202  15.132 -0.0568 -0.0484 -0.4505
13247TIP3    H161156   4.908   3.120  15.091  0.8569  0.1584 -0.2589
13247TIP3    H261157   4.811   3.176  15.193  0.3752 -0.6958 -0.2366
13248TIP3   OH261158   1.534   1.300  15.016  0.1635 -0.8213  0.3836
13248TIP3    H161159   1.513   1.208  15.004 -0.6148 -0.8362  1.6393
13248TIP3    H261160   1.449   1.345  15.012  0.3519 -0.3540  1.2180
13249TIP3   OH261161   6.489   6.044  11.847  0.3286  0.1687 -0.1018
13249TIP3    H161162   6.573   6.070  11.809 -0.2233  0.6951 -0.9988
13249TIP3    H261163   6.426   6.052  11.775 -0.8837  1.8525  1.0474
13250TIP3   OH261164   1.788   3.356   0.192 -0.1112  0.6202 -0.0698
13250TIP3    H161165   1.830   3.270   0.192  0.2820  0.8048  0.5574
13250TIP3    H261166   1.766   3.372   0.100 -0.2803 -0.1921 -0.1780
13251TIP3   OH261167   1.539   5.026  12.680  0.3550  0.0022 -0.0384
13251TIP3    H161168   1.541   5.096  12.614  0.3071  0.2389  0.2095
13251TIP3    H261169   1.595   4.958  12.644  1.7389  0.8375  0.4582
13252TIP3   OH261170   5.668   6.324   3.816 -0.4077  0.7006 -0.3144
13252TIP3    H161171   5.721   6.392   3.775 -0.1749  0.3424 -0.6250
13252TIP3    H261172   5.718   6.243   3.802 -1.9227  0.0322 -2.3604
13253TIP3   OH261173   5.992   1.822  15.811 -0.0742  0.2015 -0.1636
13253TIP3    H161174   6.001   1.846  15.719 -1.0425  1.6446  0.0891
13253TIP3    H261175   5.930   1.886  15.847  1.1700  0.3933  1.7807
13254TIP3   OH261176   5.379   4.681  15.423  0.0563  0.0663 -0.3692
13254TIP3    H161177   5.286   4.703  15.422  0.1316  0.4277  0.0754
13254TIP3    H261178   5.424   4.765  15.430  0.2954 -0.2059  3.4052
13255TIP3   OH261179   6.694   3.374   4.934  0.4158 -0.3540  0.9003
13255TIP3    H161180   6.614   3.409   4.896  0.0322 -1.6319  0.4828
13255TIP3    H261181   6.742   3.452   4.965  0.2711  0.6573 -1.2406
13256TIP3   OH261182   3.451   4.048  12.838  0.1300  0.3413 -0.3792
13256TIP3    H161183   3.476   4.016  12.751  2.3200  0.0703  0.2901
13256TIP3    H261184   3.415   3.971  12.882  0.2051  0.1685 -0.6148
13257TIP3   OH261185   4.041   5.514  16.455  0.3542 -0.5847  0.0156
13257TIP3    H161186   4.095   5.451  16.502  0.1210 -0.2019  0.8108
13257TIP3    H261187   3.951   5.483  16.466  0.2977 -0.4920 -0.1772
13258TIP3   OH261188   3.244   3.434  12.771  0.8952  0.1784 -0.5840
13258TIP3    H161189   3.330   3.465  12.744  0.5426  1.7508 -0.0051
13258TIP3    H261190   3.262   3.353  12.819  2.0782  0.5708 -0.3283
13259TIP3   OH261191   4.763   2.961   0.601  0.0343  1.0765 -0.6224
13259TIP3    H161192   4.813   3.036   0.570  0.8863  0.9029  0.2873
13259TIP3    H261193   4.735   2.916   0.521  1.3888  1.1534 -1.1638
13260TIP3   OH261194   0.145   5.647  11.101 -0.1858 -0.0955 -0.3371
13260TIP3    H161195   0.084   5.574  11.087 -0.7974  0.1001  1.1516
13260TIP3    H261196   0.099   5.724  11.067  0.1004 -0.2477 -1.0987
13261TIP3   OH261197   1.827   1.209  14.567 -0.1673  0.5312  0.1336
13261TIP3    H161198   1.780   1.205  14.651 -1.0639  0.7266 -0.3488
13261TIP3    H261199   1.827   1.302  14.545 -0.7478  0.3850 -0.5208
13262TIP3   OH261200   6.546   4.725   4.142  0.3473 -0.6258 -1.0699
13262TIP3    H161201   6.641   4.723   4.152  0.4158  0.7722 -1.3358
13262TIP3    H261202   6.515   4.652   4.197  1.3598  0.7927  1.5907
13263TIP3   OH261203   5.269   6.143   5.292 -0.2185 -0.6134  0.0123
13263TIP3    H161204   5.320   6.183   5.362 -0.2268  1.5054 -1.1354
13263TIP3    H261205   5.334   6.095   5.240  0.1243 -0.3693  0.2079
13264TIP3   OH261206   0.445   0.540  15.332  0.2149 -0.1132 -0.8462
13264TIP3    H161207   0.541   0.530  15.338  0.1642 -0.0892  0.1804
13264TIP3    H261208   0.424   0.514  15.242  1.2885  0.7360 -1.3698
13265TIP3   OH261209   4.028   6.108  13.523 -0.0564  0.1382  0.2059
13265TIP3    H161210   3.958   6.171  13.505  0.5195  1.3526  1.8962
13265TIP3    H261211   4.101   6.136  13.466 -0.3793 -0.1173 -0.3426
13266TIP3   OH261212   3.216   2.033   3.360  0.5772 -0.2478 -0.6899
13266TIP3    H161213   3.185   2.123   3.370  0.5207 -0.1621 -1.5756
13266TIP3    H261214   3.143   1.987   3.319  1.3096 -0.2336 -2.0493
13267TIP3   OH261215   0.766   4.844   0.681 -0.0247 -0.6256  0.7451
13267TIP3    H161216   0.695   4.864   0.741 -1.2776  0.4849 -1.0108
13267TIP3    H261217   0.846   4.859   0.732 -0.9712  2.4383  1.5457
13268TIP3   OH261218   5.936   1.560  16.387 -0.4407 -1.0290  0.1946
13268TIP3    H161219   5.991   1.486  16.413  1.9062  0.0011 -1.5120
13268TIP3    H261220   5.932   1.555  16.292  0.5803  1.5273 -0.0444
13269TIP3   OH261221   2.091   0.480   2.276 -0.0125  0.6289 -0.1482
13269TIP3    H161222   2.136   0.474   2.360 -1.2591 -1.5925  0.4387
13269TIP3    H261223   2.067   0.573   2.268  1.9362  1.2710  0.9221
13270TIP3   OH261224   1.624   4.258  12.946  0.8742 -0.1932  0.1012
13270TIP3    H161225   1.590   4.247  12.857  0.1218 -1.5130  0.5175
13270TIP3    H261226   1.642   4.351  12.954 -1.7119  0.4267 -0.4933
13271TIP3   OH261227   3.064   0.897   4.674 -0.6976 -0.4679  0.0251
13271TIP3    H161228   3.091   0.816   4.630 -1.4944 -0.7844  0.1031
13271TIP3    H261229   3.009   0.942   4.609 -1.0329 -0.4487  0.3205
13272TIP3   OH261230   1.585   5.496  14.388 -0.1169  0.4965 -0.3472
13272TIP3    H161231   1.591   5.424  14.325  1.0521  1.6400 -1.6156
13272TIP3    H261232   1.610   5.457  14.472  0.3964 -0.6051 -0.9948
13273TIP3   OH261233   1.802   5.202  12.736 -0.0142  0.3477 -0.0882
13273TIP3    H161234   1.819   5.139  12.666 -0.9008 -0.9773  0.8505
13273TIP3    H261235   1.738   5.263  12.700  1.1880  1.0444 -1.1573
13274TIP3   OH261236   3.826   1.153  14.998 -0.6270 -0.0418 -0.4648
13274TIP3    H161237   3.917   1.155  15.027  0.2585 -1.5739 -2.7735
13274TIP3    H261238   3.818   1.229  14.940 -0.9968  0.4047  0.1661
13275TIP3   OH261239   4.025   5.365  17.094 -0.2382 -0.5128 -0.4719
13275TIP3    H161240   4.081   5.437  17.126 -0.9872  0.9920 -2.3776
13275TIP3    H261241   4.040   5.295  17.157  1.0105  1.0813  1.1447
13276TIP3   OH261242   6.141   6.246  14.567  0.4526  0.0661  0.4200
13276TIP3    H161243   6.226   6.210  14.593  0.1131 -0.2739  1.0902
13276TIP3    H261244   6.085   6.231  14.643 -1.1407 -2.7299 -1.1579
13277TIP3   OH261245   6.334   2.377   5.030 -0.3347 -0.0097 -0.5078
13277TIP3    H161246   6.323   2.394   5.124 -1.1442 -2.5374 -0.0716
13277TIP3    H261247   6.390   2.449   4.999  2.6943 -0.7630  2.5683
13278TIP3   OH261248   2.714   1.607  12.606  0.0493  0.5175 -0.5311
13278TIP3    H161249   2.754   1.685  12.570 -0.6246  0.2698 -1.8788
13278TIP3    H261250   2.691   1.554  12.530  0.5072 -1.0152  0.3488
13279TIP3   OH261251   5.389   1.820   0.144  0.3889  0.0719 -0.3622
13279TIP3    H161252   5.384   1.912   0.118  2.6649 -0.1111 -1.6895
13279TIP3    H261253   5.390   1.771   0.061 -0.4162 -1.1490  0.3077
13280TIP3   OH261254   5.327   2.997   0.036  0.5304  0.0183  0.9312
13280TIP3    H161255   5.288   3.066   0.089 -0.2050  0.3070  0.0404
13280TIP3    H261256   5.403   2.968   0.086 -0.1401  0.2769  2.1270
13281TIP3   OH261257   4.893   4.048   3.645  0.2208  0.1978 -0.0903
13281TIP3    H161258   4.905   3.963   3.603  1.2896 -0.6379  1.7767
13281TIP3    H261259   4.974   4.062   3.695  0.5356  2.8327 -1.1558
13282TIP3   OH261260   2.576   3.908  14.029 -0.9866 -0.0533  0.1330
13282TIP3    H161261   2.539   3.964  14.097 -0.7869 -0.5972  0.6916
13282TIP3    H261262   2.501   3.882  13.976 -1.2666 -0.3756  0.6925
13283TIP3   OH261263   2.667   0.884  13.995  0.1535  0.6785  0.3341
13283TIP3    H161264   2.673   0.957  13.934 -1.7827  0.9812  0.4362
13283TIP3    H261265   2.757   0.851  14.002  0.7836  1.9857 -0.9874
13284TIP3   OH261266   1.038   6.495   0.852  0.2534 -0.4725 -0.3032
13284TIP3    H161267   0.963   6.517   0.797 -0.2970 -1.5874 -0.0404
13284TIP3    H261268   1.113   6.492   0.792 -0.0658 -0.1917 -0.7155
13285TIP3   OH261269   0.884   3.427  11.442 -0.1777 -0.4158 -0.3147
13285TIP3    H161270   0.934   3.441  11.361 -0.5759 -2.4007 -0.9701
13285TIP3    H261271   0.938   3.366  11.492 -0.0586  0.6032  0.8288
13286TIP3   OH261272   2.978   2.538   3.374 -0.0773 -0.2875 -1.1431
13286TIP3    H161273   2.930   2.599   3.319  0.0183  0.4869 -0.3913
13286TIP3    H261274   2.921   2.524   3.450  1.3762  1.7248  0.4436
13287TIP3   OH261275   3.166   1.584  16.758 -0.6089 -0.0345 -0.3535
13287TIP3    H161276   3.167   1.679  16.751 -0.8578  0.1531  1.6510
13287TIP3    H261277   3.238   1.555  16.701  1.3257  1.5620  1.1156
13288TIP3   OH261278   3.331   0.493  14.994  0.2016 -0.7518 -0.0858
13288TIP3    H161279   3.398   0.560  15.009 -0.2703 -0.1970 -0.3969
13288TIP3    H261280   3.380   0.411  14.989  0.7173 -0.5377  1.0338
13289TIP3   OH261281   1.288   2.332   6.381 -0.0352 -0.7650 -0.3977
13289TIP3    H161282   1.222   2.374   6.436  2.1684  1.4827  0.7212
13289TIP3    H261283   1.356   2.305   6.442  2.1371  1.1393 -1.8150
13290TIP3   OH261284   1.179   3.714   4.999  0.9961  0.0004  0.8945
13290TIP3    H161285   1.145   3.638   5.045 -1.0012  1.4883  2.0246
13290TIP3    H261286   1.269   3.724   5.031  1.0419 -1.4396  1.2443
13291TIP3   OH261287   1.573   5.330   3.972  0.0711 -0.1213 -0.7495
13291TIP3    H161288   1.638   5.381   4.021 -1.5396  1.4613 -0.1395
13291TIP3    H261289   1.526   5.396   3.921 -1.0914 -1.2172 -1.1258
13292TIP3   OH261290   3.122   0.575   4.559  0.4733 -0.0121 -0.3406
13292TIP3    H161291   3.141   0.510   4.491  2.4394 -0.6818  0.7590
13292TIP3    H261292   3.185   0.645   4.544 -0.9486  1.2127 -0.8769
13293TIP3   OH261293   5.378   1.625   5.427  0.3441 -0.2002  0.1693
13293TIP3    H161294   5.431   1.702   5.443 -0.1269  0.2813 -0.5430
13293TIP3    H261295   5.324   1.647   5.351 -0.2915 -0.9708  0.3737
13294TIP3   OH261296   5.723   0.542  10.565  0.1628 -0.8536 -0.2021
13294TIP3    H161297   5.645   0.538  10.621 -0.4872 -1.5956 -1.1417
13294TIP3    H261298   5.784   0.598  10.614 -1.2254  0.3571  0.2021
13295TIP3   OH261299   5.388   2.773   5.898  0.2737  0.4346  0.6398
13295TIP3    H161300   5.424   2.805   5.981 -0.9290 -0.3922  1.5104
13295TIP3    H261301   5.294   2.773   5.912  0.0957 -0.3973 -0.4910
13296TIP3   OH261302   5.524   1.210   3.809  0.5248  0.1300  0.1954
13296TIP3    H161303   5.595   1.230   3.747  0.7615  0.4338  0.5615
13296TIP3    H261304   5.450   1.188   3.753  0.8953 -0.1683 -0.1957
13297TIP3   OH261305   5.929   2.504  11.560 -0.0042 -0.4247 -0.6308
13297TIP3    H161306   5.983   2.502  11.481  0.5958  3.3960 -0.5474
13297TIP3    H261307   5.868   2.576  11.545 -1.0754 -0.7709  1.6596
13298TIP3   OH261308   4.947   0.147   5.057 -0.0885  0.4326 -0.1341
13298TIP3    H161309   4.862   0.116   5.089  0.9151 -1.3153  1.0027
13298TIP3    H261310   4.944   0.133   4.962 -0.8819 -0.0767 -0.0374
13299TIP3   OH261311   2.821   4.016  14.913 -0.0083 -0.4283  0.0456
13299TIP3    H161312   2.830   4.082  14.845  0.8222 -2.6052 -2.1108
13299TIP3    H261313   2.736   4.035  14.953 -0.1598  1.4231 -1.0276
13300TIP3   OH261314   2.296   3.666   0.738 -0.7041 -0.1162 -0.3352
13300TIP3    H161315   2.266   3.756   0.743 -1.2387 -0.2326 -1.2123
13300TIP3    H261316   2.215   3.614   0.738 -0.4726 -0.5006 -1.3858
13301TIP3   OH261317   2.860   1.142  14.582  0.2310  0.2442 -0.2391
13301TIP3    H161318   2.934   1.095  14.545 -0.7171 -0.6330 -1.0746
13301TIP3    H261319   2.802   1.159  14.508 -0.8180  0.1491  0.5298
13302TIP3   OH261320   2.459   5.649   2.808 -0.2331  0.4949 -0.4113
13302TIP3    H161321   2.428   5.571   2.762  0.3138  0.1924 -0.2789
13302TIP3    H261322   2.499   5.703   2.739 -0.1832  0.4340 -0.4309
13303TIP3   OH261323   5.962   0.847   0.054  0.0964  0.0762 -0.1722
13303TIP3    H161324   5.932   0.908   0.121  0.6108  0.8691 -0.6414
13303TIP3    H261325   6.056   0.864   0.046  0.0451  0.0183 -1.1038
13304TIP3   OH261326   2.105   4.888  12.481 -0.0940  0.6024  0.1118
13304TIP3    H161327   2.105   4.918  12.390 -1.7554  1.3430  0.3187
13304TIP3    H261328   2.191   4.913  12.515  0.9838 -0.6558 -1.5210
13305TIP3   OH261329   3.487   4.746   3.510  0.0050  0.1997 -0.1635
13305TIP3    H161330   3.510   4.833   3.540 -0.2295  1.3530 -3.0474
13305TIP3    H261331   3.411   4.759   3.453 -1.1484 -2.1487  0.6749
13306TIP3   OH261332   5.307   0.183   0.041  0.0478 -0.2314  0.0605
13306TIP3    H161333   5.385   0.237   0.025  1.3445 -1.9329  0.3130
13306TIP3    H261334   5.314   0.159   0.134 -1.9405  1.2627  0.6648
13307TIP3   OH261335   2.743   5.925   2.802 -0.1082 -0.2826  0.0962
13307TIP3    H161336   2.761   5.848   2.856 -1.5784 -2.0477 -1.7671
13307TIP3    H261337   2.664   5.963   2.839 -0.4074 -0.7627 -0.0384
13308TIP3   OH261338   0.820   3.518  14.977  0.3417  0.4050  0.3900
13308TIP3    H161339   0.725   3.531  14.974  0.0974 -1.2811 -0.6199
13308TIP3    H261340   0.857   3.602  14.951 -0.9376  0.5778 -0.9781
13309TIP3   OH261341   1.156   4.177   2.721  0.1026  0.0183 -0.5494
13309TIP3    H161342   1.063   4.157   2.710 -0.6425  3.2466 -1.4708
13309TIP3    H261343   1.164   4.200   2.813  0.0564 -0.5294 -0.4065
13310TIP3   OH261344   0.726   5.288  14.200 -0.2902 -0.4440  0.3572
13310TIP3    H161345   0.794   5.290  14.133 -1.5562 -0.9145 -1.0095
13310TIP3    H261346   0.762   5.234  14.270  1.2646  0.4833  0.3184
13311TIP3   OH261347   3.685   4.735   4.604 -0.1909  0.2894  0.8593
13311TIP3    H161348   3.730   4.732   4.689  2.3454  0.0181 -0.4073
13311TIP3    H261349   3.686   4.645   4.573 -2.6161  0.0779  1.2015
13312TIP3   OH261350   5.802   0.529  11.678 -0.0797 -0.3055  0.0669
13312TIP3    H161351   5.818   0.445  11.637  1.6017 -0.7668  1.5800
13312TIP3    H261352   5.889   0.568  11.690 -0.6213  0.4722  1.7646
13313TIP3   OH261353   0.302   4.907   0.723  0.2814  0.0726 -0.0084
13313TIP3    H161354   0.237   4.931   0.789  1.9475 -0.9877  2.1255
13313TIP3    H261355   0.382   4.889   0.772  1.3574 -1.7396 -2.2125
13314TIP3   OH261356   6.673   5.229  11.596  0.4748 -0.1898  0.5378
13314TIP3    H161357   6.722   5.273  11.666 -0.5298  0.6324  0.7441
13314TIP3    H261358   6.740   5.182  11.546  1.4002  0.4476  1.1464
13315TIP3   OH261359   0.892   4.112   0.873 -0.0170  0.9841  0.2323
13315TIP3    H161360   0.913   4.196   0.832  1.4405  0.5921  0.1125
13315TIP3    H261361   0.823   4.132   0.937  0.0013  2.1795 -0.1053
13316TIP3   OH261362   2.478   1.564   2.044  0.4494  0.1066  0.1522
13316TIP3    H161363   2.412   1.495   2.031 -1.0213  0.8286  2.9160
13316TIP3    H261364   2.559   1.516   2.064 -0.8888 -1.0326  3.6372
13317TIP3   OH261365   2.591   1.211  13.302  0.6092  1.0699  0.6448
13317TIP3    H161366   2.579   1.191  13.210 -0.1346  1.9999  0.5231
13317TIP3    H261367   2.502   1.218  13.337  0.8810  0.8430  1.4013
13318TIP3   OH261368   5.620   1.167  16.780  0.1244 -0.0921 -0.5237
13318TIP3    H161369   5.649   1.234  16.717  0.7906  0.3928  0.2827
13318TIP3    H261370   5.680   1.093  16.765 -1.2487 -0.9593 -2.1267
13319TIP3   OH261371   3.948   4.344  13.251  0.0227 -0.2157  0.5522
13319TIP3    H161372   4.031   4.358  13.204  0.3971  0.7542  1.4452
13319TIP3    H261373   3.971   4.359  13.343 -1.0860 -0.2600  0.8438
13320TIP3   OH261374   0.238   1.579   4.742  0.0551 -0.0018 -0.3472
13320TIP3    H161375   0.177   1.521   4.788 -0.0694  0.2363 -0.2127
13320TIP3    H261376   0.296   1.519   4.694 -1.8878 -0.2583 -2.6094
13321TIP3   OH261377   3.797   5.658  13.419 -0.2140  0.4235 -0.2835
13321TIP3    H161378   3.825   5.749  13.412  1.5844 -0.1434 -0.9249
13321TIP3    H261379   3.717   5.662  13.471  0.0452  2.3250  0.0435
13322TIP3   OH261380   2.136   2.954  15.149 -0.3878  0.1939  0.5039
13322TIP3    H161381   2.117   2.918  15.062  0.5753  1.1155 -0.1181
13322TIP3    H261382   2.222   2.917  15.172  0.0080  1.0380  0.4283
13323TIP3   OH261383   5.423   4.545  11.286 -0.0062 -0.2418 -0.0743
13323TIP3    H161384   5.482   4.473  11.264  0.2906  0.3510 -1.3493
13323TIP3    H261385   5.420   4.546  11.381 -0.7024 -2.4671 -0.0201
13324TIP3   OH261386   1.581   5.747   3.613  0.0264 -0.3902  0.0414
13324TIP3    H161387   1.585   5.740   3.517 -1.1913 -0.8213  0.0105
13324TIP3    H261388   1.612   5.835   3.632 -1.2753  0.2966 -0.8816
13325TIP3   OH261389   3.470   4.054  13.221 -0.1198 -0.7540  0.0483
13325TIP3    H161390   3.485   4.056  13.316  0.8883 -0.8514 -0.0972
13325TIP3    H261391   3.378   4.078  13.211 -0.5909 -1.9596  1.1264
13326TIP3   OH261392   1.535   5.499   1.079 -0.4608 -0.2170 -0.0778
13326TIP3    H161393   1.486   5.452   1.145  0.5583 -0.3916  0.5709
13326TIP3    H261394   1.567   5.578   1.123 -0.9434  0.3774 -0.7539
13327TIP3   OH261395   3.460   3.467  12.196 -0.2350 -0.3298 -0.3703
13327TIP3    H161396   3.495   3.379  12.185  0.9067 -0.0230  0.5836
13327TIP3    H261397   3.442   3.474  12.290  0.4565  0.7050 -0.2975
13328TIP3   OH261398   3.824   4.890  12.824  0.3472 -0.0766  0.5041
13328TIP3    H161399   3.759   4.957  12.807 -0.5159 -0.7303  1.1233
13328TIP3    H261400   3.774   4.814  12.855  1.1382 -1.5344 -1.5650
13329TIP3   OH261401   1.037   4.138  11.029 -0.3061 -0.4304  0.1213
13329TIP3    H161402   0.999   4.094  10.953 -2.2005  1.4003 -0.0909
13329TIP3    H261403   1.051   4.228  11.000  2.1775 -0.4736  0.9495
13330TIP3   OH261404   5.750   4.746  12.755 -0.1392  0.2790 -0.2504
13330TIP3    H161405   5.827   4.747  12.812 -0.4065 -1.3006  0.1887
13330TIP3    H261406   5.711   4.832  12.765  0.3796  0.3628  1.1951
13331TIP3   OH261407   5.831   2.420   2.778  0.2156  0.3159 -0.3744
13331TIP3    H161408   5.913   2.441   2.823 -0.1118  0.1766  0.2827
13331TIP3    H261409   5.768   2.402   2.847 -0.0051 -1.0143 -0.8819
13332TIP3   OH261410   2.500   4.447  16.738  0.3261  0.1542  0.4977
13332TIP3    H161411   2.503   4.537  16.769 -0.5314  0.0658  0.8720
13332TIP3    H261412   2.553   4.398  16.800  1.2494  0.4751 -0.0182
13333TIP3   OH261413   3.187   1.316  12.510 -0.0246 -0.1730 -0.3016
13333TIP3    H161414   3.252   1.248  12.523 -1.4856 -2.0003 -1.9345
13333TIP3    H261415   3.139   1.320  12.592  1.8419  0.9817  0.8126
13334TIP3   OH261416   2.560   5.837  15.922  0.0049  0.3051 -0.1481
13334TIP3    H161417   2.597   5.791  15.847  0.9519 -0.3505  0.7019
13334TIP3    H261418   2.559   5.772  15.992 -0.4089  1.0465  0.5551
13335TIP3   OH261419   3.740   1.659  12.730  0.0485  0.1907  0.2155
13335TIP3    H161420   3.834   1.675  12.737 -0.2227  1.7190  0.7575
13335TIP3    H261421   3.707   1.732  12.678 -1.0027  0.3333  1.0495
13336TIP3   OH261422   1.069   5.005  15.583  0.2288 -0.2782 -0.3348
13336TIP3    H161423   1.086   4.930  15.639 -2.3113 -0.1211  0.7752
13336TIP3    H261424   1.030   5.071  15.641 -3.4985 -0.4651 -2.2779
13337TIP3   OH261425   0.030   1.037  15.289 -0.4320  0.3615 -1.0105
13337TIP3    H161426   0.120   1.059  15.311 -0.0181  1.1055 -3.2106
13337TIP3    H261427   0.037   0.981  15.212 -1.8536  0.8188 -1.4995
13338TIP3   OH261428   6.491   0.025   5.908  0.0418 -0.4091 -0.1259
13338TIP3    H161429   6.459   0.052   5.822  0.5737 -3.0254 -1.2510
13338TIP3    H261430   6.413  -0.004   5.955 -0.0923 -0.2582 -0.2571
13339TIP3   OH261431   1.750   5.577   3.757  0.0818 -0.3655  0.0509
13339TIP3    H161432   1.728   5.575   3.851  0.9117 -3.5195  0.3141
13339TIP3    H261433   1.670   5.607   3.714 -0.1761  1.5811  1.7635
13340TIP3   OH261434   1.182   3.676  12.678  0.0743 -0.4484  0.3832
13340TIP3    H161435   1.105   3.698  12.626  0.9918  0.9628 -0.4518
13340TIP3    H261436   1.228   3.609  12.627 -0.3959 -1.0490  0.7246
13341TIP3   OH261437   1.189   5.694   5.536  0.3106 -0.8382  0.5931
13341TIP3    H161438   1.262   5.731   5.488 -0.7984 -0.5210 -0.9286
13341TIP3    H261439   1.225   5.616   5.580  1.3196 -1.2686 -0.9447
13342TIP3   OH261440   4.538   5.284   0.327 -0.2821 -0.2557  0.3470
13342TIP3    H161441   4.532   5.189   0.336 -0.2385 -0.1737  1.3424
13342TIP3    H261442   4.488   5.318   0.401 -2.6546  0.5351 -1.4818
13343TIP3   OH261443   0.251   2.842   1.111  0.4463 -0.0109 -0.3685
13343TIP3    H161444   0.288   2.919   1.067  0.9859  0.4267  0.8158
13343TIP3    H261445   0.163   2.833   1.074 -0.2696  2.1995  0.6355
13344TIP3   OH261446   5.019   5.974  16.883  0.0225  0.3639 -0.1496
13344TIP3    H161447   4.982   5.919  16.953 -1.5122  1.1268 -0.3211
13344TIP3    H261448   5.017   6.063  16.919  0.4275  0.5957 -0.6942
13345TIP3   OH261449   1.305   2.842  11.033 -0.6123  0.2988 -0.0425
13345TIP3    H161450   1.390   2.887  11.034 -0.1661 -0.4690  1.6731
13345TIP3    H261451   1.281   2.837  10.941  0.7102  1.4659 -0.4831
13346TIP3   OH261452   2.773   5.127  17.070  0.2681 -0.7546 -0.4958
13346TIP3    H161453   2.846   5.080  17.111  1.7526  0.3914 -1.6835
13346TIP3    H261454   2.741   5.068  17.003  0.7356 -0.9161 -0.5837
13347TIP3   OH261455   4.891   2.480  13.967  0.4479 -0.0339  0.4938
13347TIP3    H161456   4.931   2.418  14.029  1.2601 -0.0730 -0.0562
13347TIP3    H261457   4.964   2.511  13.914 -0.4379 -1.1658 -1.4727
13348TIP3   OH261458   4.897   4.355  16.557  0.1099 -0.1285 -0.0407
13348TIP3    H161459   4.945   4.387  16.481 -0.3736 -0.2820 -0.4181
13348TIP3    H261460   4.941   4.394  16.632  1.6314 -1.2966 -0.2839
13349TIP3   OH261461   2.986   2.657  16.606 -0.3632 -0.0178 -0.4260
13349TIP3    H161462   2.979   2.582  16.665 -0.9712  0.2566 -0.1349
13349TIP3    H261463   3.051   2.713  16.647 -0.0615 -0.2877 -0.5308
13350TIP3   OH261464   4.338   1.865  12.330  0.0463 -0.2376 -0.0098
13350TIP3    H161465   4.356   1.801  12.400 -0.0781 -0.4221 -0.1473
13350TIP3    H261466   4.243   1.862  12.319  0.0044  0.2093  0.2078
13351TIP3   OH261467   3.807   0.296  14.181  0.1167 -0.1957 -0.0357
13351TIP3    H161468   3.903   0.289  14.187  0.0538  0.0790  2.1721
13351TIP3    H261469   3.786   0.379  14.223 -1.1814 -0.8210  0.6054
13352TIP3   OH261470   3.499   2.227  11.113  0.5301  0.0758  0.1502
13352TIP3    H161471   3.484   2.298  11.176 -1.0659  0.9295 -1.1431
13352TIP3    H261472   3.585   2.246  11.076 -0.3075  2.0115 -0.9509
13353TIP3   OH261473   1.686   1.018  16.514  0.5304  0.0450  0.3104
13353TIP3    H161474   1.732   1.097  16.543 -0.2841  0.0508  1.6840
13353TIP3    H261475   1.593   1.041  16.518  0.2366 -1.1746  1.4386
13354TIP3   OH261476   4.308   5.511  13.416  0.1066 -0.1891  0.0541
13354TIP3    H161477   4.265   5.431  13.445  0.7657 -0.1787  1.1321
13354TIP3    H261478   4.384   5.520  13.474 -0.1746  1.4266  0.2296
13355TIP3   OH261479   3.514   0.652  13.251  0.5974 -0.2370 -0.0163
13355TIP3    H161480   3.563   0.570  13.237  1.9628  0.2238  1.7612
13355TIP3    H261481   3.566   0.700  13.315 -0.8102  1.5189 -0.1338
13356TIP3   OH261482   3.064   0.291  13.990  0.1442 -0.3400 -0.1657
13356TIP3    H161483   3.150   0.311  14.027  0.6799  0.2901 -1.6862
13356TIP3    H261484   3.011   0.368  14.009  0.1039 -0.4422  0.1554
13357TIP3   OH261485   0.382   3.425   4.676 -0.0250 -0.1003 -0.2775
13357TIP3    H161486   0.377   3.513   4.713  0.5329 -0.4738  0.7253
13357TIP3    H261487   0.474   3.398   4.688  0.1586 -0.3048 -1.8197
13358TIP3   OH261488   1.381   1.752  10.784  0.1422 -0.5230 -0.5811
13358TIP3    H161489   1.317   1.823  10.782  0.1911 -0.4914 -1.7234
13358TIP3    H261490   1.339   1.681  10.735  0.4898 -0.9441 -0.2787
13359TIP3   OH261491   5.902   5.216   1.445  0.4731 -0.5269  0.4866
13359TIP3    H161492   5.902   5.122   1.431 -1.8222 -0.5408  0.1964
13359TIP3    H261493   5.970   5.249   1.386  0.9151 -1.9294  0.1767
13360TIP3   OH261494   1.484   0.627  14.715  0.1942 -0.6106 -0.4916
13360TIP3    H161495   1.440   0.589  14.639  0.6854 -0.0934 -1.0388
13360TIP3    H261496   1.550   0.686  14.679 -0.2839  0.4735  0.3361
13361TIP3   OH261497   3.264   0.961  12.261  0.3285  0.2494  0.4911
13361TIP3    H161498   3.243   0.880  12.215  1.1690  0.2969 -0.0071
13361TIP3    H261499   3.181   1.008  12.267  0.4900  1.3513 -3.1691
13362TIP3   OH261500   0.554   0.639  13.849  0.0890  0.4131 -1.1853
13362TIP3    H161501   0.579   0.723  13.810  0.0195  1.0000 -0.0085
13362TIP3    H261502   0.634   0.607  13.891  0.0206  0.0493 -1.3208
13363TIP3   OH261503   0.908   4.838  14.276 -0.1700  0.0765 -0.0507
13363TIP3    H161504   0.827   4.802  14.312 -0.2246  1.5506  1.4087
13363TIP3    H261505   0.974   4.770  14.294 -0.5968 -0.0646  1.0610
13364TIP3   OH261506   3.744   2.269  10.960  0.3058 -0.5506 -0.3288
13364TIP3    H161507   3.787   2.317  10.889  0.7270 -0.6270 -0.1320
13364TIP3    H261508   3.810   2.266  11.030 -0.4744  0.4648  0.4797
13365TIP3   OH261509   2.677   1.464   0.832 -0.4269  0.1631  0.0374
13365TIP3    H161510   2.661   1.374   0.803 -0.0688 -0.0733  0.5799
13365TIP3    H261511   2.750   1.458   0.893 -1.3545  0.6263  1.2228
13366TIP3   OH261512   1.979   5.062  11.191  0.0042 -0.2851 -0.0109
13366TIP3    H161513   1.997   5.006  11.115  0.5979  1.0514 -0.8867
13366TIP3    H261514   2.062   5.107  11.208 -0.4467  0.2900  0.7066
13367TIP3   OH261515   5.507   1.529  16.145  0.5198  0.1701 -0.6206
13367TIP3    H161516   5.413   1.537  16.161 -0.0994 -2.1012 -2.6103
13367TIP3    H261517   5.542   1.492  16.227 -0.2533  1.1596  0.1802
13368TIP3   OH261518   1.674   1.538   2.436  0.9788  0.2263  0.2031
13368TIP3    H161519   1.580   1.537   2.455  0.7153  0.4076 -1.0279
13368TIP3    H261520   1.688   1.619   2.387  2.0892  1.0253  1.7481
13369TIP3   OH261521   0.951   6.588  13.022 -0.6169  0.3429  0.0152
13369TIP3    H161522   0.863   6.565  12.994 -0.7940  0.2918  0.5982
13369TIP3    H261523   0.960   6.681  13.003 -1.2054  0.6103  0.9904
13370TIP3   OH261524   0.607   3.187  15.270 -0.0389 -0.2035  0.3188
13370TIP3    H161525   0.652   3.124  15.214  1.1277  1.2076 -0.4046
13370TIP3    H261526   0.515   3.182  15.244  0.5195  0.7592 -2.1585
13371TIP3   OH261527   1.291   2.703   3.518 -0.1391  0.5542  0.2643
13371TIP3    H161528   1.198   2.724   3.510 -0.1396  0.3019 -0.4955
13371TIP3    H261529   1.328   2.723   3.432 -0.0198 -1.9300 -0.3518
13372TIP3   OH261530   2.231   5.986   0.772  0.3930 -0.1492  0.2790
13372TIP3    H161531   2.238   6.081   0.767  0.7835 -0.1366  0.9882
13372TIP3    H261532   2.243   5.957   0.681 -2.7096  0.6302 -0.4783
13373TIP3   OH261533   0.705   1.935  13.905  0.2012  0.4703 -0.0372
13373TIP3    H161534   0.745   1.973  13.827  1.0487 -0.4014 -0.0518
13373TIP3    H261535   0.734   1.843  13.904 -1.2415 -0.0066  0.3409
13374TIP3   OH261536   1.923   1.728   3.462  0.3359 -0.0511 -0.1410
13374TIP3    H161537   1.847   1.785   3.468  0.4015  0.1165 -0.8926
13374TIP3    H261538   1.892   1.650   3.416  0.7887  0.3194 -1.0839
13375TIP3   OH261539   2.773   2.495   5.615  0.7825  0.0775  0.1261
13375TIP3    H161540   2.715   2.458   5.548  0.5943 -1.7121  1.2117
13375TIP3    H261541   2.792   2.584   5.584 -0.9645  0.0336 -1.2307
13376TIP3   OH261542   4.076   5.101   5.472 -0.0476 -0.4566 -0.2969
13376TIP3    H161543   4.037   5.027   5.425 -2.0013  0.5668 -0.4069
13376TIP3    H261544   4.008   5.168   5.471  0.7840  0.5076  1.8483
13377TIP3   OH261545   4.388   0.781  16.866 -0.6222  0.0416 -0.0496
13377TIP3    H161546   4.453   0.758  16.932  1.6646  0.1015 -2.1538
13377TIP3    H261547   4.306   0.741  16.898  0.4905 -0.3829  2.4830
13378TIP3   OH261548   0.251   1.385   4.503  0.2292  0.1562  0.5234
13378TIP3    H161549   0.249   1.290   4.492 -1.3243  0.0174  1.6908
13378TIP3    H261550   0.326   1.414   4.450 -0.0438 -1.5566 -0.8903
13379TIP3   OH261551   2.203   5.595  13.537 -0.1363 -0.3928 -0.3230
13379TIP3    H161552   2.207   5.500  13.536 -1.1290 -0.4889  1.0624
13379TIP3    H261553   2.232   5.619  13.625  0.7308  0.6395 -0.8604
13380TIP3   OH261554   2.450   4.761  13.779  0.6783 -0.3325  0.2032
13380TIP3    H161555   2.518   4.717  13.830  0.4008 -0.5780  0.3633
13380TIP3    H261556   2.421   4.695  13.716  0.1232 -0.4459  0.5716
13381TIP3   OH261557   3.826   1.389  15.207  0.1379  0.0064 -0.5518
13381TIP3    H161558   3.914   1.359  15.188  0.4681  1.1965 -1.0032
13381TIP3    H261559   3.803   1.445  15.133 -1.5042 -1.3001 -1.0890
13382TIP3   OH261560   3.067   1.571   4.818  0.4212  0.3169 -0.2419
13382TIP3    H161561   3.028   1.593   4.903  0.7990  0.4662 -0.1073
13382TIP3    H261562   3.088   1.478   4.825  0.8151  0.4223 -0.0297
13383TIP3   OH261563   3.219   2.215  14.446 -0.1320 -0.4198  0.4166
13383TIP3    H161564   3.257   2.162  14.376  1.6800  0.7402  0.4482
13383TIP3    H261565   3.217   2.304  14.411 -0.9900 -0.1185  1.1745
13384TIP3   OH261566   5.211   4.121  10.620  0.2441  0.6961  0.1531
13384TIP3    H161567   5.294   4.081  10.597 -0.0060  0.1479  0.2034
13384TIP3    H261568   5.198   4.189  10.553  0.6349  0.6591  0.0378
13385TIP3   OH261569   5.658   1.365   2.121  0.2668 -0.1571 -0.2442
13385TIP3    H161570   5.713   1.438   2.148 -0.6269  0.5769 -0.3468
13385TIP3    H261571   5.568   1.396   2.136 -0.1177 -1.9423  1.5550
13386TIP3   OH261572   4.318   5.838   2.402 -0.3429 -0.3773 -0.1187
13386TIP3    H161573   4.297   5.925   2.436  2.6853 -0.3686  2.1174
13386TIP3    H261574   4.411   5.843   2.379 -0.3976 -2.6882 -1.1036
13387TIP3   OH261575   0.926   6.206  12.197  0.3244  0.6515 -0.3603
13387TIP3    H161576   0.971   6.221  12.114  0.5605  0.6547 -0.2339
13387TIP3    H261577   0.953   6.280  12.252  0.3712  0.5135 -0.1984
13388TIP3   OH261578   5.250   6.808   4.636  0.6072  0.1778 -0.2531
13388TIP3    H161579   5.309   6.769   4.700 -0.7161 -3.4130 -0.9822
13388TIP3    H261580   5.182   6.849   4.688  1.7165  1.0513  0.5691
13389TIP3   OH261581   0.594   6.342   0.973 -0.3230 -0.0705  0.4405
13389TIP3    H161582   0.563   6.369   0.886  1.8908  0.3116 -0.2900
13389TIP3    H261583   0.569   6.250   0.979 -1.5403  0.1992 -0.0880
13390TIP3   OH261584   1.373   1.024  12.695 -0.3676 -0.2893  0.0209
13390TIP3    H161585   1.352   1.070  12.776 -1.0118 -0.0108 -0.2957
13390TIP3    H261586   1.289   0.987  12.666 -0.2123 -0.1089 -0.6797
13391TIP3   OH261587   4.199   0.039   3.652  0.0005  0.7527  0.3943
13391TIP3    H161588   4.223   0.033   3.559  0.4319 -0.6272  0.5791
13391TIP3    H261589   4.282   0.048   3.698 -0.2705  2.6114  0.6023
13392TIP3   OH261590   0.600   5.574  11.831  0.1682  0.1998 -0.6567
13392TIP3    H161591   0.543   5.578  11.754 -0.3494  1.3647 -0.2352
13392TIP3    H261592   0.540   5.575  11.905  0.6536 -1.0924 -0.2179
13393TIP3   OH261593   4.924   1.430   4.854  0.3628  0.1785  0.2997
13393TIP3    H161594   4.940   1.353   4.800  1.9430  0.3484  0.4686
13393TIP3    H261595   4.839   1.462   4.826  1.5094  0.8537 -2.8472
13394TIP3   OH261596   5.918   1.045  15.035 -0.2092 -0.3467 -0.0330
13394TIP3    H161597   5.959   1.059  15.120  1.0300  0.2754 -0.7077
13394TIP3    H261598   5.888   1.132  15.008 -0.8051 -0.5801 -0.1371
13395TIP3   OH261599   0.421   6.596  11.807  1.0027 -0.2141  0.4017
13395TIP3    H161600   0.417   6.508  11.770  1.7357  0.0624 -0.3526
13395TIP3    H261601   0.350   6.598  11.872 -0.7301 -0.4902 -1.4084
13396TIP3   OH261602   1.553   2.695  10.487 -0.4388 -0.2208  0.7321
13396TIP3    H161603   1.498   2.772  10.502 -1.2304 -0.6869  0.2686
13396TIP3    H261604   1.518   2.655  10.408  0.4512 -0.6403  0.5418
13397TIP3   OH261605   4.150   2.902   2.516 -0.5723 -0.2764 -0.2150
13397TIP3    H161606   4.090   2.968   2.551  0.8482  1.4321 -0.8275
13397TIP3    H261607   4.176   2.936   2.430  0.7884 -1.2496 -0.2270
13398TIP3   OH261608   1.119   5.232  11.225 -0.4132 -0.0957 -0.0616
13398TIP3    H161609   1.137   5.240  11.132  0.5656 -1.4793 -0.0236
13398TIP3    H261610   1.184   5.289  11.267 -0.0754 -0.4019 -0.1716
13399TIP3   OH261611   2.560   4.811  11.807 -0.0509  0.1104 -0.0957
13399TIP3    H161612   2.571   4.725  11.766  0.3441 -0.1757  0.5978
13399TIP3    H261613   2.649   4.841  11.825 -0.1526  0.9579 -0.8995
13400TIP3   OH261614   2.494   3.521   2.813  0.2012  0.0915 -0.1277
13400TIP3    H161615   2.563   3.584   2.791  0.5487 -0.2873 -0.1456
13400TIP3    H261616   2.540   3.450   2.858 -0.4789  0.8238  1.8238
13401TIP3   OH261617   4.964   3.427  14.546 -0.2241  0.2277  0.0124
13401TIP3    H161618   4.883   3.382  14.523  0.3126 -1.5293  1.3218
13401TIP3    H261619   4.937   3.498  14.604 -0.9036  0.2189 -0.2946
13402TIP3   OH261620   1.781   2.157  10.918  0.5834  0.5382 -0.0111
13402TIP3    H161621   1.808   2.209  10.842  3.8004 -1.0920 -0.1453
13402TIP3    H261622   1.691   2.131  10.898  0.4158  2.3604 -1.9627
13403TIP3   OH261623   5.977   2.962   6.325  0.1955 -0.1538 -0.1398
13403TIP3    H161624   5.939   3.042   6.287  1.0936  0.2195 -0.2925
13403TIP3    H261625   6.031   2.994   6.397  1.7526 -0.4686 -1.1264
13404TIP3   OH261626   5.505   5.807   1.895  0.7612  0.6338  0.2250
13404TIP3    H161627   5.499   5.731   1.838  0.4593 -1.4527  2.8578
13404TIP3    H261628   5.417   5.845   1.893  0.6784  0.4232 -0.4214
13405TIP3   OH261629   6.629   6.433  13.144 -0.2966 -0.8134 -0.3972
13405TIP3    H161630   6.580   6.356  13.171 -0.3318 -0.5888  0.1999
13405TIP3    H261631   6.695   6.400  13.084 -1.1818 -1.1188 -1.2276
13406TIP3   OH261632   3.414   1.158  11.720  0.2613 -0.0371 -0.5204
13406TIP3    H161633   3.372   1.073  11.734  1.3823 -0.6557 -0.7503
13406TIP3    H261634   3.446   1.182  11.807  0.5829 -0.2134 -0.5867
13407TIP3   OH261635   5.288   6.038   1.543  0.0070  0.3761  0.6329
13407TIP3    H161636   5.329   5.952   1.532 -0.0079  0.4912 -0.3709
13407TIP3    H261637   5.202   6.029   1.503 -0.1697  0.7367  0.9284
13408TIP3   OH261638   1.939   1.161   3.842  0.3260 -0.4913 -0.5033
13408TIP3    H161639   1.971   1.249   3.821  2.1909 -0.3001  2.5278
13408TIP3    H261640   1.866   1.176   3.902 -1.5701 -1.0676 -2.5290
13409TIP3   OH261641   6.561   4.553  11.657 -0.5977  0.0638 -0.1698
13409TIP3    H161642   6.644   4.542  11.703  0.3172 -1.4162 -2.0155
13409TIP3    H261643   6.585   4.566  11.565 -2.3806 -1.5204 -0.9448
13410TIP3   OH261644   4.925   2.912   1.055 -0.1823 -0.2163  0.8204
13410TIP3    H161645   4.952   2.957   0.975 -1.0885  0.6428  0.9695
13410TIP3    H261646   4.993   2.847   1.070 -0.0317 -0.4622 -0.6967
13411TIP3   OH261647   6.615   6.357   1.416 -0.2051 -0.6592 -0.6839
13411TIP3    H161648   6.676   6.297   1.374 -1.6679 -0.3975 -3.4657
13411TIP3    H261649   6.570   6.305   1.483  3.7482 -0.5357  2.3923
13412TIP3   OH261650   1.504   3.265  11.906 -0.4761  0.2242 -0.3343
13412TIP3    H161651   1.463   3.276  11.991 -0.0989 -1.0163  0.0349
13412TIP3    H261652   1.541   3.177  11.908 -1.1046 -0.1333 -2.0572
13413TIP3   OH261653   5.356   5.361   1.182  0.3498  0.0986 -0.5978
13413TIP3    H161654   5.359   5.266   1.189 -4.2395 -0.3994 -2.1609
13413TIP3    H261655   5.382   5.380   1.092 -0.5992  0.0523 -0.8975
13414TIP3   OH261656   0.274   5.888  11.284  0.6162  0.5027 -0.1235
13414TIP3    H161657   0.260   5.941  11.362  1.4163  3.1851 -1.6897
13414TIP3    H261658   0.361   5.850  11.296  0.2377 -0.1242  0.7904
13415TIP3   OH261659   6.700   4.835   3.105 -0.4899  0.1238 -0.4119
13415TIP3    H161660   6.623   4.886   3.133 -0.7605  0.2332 -1.3335
13415TIP3    H261661   6.762   4.845   3.177 -0.4689  1.9205 -0.6194
13416TIP3   OH261662   4.252   4.760   0.903  0.0189 -0.0044 -0.2317
13416TIP3    H161663   4.171   4.734   0.860  0.0864  0.4717 -0.6639
13416TIP3    H261664   4.284   4.834   0.851  0.0801  0.6200  0.6616
13417TIP3   OH261665   6.691   5.514  15.007  0.2405  0.2828  0.2255
13417TIP3    H161666   6.608   5.550  14.976 -0.5612 -2.0114 -0.5071
13417TIP3    H261667   6.702   5.552  15.094 -1.6945  0.5097  0.4284
13418TIP3   OH261668   5.338   2.254   3.453  0.1188  0.0279  0.2193
13418TIP3    H161669   5.344   2.302   3.535  2.1129  0.7389 -0.2818
13418TIP3    H261670   5.349   2.162   3.478 -0.3023  0.1370  0.8288
13419TIP3   OH261671   1.547   0.589  16.858  0.2386  0.1054  0.2031
13419TIP3    H161672   1.555   0.684  16.866  0.7145  0.0019  1.0875
13419TIP3    H261673   1.594   0.568  16.778  0.3312  0.5951  0.1277
13420TIP3   OH261674   1.570   1.150   5.630 -0.3123 -0.1015  0.2909
13420TIP3    H161675   1.652   1.197   5.623  0.0681 -0.7430  0.3820
13420TIP3    H261676   1.548   1.153   5.723 -0.2181 -0.2274  0.3167
13421TIP3   OH261677   5.628   4.314  15.840  0.5129  0.4794 -0.4326
13421TIP3    H161678   5.688   4.287  15.771 -0.1093  2.2482 -1.7411
13421TIP3    H261679   5.612   4.407  15.823 -0.8823  0.5907  1.1896
13422TIP3   OH261680   3.981   1.498  11.836  0.4017 -0.1468 -0.6152
13422TIP3    H161681   4.034   1.425  11.806  2.1023  0.9656 -0.4939
13422TIP3    H261682   4.000   1.505  11.929 -0.7232 -0.3211 -0.3651
13423TIP3   OH261683   5.072   5.792  14.477  0.2894 -0.2074  0.2011
13423TIP3    H161684   4.978   5.805  14.491  0.1634  0.2387 -0.9929
13423TIP3    H261685   5.114   5.861  14.528 -0.0885  0.3315 -0.2035
13424TIP3   OH261686   4.013   3.098   3.652 -0.2522 -0.1695  0.5202
13424TIP3    H161687   4.071   3.137   3.717  0.4427  0.7394 -0.5896
13424TIP3    H261688   4.066   3.094   3.572 -1.2021 -0.8572 -0.0963
13425TIP3   OH261689   0.022   3.231  11.664 -0.6397 -0.3879 -0.3322
13425TIP3    H161690   0.111   3.265  11.676 -0.7307 -0.0264 -0.6457
13425TIP3    H261691   0.021   3.197  11.574 -0.0006 -2.9580  0.5617
13426TIP3   OH261692   0.143   6.066  16.767  0.2339  0.2707  0.3344
13426TIP3    H161693   0.148   5.993  16.704 -0.2777  0.5296 -0.0161
13426TIP3    H261694   0.231   6.102  16.768  0.3438  0.0232  0.0508
13427TIP3   OH261695   0.379   3.029  10.546 -0.7168  0.1025 -0.5918
13427TIP3    H161696   0.350   2.973  10.617  2.6520 -0.5202  0.4756
13427TIP3    H261697   0.427   2.971  10.487 -0.7596  1.1617 -1.7195
13428TIP3   OH261698   0.857   4.747   2.492  0.2905  0.6724 -0.0258
13428TIP3    H161699   0.858   4.673   2.553 -1.0284 -0.0319 -0.8216
13428TIP3    H261700   0.943   4.745   2.451 -0.0062 -0.9448 -0.6294
13429TIP3   OH261701   6.757   3.269  15.309  0.2698  0.3517 -0.7363
13429TIP3    H161702   6.757   3.237  15.400  2.8141 -0.1550 -0.8195
13429TIP3    H261703   6.755   3.364  15.318 -2.6516  0.3233 -0.3170
13430TIP3   OH261704   1.558   1.111   0.568 -0.0234  0.1126 -0.1244
13430TIP3    H161705   1.582   1.148   0.653 -0.2825  1.2135 -0.5160
13430TIP3    H261706   1.577   1.181   0.505  1.1187 -1.0353 -1.1093
13431TIP3   OH261707   5.925   1.329  11.327  0.3483  0.5210 -0.7132
13431TIP3    H161708   5.855   1.301  11.268  1.1945  0.1769 -1.5916
13431TIP3    H261709   5.981   1.251  11.336  0.2401  0.5805  0.5361
13432TIP3   OH261710   5.774   3.442   2.179 -0.4590 -0.3930  0.4083
13432TIP3    H161711   5.723   3.371   2.217 -0.4463 -0.0597  1.0584
13432TIP3    H261712   5.776   3.423   2.085  0.7107 -1.9828  0.7244
13433TIP3   OH261713   6.760   4.991  11.008 -0.3877 -0.3930  0.2296
13433TIP3    H161714   6.754   5.051  10.934 -2.3267 -1.0000 -0.1619
13433TIP3    H261715   6.788   5.045  11.081  0.5253  0.4269 -0.7057
13434TIP3   OH261716   5.734   2.078   0.676 -0.4755 -0.0218 -0.3559
13434TIP3    H161717   5.686   2.011   0.628 -0.7004  0.1102 -0.3180
13434TIP3    H261718   5.735   2.047   0.767 -0.2934 -0.1334 -0.3945
13435TIP3   OH261719   5.266   5.884   4.599 -0.4172  0.0400 -0.7995
13435TIP3    H161720   5.255   5.863   4.691  2.7726  0.8320 -0.1185
13435TIP3    H261721   5.237   5.806   4.552 -1.4129 -0.6432  0.8881
13436TIP3   OH261722   4.127   3.481   3.703  0.1664  0.7639 -0.0087
13436TIP3    H161723   4.158   3.529   3.626 -0.7615  1.2431 -0.0984
13436TIP3    H261724   4.033   3.498   3.705  0.1292  0.4848  1.0462
13437TIP3   OH261725   0.872   0.672   4.610 -0.4945  0.4176  0.2564
13437TIP3    H161726   0.850   0.616   4.535 -0.4545  0.3667  0.2822
13437TIP3    H261727   0.894   0.756   4.571  1.9570 -0.2621 -0.0270
13438TIP3   OH261728   2.079   5.567   0.040  0.3316 -0.6620  0.3995
13438TIP3    H161729   2.126   5.650   0.044 -1.4391  0.4186 -0.0895
13438TIP3    H261730   2.125   5.510   0.102  1.0740  0.9485  1.3812
13439TIP3   OH261731   5.805   5.342  14.760 -0.0999  0.0697 -0.0555
13439TIP3    H161732   5.757   5.345  14.842 -1.0161  1.2416 -0.5998
13439TIP3    H261733   5.808   5.249  14.737 -2.2860 -0.0342 -0.0874
13440TIP3   OH261734   6.179   1.765  14.409 -0.4351  0.6003  0.3142
13440TIP3    H161735   6.130   1.682  14.406 -0.6110  0.7073  0.1945
13440TIP3    H261736   6.266   1.740  14.439  0.3182 -0.0240 -2.1041
13441TIP3   OH261737   2.045   1.249  14.157 -0.1406 -0.1734 -0.5114
13441TIP3    H161738   2.083   1.177  14.209 -1.0801  0.2667  0.8381
13441TIP3    H261739   2.121   1.300  14.129  0.5338 -1.5349 -1.3091
13442TIP3   OH261740   2.696   4.015   3.608 -0.4782 -0.0474  0.2960
13442TIP3    H161741   2.652   3.941   3.648 -1.1452 -0.1479 -0.5934
13442TIP3    H261742   2.772   4.031   3.664 -0.3900 -1.3224  0.5755
13443TIP3   OH261743   2.993   5.826   0.679 -0.7004 -0.5106  0.7335
13443TIP3    H161744   3.055   5.790   0.742  0.1811 -0.7477 -0.2424
13443TIP3    H261745   3.035   5.906   0.647 -1.0224 -0.5243  0.2682
13444TIP3   OH261746   6.354   2.273   2.226 -0.5891 -0.0789  0.1088
13444TIP3    H161747   6.436   2.322   2.226 -0.6910  0.0974  0.5197
13444TIP3    H261748   6.291   2.332   2.267 -0.8356 -0.3530  0.1265
13445TIP3   OH261749   4.975   6.367  14.688 -0.5952 -0.0716  0.1824
13445TIP3    H161750   5.054   6.393  14.735  0.0304  1.2977 -1.5190
13445TIP3    H261751   5.003   6.295  14.631 -0.3100  0.9799 -1.0557
13446TIP3   OH261752   3.797   2.169  17.072 -0.8764 -0.1244 -0.4337
13446TIP3    H161753   3.726   2.233  17.074 -0.1120  0.7274  0.4570
13446TIP3    H261754   3.794   2.127  17.158 -0.2002  0.0413 -0.3255
13447TIP3   OH261755   6.679   6.116  12.501  0.5611 -0.3041 -0.1579
13447TIP3    H161756   6.691   6.118  12.596  1.2638 -3.3670 -0.0693
13447TIP3    H261757   6.747   6.173  12.467  0.2616  0.8851  1.1639
13448TIP3   OH261758   0.167   1.142   4.835  0.1603  0.3956 -0.5449
13448TIP3    H161759   0.260   1.160   4.827 -0.1210  1.2931 -2.2706
13448TIP3    H261760   0.139   1.118   4.747 -1.1431 -0.4525  0.0591
13449TIP3   OH261761   0.055   0.684  11.437 -0.3480 -0.0208  0.3412
13449TIP3    H161762   0.046   0.659  11.529  1.0962 -1.8854  0.0217
13449TIP3    H261763  -0.017   0.639  11.393  0.4282 -1.1761  0.2209
13450TIP3   OH261764   2.161   1.206  10.880 -0.0244 -0.2844  0.3633
13450TIP3    H161765   2.220   1.257  10.825 -1.1583  1.3929  0.5973
13450TIP3    H261766   2.080   1.199  10.829  0.2188 -2.2613  0.1717
13451TIP3   OH261767   3.374   0.141  17.060  0.0209  0.1963 -0.1698
13451TIP3    H161768   3.301   0.087  17.029 -0.5475  0.9851 -0.2373
13451TIP3    H261769   3.448   0.116  17.004 -0.1393 -0.7517  0.0279
13452TIP3   OH261770   0.495   5.899   4.571  0.1260 -0.0449  0.5351
13452TIP3    H161771   0.513   5.993   4.577 -1.1323  0.2659 -0.1626
13452TIP3    H261772   0.405   5.894   4.539  0.5650 -1.4809 -0.6067
13453TIP3   OH261773   3.520   0.105   0.519 -0.1694  0.4858 -0.0090
13453TIP3    H161774   3.499   0.136   0.431  1.7511  1.0373 -0.3064
13453TIP3    H261775   3.440   0.123   0.570 -1.6750 -0.7309 -1.8004
13454TIP3   OH261776   2.175   6.285  10.683  0.0963 -0.5486  1.0096
13454TIP3    H161777   2.225   6.245  10.611  1.4518  1.0374  1.0222
13454TIP3    H261778   2.102   6.329  10.639  0.4855 -0.2331  0.6722
13455TIP3   OH261779   5.945   1.788   1.749 -0.4475  0.5665 -0.8809
13455TIP3    H161780   5.951   1.711   1.806 -0.6703  0.1621 -1.3940
13455TIP3    H261781   5.858   1.823   1.765 -0.6483  0.2393 -1.2329
13456TIP3   OH261782   0.963   5.991   1.405  0.8059 -0.4636  0.8638
13456TIP3    H161783   0.955   5.933   1.330  0.0042 -2.2539  2.2413
13456TIP3    H261784   0.959   6.079   1.369  0.8189 -1.2650 -1.2020
13457TIP3   OH261785   2.692   5.819  13.355 -0.5049  0.4220 -0.0778
13457TIP3    H161786   2.615   5.807  13.411 -1.4051 -0.5188 -1.4381
13457TIP3    H261787   2.766   5.792  13.410 -1.3235 -0.2926  0.7156
13458TIP3   OH261788   4.328   0.462  13.692  0.1033  1.3212  0.6607
13458TIP3    H161789   4.325   0.545  13.740 -1.0196  0.7869  1.5606
13458TIP3    H261790   4.356   0.486  13.604  1.8643  2.3877  1.4455
13459TIP3   OH261791   2.457   4.251   3.620 -0.3468 -0.0862 -0.6689
13459TIP3    H161792   2.461   4.288   3.532  0.7312  2.0732  0.2304
13459TIP3    H261793   2.382   4.294   3.661  1.8090  2.5278  0.8880
13460TIP3   OH261794   5.850   0.091  15.360 -0.1564 -0.1413 -0.2220
13460TIP3    H161795   5.809   0.172  15.330  0.6102  0.4195  0.2220
13460TIP3    H261796   5.865   0.041  15.280 -0.7936  0.0761 -0.4827
13461TIP3   OH261797   2.684   1.850   1.249 -0.3876  0.1581  0.1384
13461TIP3    H161798   2.742   1.870   1.175  0.1807  0.2492  0.6011
13461TIP3    H261799   2.708   1.914   1.316 -3.2200  2.3891 -0.7537
13462TIP3   OH261800   0.687   2.587   4.648  0.0330 -0.2846  0.2877
13462TIP3    H161801   0.601   2.546   4.655  1.0211 -2.4346  0.5113
13462TIP3    H261802   0.731   2.541   4.576  0.4656  1.8819 -0.9397
13463TIP3   OH261803   4.345   1.819  10.555  0.0278  0.0750 -0.1133
13463TIP3    H161804   4.356   1.725  10.543 -0.4553  0.1653 -1.4361
13463TIP3    H261805   4.252   1.835  10.537  0.0120  0.7654  0.4980
13464TIP3   OH261806   2.577   0.874  12.192  0.6088 -0.2189  0.4733
13464TIP3    H161807   2.554   0.791  12.233 -1.9135 -0.3025 -0.9154
13464TIP3    H261808   2.500   0.929  12.203 -0.4145 -0.3007 -4.1146
13465TIP3   OH261809   4.005   2.864  13.589 -0.0581  0.2189 -0.2328
13465TIP3    H161810   3.928   2.922  13.591 -0.2015  0.1937 -2.4003
13465TIP3    H261811   4.073   2.917  13.547  0.7446 -0.1893  0.5285
13466TIP3   OH261812   3.272   2.523   5.554 -0.5884 -0.2668 -0.0769
13466TIP3    H161813   3.232   2.436   5.561  0.2754 -0.5924  1.1819
13466TIP3    H261814   3.354   2.515   5.604 -0.7561  1.4231  0.5167
13467TIP3   OH261815   4.706   5.028  15.740  0.1522 -0.0356  0.0145
13467TIP3    H161816   4.614   5.039  15.764  0.1580 -0.3677  0.2063
13467TIP3    H261817   4.749   5.109  15.767  0.1293 -0.3339  0.9986
13468TIP3   OH261818   2.915   2.859   1.502  0.1886  0.3973  0.1851
13468TIP3    H161819   2.890   2.940   1.545 -2.3232 -0.4948  0.5571
13468TIP3    H261820   2.868   2.860   1.418 -0.1334 -0.7638  0.3233
13469TIP3   OH261821   2.157   5.152  12.082 -0.7716 -0.3226  0.0316
13469TIP3    H161822   2.116   5.173  11.999  0.9769  0.3696 -0.7056
13469TIP3    H261823   2.191   5.236  12.114  0.4599 -0.9296  0.3663
13470TIP3   OH261824   3.038   0.764  15.398  0.7852 -1.2709 -0.0973
13470TIP3    H161825   3.075   0.682  15.367  0.5459 -1.3841 -0.0794
13470TIP3    H261826   3.054   0.764  15.492  1.8064 -0.7805 -0.2462
13471TIP3   OH261827   0.285   0.060  12.675 -0.0869 -0.0283  0.8589
13471TIP3    H161828   0.220   0.090  12.739 -0.2286 -0.6159  1.0012
13471TIP3    H261829   0.251  -0.024  12.645  0.1014  0.1357  0.1830
13472TIP3   OH261830   6.089   1.176   6.482 -0.0862  0.3338 -0.1842
13472TIP3    H161831   6.043   1.208   6.560 -2.1795 -1.6722 -0.4883
13472TIP3    H261832   6.049   1.221   6.409  1.2763  1.5523 -0.2359
13473TIP3   OH261833   0.550   6.485   1.303  0.0915  0.2715 -0.1725
13473TIP3    H161834   0.494   6.496   1.380  0.0157  0.2545 -0.2247
13473TIP3    H261835   0.639   6.500   1.335  0.5769 -3.8243  0.8906
13474TIP3   OH261836   1.480   5.004  11.909  0.7621  0.4522 -0.3036
13474TIP3    H161837   1.518   4.932  11.959  2.3574 -0.5437 -2.7078
13474TIP3    H261838   1.452   4.963  11.827  0.8552  2.4075 -1.3705
13475TIP3   OH261839   2.174   1.041   3.932  0.4070  0.1589 -0.1893
13475TIP3    H161840   2.099   1.079   3.887  0.6896 -0.5112 -1.2700
13475TIP3    H261841   2.219   1.115   3.972  1.1836  1.0855 -2.6015
13476TIP3   OH261842   5.741   5.760  15.010 -0.0807 -0.0713 -0.2926
13476TIP3    H161843   5.683   5.697  15.053 -1.0713 -0.0304 -1.5315
13476TIP3    H261844   5.787   5.803  15.083  0.2180 -1.8090  0.6079
13477TIP3   OH261845   3.772   4.700   5.836  0.2379 -0.6077 -0.1518
13477TIP3    H161846   3.831   4.769   5.805  0.6819 -1.5417 -1.4528
13477TIP3    H261847   3.685   4.739   5.830  0.3688 -0.5465 -2.0300
13478TIP3   OH261848   6.291   6.739  16.304 -0.1371 -0.0420  0.4579
13478TIP3    H161849   6.196   6.729  16.304 -0.1018 -0.5944 -1.4161
13478TIP3    H261850   6.324   6.650  16.296  0.5358  0.2263  0.2516
13479TIP3   OH261851   0.320   4.180   1.698 -0.1284  0.7696 -0.1769
13479TIP3    H161852   0.342   4.089   1.680 -2.4661 -0.2067  1.4203
13479TIP3    H261853   0.290   4.215   1.614  0.6364  0.0262 -0.7681
13480TIP3   OH261854   4.931   5.033   5.583  0.4562 -0.4208 -0.3790
13480TIP3    H161855   4.913   4.942   5.561  2.5012 -1.2177  0.9454
13480TIP3    H261856   5.026   5.041   5.577  0.3542  1.5313 -0.0886
13481TIP3   OH261857   2.071   0.176  10.313 -0.5529  0.1442 -0.3037
13481TIP3    H161858   1.982   0.186  10.280 -0.6084  0.3936 -0.0854
13481TIP3    H261859   2.081   0.247  10.377 -0.0768  0.3373 -0.5850
13482TIP3   OH261860   1.676   6.729  14.870  0.3064  0.4143 -0.2193
13482TIP3    H161861   1.699   6.821  14.884  1.3484 -0.0505  1.4841
13482TIP3    H261862   1.755   6.681  14.894 -0.8525 -1.0208  0.9390
13483TIP3   OH261863   0.417   6.406   4.000 -0.3750  0.3924 -0.1513
13483TIP3    H161864   0.348   6.402   3.933  0.1691  2.2902 -0.9066
13483TIP3    H261865   0.378   6.366   4.077 -1.5079 -0.6417 -1.2143
13484TIP3   OH261866   5.730   5.877   3.802 -0.2264  0.1484 -0.4113
13484TIP3    H161867   5.704   5.788   3.828  2.1026  0.1842  2.5576
13484TIP3    H261868   5.661   5.933   3.836  0.2726 -0.2608  1.3586
13485TIP3   OH261869   0.712   0.175  13.893  0.1065  0.0779  0.1973
13485TIP3    H161870   0.707   0.153  13.799 -0.3485 -1.2322  0.5053
13485TIP3    H261871   0.636   0.231  13.909  0.2393  0.3864 -0.2275
13486TIP3   OH261872   0.049   4.350   1.016 -0.6118  0.6506  0.2340
13486TIP3    H161873   0.079   4.315   1.100 -0.3411  1.2911  0.4106
13486TIP3    H261874   0.106   4.308   0.951 -0.7689  0.2150  0.3714
13487TIP3   OH261875   5.579   4.775  12.191  0.1909  0.2539 -0.2042
13487TIP3    H161876   5.588   4.868  12.211 -0.6386  0.0735  1.0805
13487TIP3    H261877   5.656   4.734  12.229  1.3956  0.5886 -2.1699
13488TIP3   OH261878   4.296   0.891  13.357 -0.2608  0.0774  0.6777
13488TIP3    H161879   4.371   0.949  13.345  0.2018 -0.3799  1.3221
13488TIP3    H261880   4.279   0.855  13.270  1.5617 -1.3799  0.8687
13489TIP3   OH261881   4.937   0.609  15.766 -0.0315 -0.2122  0.2965
13489TIP3    H161882   4.908   0.698  15.743  1.0850 -0.1885 -1.2078
13489TIP3    H261883   4.986   0.580  15.689  1.4227 -1.3374  1.5844
13490TIP3   OH261884   1.825   2.353   6.229  0.0238 -0.5992  0.0697
13490TIP3    H161885   1.756   2.298   6.265  0.8230 -1.6607  0.0106
13490TIP3    H261886   1.896   2.293   6.207  0.6598  0.3651 -0.6398
13491TIP3   OH261887   3.606   3.775  11.465  0.2548  0.3234  0.2462
13491TIP3    H161888   3.577   3.699  11.414  0.0511 -0.0215  0.8589
13491TIP3    H261889   3.582   3.753  11.556 -3.0384  2.5568  0.0931
13492TIP3   OH261890   5.383   3.238   3.638 -0.2238  0.3883  0.2697
13492TIP3    H161891   5.478   3.244   3.644 -0.0885 -1.7602  1.1150
13492TIP3    H261892   5.362   3.150   3.671 -2.2768 -0.2101 -2.2557
13493TIP3   OH261893   2.653   5.256   0.451 -0.2269  0.6949 -0.6044
13493TIP3    H161894   2.564   5.230   0.429  0.0819  0.5717 -1.7542
13493TIP3    H261895   2.643   5.342   0.493 -1.1392 -0.5905  2.0750
13494TIP3   OH261896   1.953   0.628  16.778 -0.1265 -0.3876  0.0993
13494TIP3    H161897   1.891   0.672  16.719  0.5221  0.9827  0.4012
13494TIP3    H261898   2.039   0.650  16.744  0.2972 -3.7875 -1.4131
13495TIP3   OH261899   1.000   1.089  15.254  0.6505 -0.0603  0.5790
13495TIP3    H161900   1.065   1.098  15.184  0.2357 -2.0221 -0.1261
13495TIP3    H261901   0.942   1.164  15.242  0.9028 -0.0595 -0.8844
13496TIP3   OH261902   4.277   6.107  12.857 -0.0444  0.1400 -0.8638
13496TIP3    H161903   4.223   6.167  12.908 -0.2833  0.5988 -1.6351
13496TIP3    H261904   4.329   6.060  12.922 -0.1396  0.9007 -0.2249
13497TIP3   OH261905   3.400   5.770   5.538  0.3537  0.8638 -0.3240
13497TIP3    H161906   3.382   5.820   5.618 -2.1658 -1.0765  0.4366
13497TIP3    H261907   3.358   5.686   5.553  1.6908 -0.3473 -2.8690
13498TIP3   OH261908   0.683   6.168   2.699 -0.1157  0.0386  0.1040
13498TIP3    H161909   0.674   6.197   2.790  1.0807 -0.5917  0.4496
13498TIP3    H261910   0.690   6.073   2.706  0.7993  0.0481 -0.5686
13499TIP3   OH261911   0.651   3.521  17.048  0.0248  0.0404  0.0155
13499TIP3    H161912   0.616   3.608  17.026  1.8427  0.9556  0.5561
13499TIP3    H261913   0.726   3.510  16.990  0.5788 -0.6123  0.8294
13500TIP3   OH261914   2.359   6.586  10.351  0.2309  0.3851 -0.5942
13500TIP3    H161915   2.286   6.523  10.348  0.8479 -0.3395 -0.5826
13500TIP3    H261916   2.317   6.670  10.371 -0.3398 -0.4682  2.3124
13501TIP3   OH261917   1.491   5.981  11.690  0.2423 -0.0780 -0.0005
13501TIP3    H161918   1.410   5.991  11.740  1.4047  1.5936  1.6532
13501TIP3    H261919   1.504   5.886  11.686 -2.8317 -0.5589 -2.1762
13502TIP3   OH261920   5.851   3.315  13.872 -0.1124  0.1905 -0.1822
13502TIP3    H161921   5.868   3.221  13.868  0.4142  0.1555  1.9529
13502TIP3    H261922   5.936   3.354  13.891 -0.4294  1.0690 -0.5296
13503TIP3   OH261923   3.419   3.728   1.093 -0.2507  0.4295 -0.1351
13503TIP3    H161924   3.409   3.783   1.170  1.8155 -0.7099  1.0219
13503TIP3    H261925   3.330   3.705   1.068 -0.9714  0.0570  2.4950
13504TIP3   OH261926   4.425   2.863   3.598  0.0245  0.3622  0.6706
13504TIP3    H161927   4.336   2.847   3.566  0.5997  0.2920 -1.0430
13504TIP3    H261928   4.467   2.777   3.595  0.1157  0.3598  1.6578
13505TIP3   OH261929   3.174   3.839  14.261 -0.5795 -0.2211 -0.5980
13505TIP3    H161930   3.186   3.932  14.238 -0.1022 -0.7152 -2.5119
13505TIP3    H261931   3.106   3.840  14.329  1.1002  1.7040  1.2448
13506TIP3   OH261932   1.013   4.725  16.783 -0.3686 -0.5444  0.3447
13506TIP3    H161933   1.038   4.791  16.847  1.4999 -0.6205 -0.2478
13506TIP3    H261934   0.987   4.774  16.705  2.6992 -0.3918 -0.7197
13507TIP3   OH261935   6.040   1.985   0.274 -0.0980 -0.4251 -0.5701
13507TIP3    H161936   6.011   1.946   0.192  0.5782 -0.0095 -1.0158
13507TIP3    H261937   6.004   2.074   0.273 -0.1658 -0.4482 -0.3698
13508TIP3   OH261938   1.705   4.394   6.079 -0.0107  0.1384 -0.0624
13508TIP3    H161939   1.738   4.365   6.165 -1.4207  0.2128  0.5293
13508TIP3    H261940   1.784   4.404   6.026  1.1514  2.1502  1.8399
13509TIP3   OH261941   2.705   6.535   4.629 -0.2393  0.0932  0.4553
13509TIP3    H161942   2.730   6.444   4.646  2.2406  0.0757 -2.3774
13509TIP3    H261943   2.768   6.587   4.679  0.0187  0.2085  0.0126
13510TIP3   OH261944   3.023   6.106   4.228 -0.6601 -0.3990 -0.2166
13510TIP3    H161945   2.961   6.064   4.288  1.6583 -3.2685  0.4084
13510TIP3    H261946   3.011   6.060   4.145  0.5466 -0.9865 -0.0915
13511TIP3   OH261947   3.714   3.183  12.060 -0.3564 -0.3388 -0.3437
13511TIP3    H161948   3.761   3.101  12.079  1.1585  0.4051 -0.7190
13511TIP3    H261949   3.677   3.209  12.145  0.5637 -0.5585  0.1385
13512TIP3   OH261950   0.531   6.096   0.991 -0.1772  0.0229  0.3516
13512TIP3    H161951   0.622   6.073   1.010  0.1647  0.0002 -1.2174
13512TIP3    H261952   0.490   6.013   0.964  0.3825  0.6286 -2.7319
13513TIP3   OH261953   1.010   3.264  14.527 -0.1059  0.1375  0.2321
13513TIP3    H161954   1.028   3.277  14.620 -0.3586 -1.1507  0.4903
13513TIP3    H261955   1.094   3.275  14.484  0.0581  0.5077  0.6467
13514TIP3   OH261956   1.259   5.648  13.743  0.2437  0.1884 -0.2455
13514TIP3    H161957   1.220   5.566  13.775 -0.5493  0.6261 -0.0550
13514TIP3    H261958   1.302   5.685  13.820  2.1828 -0.8964 -0.7254
13515TIP3   OH261959   6.463   4.140  16.171 -0.6283  0.1372 -0.0947
13515TIP3    H161960   6.466   4.144  16.266  0.0438  2.7201 -0.1541
13515TIP3    H261961   6.387   4.193  16.147 -1.0556 -0.8587 -0.9847
13516TIP3   OH261962   3.016   3.910   3.887 -0.6480 -0.2435 -0.3526
13516TIP3    H161963   3.041   3.827   3.847  2.6762  1.5802 -2.5025
13516TIP3    H261964   2.978   3.961   3.815 -1.6980  0.4820  0.6762
13517TIP3   OH261965   5.470   1.173  16.038 -0.0023 -0.2275 -0.4032
13517TIP3    H161966   5.414   1.238  15.996  0.7515  0.0344 -1.0315
13517TIP3    H261967   5.509   1.124  15.966  0.3407 -0.6039  0.0299
13518TIP3   OH261968   2.038   4.085  13.509 -0.2480  0.1080 -0.6229
13518TIP3    H161969   2.113   4.129  13.467  0.2248 -0.8673 -0.8352
13518TIP3    H261970   1.989   4.156  13.550  1.6527  0.6326  0.8977
13519TIP3   OH261971   3.786   1.041   2.860 -0.1494 -0.1938  0.3774
13519TIP3    H161972   3.725   1.095   2.911 -0.5101  1.3462 -1.5708
13519TIP3    H261973   3.873   1.072   2.884 -0.3532  1.2437 -0.6538
13520TIP3   OH261974   2.208   4.266  11.375 -0.1499 -0.4318  0.4845
13520TIP3    H161975   2.211   4.362  11.380 -4.1555 -0.1294  0.5008
13520TIP3    H261976   2.243   4.245  11.289 -0.5429  1.1944 -0.1097
13521TIP3   OH261977   6.144   3.803   5.892 -0.6181  1.0027  0.1888
13521TIP3    H161978   6.239   3.814   5.896 -0.3451 -1.0122  0.0062
13521TIP3    H261979   6.127   3.770   5.803 -1.4057  0.6279  0.4662
13522TIP3   OH261980   2.683   1.105   1.494 -0.6034  0.2360 -0.5136
13522TIP3    H161981   2.620   1.177   1.495 -0.3913  0.5430 -2.8812
13522TIP3    H261982   2.756   1.138   1.443  0.5011 -0.9121  0.2580
13523TIP3   OH261983   1.556   1.881  16.063 -0.3776  0.4585 -0.3776
13523TIP3    H161984   1.487   1.839  16.012 -1.3698 -0.7423  1.8102
13523TIP3    H261985   1.637   1.864  16.015 -1.2627 -0.5803 -1.5281
13524TIP3   OH261986   0.461   2.178   5.212 -0.2404  0.4493  0.0031
13524TIP3    H161987   0.454   2.206   5.121 -2.7922 -1.8714 -0.6682
13524TIP3    H261988   0.398   2.233   5.259 -1.1767 -0.3669 -0.2630
13525TIP3   OH261989   6.338   4.913   5.651 -0.4588  0.1543 -0.2415
13525TIP3    H161990   6.373   4.917   5.562  0.3361 -1.3164 -0.0279
13525TIP3    H261991   6.364   4.827   5.683 -1.7175  0.2092  1.0177
13526TIP3   OH261992   3.228   1.486   5.795  0.0373  0.2405 -0.0409
13526TIP3    H161993   3.281   1.416   5.758 -1.6566  0.2115 -2.6568
13526TIP3    H261994   3.195   1.449   5.878  0.1249 -1.6338 -0.7856
13527TIP3   OH261995   0.864   1.440   4.799 -0.5697  0.5247  0.3239
13527TIP3    H161996   0.923   1.395   4.860 -1.6767  0.4596  1.3678
13527TIP3    H261997   0.913   1.518   4.772  1.1336 -0.9245 -1.0315
13528TIP3   OH261998   4.163   4.304   4.449  0.7081  0.2221 -0.1335
13528TIP3    H161999   4.198   4.245   4.382  0.2734  0.1290 -0.2804
13528TIP3    H262000   4.126   4.246   4.515  0.0783  0.3303 -0.3864
13529TIP3   OH262001   5.979   3.006  10.947 -0.1637 -0.4787  0.3052
13529TIP3    H162002   5.940   3.093  10.939 -0.0201 -0.3987  0.4904
13529TIP3    H262003   5.945   2.958  10.871  0.2655 -0.0665 -0.1553
13530TIP3   OH262004   5.115   4.778  15.449  0.5293  0.0250 -0.1297
13530TIP3    H162005   5.163   4.854  15.417  0.1752 -0.5920 -2.2822
13530TIP3    H262006   5.023   4.803  15.442  0.4165 -0.5107 -0.6306
13531TIP3   OH262007   5.946   6.072  17.072  0.1227  0.3366  0.3485
13531TIP3    H162008   5.921   6.157  17.108  0.1454  0.1894  0.7207
13531TIP3    H262009   5.880   6.011  17.106 -0.9515  0.4948 -1.3746
13532TIP3   OH262010   3.793   1.977  16.299  0.4400 -0.4774 -0.4895
13532TIP3    H162011   3.739   1.930  16.362  1.7914 -0.9227  0.3993
13532TIP3    H262012   3.834   2.047  16.350  0.2336  0.2420 -1.2828
13533TIP3   OH262013   4.506   0.835   0.022 -0.6236 -0.4515 -0.8258
13533TIP3    H162014   4.572   0.807   0.085 -0.2838  1.7058 -0.1431
13533TIP3    H262015   4.556   0.875  -0.050 -1.1197  0.4388 -0.7007
13534TIP3   OH262016   0.031   1.380  13.669 -0.0109 -0.4424  0.3840
13534TIP3    H162017  -0.050   1.399  13.716 -1.6417 -1.3659 -1.8553
13534TIP3    H262018   0.074   1.313  13.722 -0.7820 -0.0589  1.5342
13535TIP3   OH262019   0.895   4.885  13.797  0.0447 -0.4095  0.4967
13535TIP3    H162020   0.949   4.882  13.718  2.0803  1.5197  1.7312
13535TIP3    H262021   0.840   4.807  13.790  1.7577 -1.5475 -1.6938
13536TIP3   OH262022   4.110   5.135   4.272 -0.0911  0.3408 -0.6587
13536TIP3    H162023   4.168   5.189   4.218  0.0062  0.3944 -0.5002
13536TIP3    H262024   4.046   5.101   4.210  0.5263 -0.2976 -0.9626
13537TIP3   OH262025   1.773   1.543   2.738 -0.6210  0.5097  0.3994
13537TIP3    H162026   1.801   1.602   2.668 -0.7757  0.8847  0.6460
13537TIP3    H262027   1.802   1.456   2.710  1.9972  1.0289  1.2897
13538TIP3   OH262028   4.214   1.975   0.261 -0.3430  0.6419 -0.5231
13538TIP3    H162029   4.164   1.975   0.180  0.8833  1.4625 -1.3123
13538TIP3    H262030   4.205   1.886   0.295 -0.1353  0.0285 -2.0310
13539TIP3   OH262031   3.373   3.558   0.155 -0.3846  0.1813 -0.0649
13539TIP3    H162032   3.461   3.533   0.183 -0.7965 -0.5948  0.5765
13539TIP3    H262033   3.322   3.560   0.236 -0.7483  1.5591 -0.3050
13540TIP3   OH262034   1.664   1.527   0.094  0.6535 -0.1292 -0.0726
13540TIP3    H162035   1.744   1.480   0.116 -0.3280 -1.6795  0.2862
13540TIP3    H262036   1.677   1.555   0.004  0.4869 -2.8318 -1.0035
13541TIP3   OH262037   0.417   1.747  16.212  1.1336 -0.5380  0.0578
13541TIP3    H162038   0.358   1.715  16.281 -0.6096  1.1748 -0.5355
13541TIP3    H262039   0.370   1.728  16.130  0.8901  1.6823 -0.3939
13542TIP3   OH262040   3.005   4.250  12.929 -0.5711  0.0890  0.3227
13542TIP3    H162041   2.955   4.292  12.859  0.9224  0.5496 -0.5101
13542TIP3    H262042   3.015   4.160  12.901  0.3361  0.3589 -0.2642
13543TIP3   OH262043   4.238   0.223  15.242 -0.5161 -0.0842  0.1956
13543TIP3    H162044   4.316   0.218  15.186 -0.0733  1.5485  0.6090
13543TIP3    H262045   4.213   0.132  15.257  0.2521 -0.5889 -1.4041
13544TIP3   OH262046   0.908   4.255  15.505  0.0062 -0.2265 -0.4576
13544TIP3    H162047   0.837   4.221  15.559  0.0296  1.3962  0.6744
13544TIP3    H262048   0.983   4.260  15.565  0.1520  1.1771 -0.7178
13545TIP3   OH262049   2.016   4.055  16.303  0.3238 -1.1802 -0.0764
13545TIP3    H162050   1.981   3.970  16.276 -1.2984 -0.6247  0.2218
13545TIP3    H262051   2.001   4.112  16.228  0.3250 -0.8625  0.1630
13546TIP3   OH262052   4.441   5.371   4.539 -0.2792 -0.0064 -0.3142
13546TIP3    H162053   4.454   5.332   4.453  1.3376 -1.8094  0.6704
13546TIP3    H262054   4.422   5.463   4.521 -1.7516 -0.6773 -2.6367
13547TIP3   OH262055   6.636   4.494  12.510 -0.4422 -0.1480  0.3343
13547TIP3    H162056   6.603   4.553  12.442 -0.6594 -1.6019 -0.8959
13547TIP3    H262057   6.731   4.507  12.509 -0.4923  0.2214  0.1026
13548TIP3   OH262058   1.416   3.855   2.413 -0.7679 -0.3981  0.6760
13548TIP3    H162059   1.495   3.823   2.456  1.0499  0.4140 -1.8034
13548TIP3    H262060   1.413   3.948   2.434 -0.1554 -0.1041 -0.4859
13549TIP3   OH262061   4.719   0.137  11.834 -0.1584  0.3244 -0.1584
13549TIP3    H162062   4.682   0.178  11.912  1.0293  1.7635 -0.3162
13549TIP3    H262063   4.692   0.194  11.762  0.5553  0.1925 -0.5394
13550TIP3   OH262064   0.891   0.165  14.381 -0.1343 -0.6400  0.0181
13550TIP3    H162065   0.860   0.108  14.311 -0.4368  1.2813 -1.4794
13550TIP3    H262066   0.956   0.111  14.428  0.7984 -1.6803 -2.3188
13551TIP3   OH262067   5.131   0.521   4.817 -0.4063  0.0434  0.4901
13551TIP3    H162068   5.159   0.530   4.908 -0.0991 -0.8335  0.4938
13551TIP3    H262069   5.035   0.524   4.820 -0.4195 -0.6987  0.9309
13552TIP3   OH262070   4.260   4.341  13.893  0.7659  0.0575  0.0793
13552TIP3    H162071   4.282   4.254  13.924 -0.5200 -0.2844  0.0991
13552TIP3    H262072   4.264   4.334  13.797  0.8395  0.0204  0.0849
13553TIP3   OH262073   4.167   4.951   2.374  0.1101  0.4141 -0.1672
13553TIP3    H162074   4.123   4.884   2.321  2.8281 -1.7933  0.0772
13553TIP3    H262075   4.215   5.004   2.311  1.8004 -0.9969 -0.1349
13554TIP3   OH262076   4.963   2.403   2.708 -0.0111 -0.4181 -0.0766
13554TIP3    H162077   5.046   2.376   2.746  0.1069  1.3955  1.0512
13554TIP3    H262078   4.897   2.361   2.763  0.1433 -1.2203 -0.4917
13555TIP3   OH262079   4.030   5.091  14.351  1.1777  0.5118 -0.1593
13555TIP3    H162080   4.008   5.132  14.434  0.4497 -0.2841  0.0560
13555TIP3    H262081   3.972   5.132  14.287 -0.3837 -0.9279  0.2505
13556TIP3   OH262082   2.357   5.335  13.804 -0.0757 -0.2953  0.0674
13556TIP3    H162083   2.346   5.241  13.791 -0.4650 -0.4651  1.4247
13556TIP3    H262084   2.287   5.360  13.865  0.2560  0.7919  0.0406
13557TIP3   OH262085   2.043   3.612  12.095  0.0154  0.4902  0.2267
13557TIP3    H162086   2.084   3.602  12.009  0.5954 -0.9873  0.6406
13557TIP3    H262087   2.090   3.685  12.135  1.0524 -0.0197 -0.0087
13558TIP3   OH262088   4.060   3.080   4.275 -0.4813 -0.0029 -0.6624
13558TIP3    H162089   4.009   3.152   4.311  0.7443 -0.0884  1.4242
13558TIP3    H262090   4.020   3.002   4.314  0.7807 -0.1129  0.4666
13559TIP3   OH262091   1.649   4.337   5.008  0.4270  0.0794 -0.2735
13559TIP3    H162092   1.616   4.262   4.959 -1.1207 -0.8013  1.9951
13559TIP3    H262093   1.625   4.413   4.955 -0.4796 -0.8652 -1.2632
13560TIP3   OH262094   0.563   0.736  11.523 -0.1548  0.7801 -0.2725
13560TIP3    H162095   0.558   0.813  11.467  1.2979 -0.1165 -1.7141
13560TIP3    H262096   0.593   0.769  11.608  0.2467  1.8268 -0.8150
13561TIP3   OH262097   4.196   5.784  13.414 -1.3129 -0.2916  0.3734
13561TIP3    H162098   4.212   5.690  13.418 -2.6419 -0.5731 -0.4486
13561TIP3    H262099   4.257   5.816  13.347  1.2639 -0.0201  2.6598
13562TIP3   OH262100   2.596   1.364  16.451  0.4512 -0.3114  0.3757
13562TIP3    H162101   2.571   1.429  16.386  0.1388  1.1056  1.8498
13562TIP3    H262102   2.676   1.400  16.492 -0.0762 -0.5106  1.6348
13563TIP3   OH262103   1.715   2.335  13.613 -0.2375 -0.5343  0.3923
13563TIP3    H162104   1.744   2.258  13.564 -0.9768 -1.8474  1.9292
13563TIP3    H262105   1.623   2.344  13.590  0.4529  1.7772 -2.0851
13564TIP3   OH262106   5.100   5.095   3.027 -0.0739  0.7693  0.4887
13564TIP3    H162107   5.052   5.028   3.076  0.2153  1.2185  1.3990
13564TIP3    H262108   5.160   5.044   2.971 -1.1431  0.2280 -0.2047
13565TIP3   OH262109   5.391   0.218   6.512 -0.5552 -0.4575  0.3924
13565TIP3    H162110   5.426   0.164   6.583 -1.2375  0.6195  1.5871
13565TIP3    H262111   5.412   0.308   6.537 -1.0291 -0.0312 -0.6500
13566TIP3   OH262112   6.029   1.829  13.038  0.1143 -0.5000 -0.3091
13566TIP3    H162113   6.039   1.889  13.112  0.0429 -1.7503  0.7348
13566TIP3    H262114   5.943   1.850  13.001  0.4083  0.5378 -0.4334
13567TIP3   OH262115   3.639   4.842   0.312 -0.3583  0.5039  0.2656
13567TIP3    H162116   3.586   4.917   0.285 -0.4198  0.2062 -0.4546
13567TIP3    H262117   3.579   4.785   0.360 -0.3324  0.8733  0.7405
13568TIP3   OH262118   2.396   3.521  16.207  0.9847 -0.0318 -0.0117
13568TIP3    H162119   2.369   3.435  16.174  0.4413  0.3932 -0.6897
13568TIP3    H262120   2.468   3.501  16.266  0.3041 -1.0404  0.5215
13569TIP3   OH262121   2.067   4.046  13.826 -0.5251  0.4246  0.7983
13569TIP3    H162122   2.041   4.056  13.917 -0.7060  2.8103  0.5390
13569TIP3    H262123   1.998   4.090  13.776 -0.0325 -0.1547 -0.4374
13570TIP3   OH262124   5.284   5.350  14.152  0.5460 -0.0912 -0.2245
13570TIP3    H162125   5.192   5.340  14.175  0.8823 -1.3737  0.6344
13570TIP3    H262126   5.307   5.437  14.184 -0.5048  0.4825 -0.9699
13571TIP3   OH262127   2.383   1.608  13.884  0.1928  0.0160  0.2728
13571TIP3    H162128   2.399   1.681  13.943 -1.9427  0.2448  0.6722
13571TIP3    H262129   2.441   1.538  13.916  0.8342  0.9094  1.1110
13572TIP3   OH262130   5.416   3.794  11.152 -0.4023 -0.5315  0.3902
13572TIP3    H162131   5.359   3.841  11.092 -0.8705  0.2803  1.4321
13572TIP3    H262132   5.505   3.819  11.126 -0.6444  0.9339  0.8972
13573TIP3   OH262133   4.558   4.013  12.963 -0.0400  0.1852 -0.3651
13573TIP3    H162134   4.502   3.993  13.037 -2.3164 -2.0580 -2.4935
13573TIP3    H262135   4.643   3.977  12.987 -0.6594 -0.3295  1.2022
13574TIP3   OH262136   2.347   4.578  13.141 -0.1758  1.0150 -0.8245
13574TIP3    H162137   2.439   4.601  13.158  0.2396  0.5188 -2.2587
13574TIP3    H262138   2.297   4.652  13.174  0.7768  1.5156 -0.4614
13575TIP3   OH262139   3.748   0.136   0.160  0.5057  0.3599 -0.0205
13575TIP3    H162140   3.840   0.159   0.167  0.4522  0.3913  0.5595
13575TIP3    H262141   3.744   0.078   0.083  1.1416 -0.3388  0.4588
13576TIP3   OH262142   0.845   6.027   0.126  0.1657 -0.3559  0.6757
13576TIP3    H162143   0.762   6.016   0.171 -0.3203 -0.2614 -0.1890
13576TIP3    H262144   0.896   5.950   0.150 -0.2602 -0.5366  1.0055
13577TIP3   OH262145   6.130   1.617   5.407 -0.2361 -0.3427 -0.7322
13577TIP3    H162146   6.188   1.550   5.444  3.0371  1.9113 -1.3442
13577TIP3    H262147   6.109   1.675   5.480 -1.6572 -1.0158 -0.5640
13578TIP3   OH262148   6.109   3.180   1.421 -0.3640 -0.2062 -0.3810
13578TIP3    H162149   6.026   3.163   1.466 -0.4453  1.5479  0.2087
13578TIP3    H262150   6.101   3.135   1.338 -1.4888 -0.9271  0.0916
13579TIP3   OH262151   5.044   3.845   1.316  0.6456 -0.4677 -0.6965
13579TIP3    H162152   4.981   3.913   1.293  0.2398 -1.3207 -2.2422
13579TIP3    H262153   4.998   3.790   1.378  0.0806 -0.7309 -1.3430
13580TIP3   OH262154   6.492   1.435  15.461 -0.2523  0.0062 -0.1539
13580TIP3    H162155   6.570   1.399  15.419 -0.1912 -0.4875  0.3648
13580TIP3    H262156   6.468   1.369  15.526 -1.0928  0.1599 -0.3003
13581TIP3   OH262157   6.309   1.636   2.610  0.0950  0.2639 -0.3183
13581TIP3    H162158   6.292   1.623   2.517 -1.4604 -0.3348  0.0113
13581TIP3    H262159   6.353   1.721   2.615  0.9551 -0.0770 -1.6559
13582TIP3   OH262160   1.606   4.936  11.232 -0.4324  0.0452 -0.1752
13582TIP3    H162161   1.588   4.911  11.322 -0.8548 -0.9695 -0.5308
13582TIP3    H262162   1.566   5.023  11.223 -0.3260  0.1874  0.6267
13583TIP3   OH262163   3.675   1.587  12.987 -0.1201 -0.5483 -0.6223
13583TIP3    H162164   3.763   1.566  13.018  0.1833 -0.6447 -1.5090
13583TIP3    H262165   3.688   1.622  12.899 -0.9910 -0.8206 -0.8728
13584TIP3   OH262166   3.697   1.288   3.483  0.5640 -0.0434 -0.1814
13584TIP3    H162167   3.766   1.222   3.484  1.1945  0.5973 -0.4959
13584TIP3    H262168   3.729   1.357   3.541  0.6990  0.7494 -1.1725
13585TIP3   OH262169   3.281   3.322   1.726 -0.4317 -0.2801 -0.0207
13585TIP3    H162170   3.333   3.244   1.745 -0.8962  0.0123  2.9612
13585TIP3    H262171   3.344   3.395   1.734 -0.4532 -0.2022 -0.5668
13586TIP3   OH262172   0.580   3.092  11.885  0.3280 -0.2628 -0.3158
13586TIP3    H162173   0.590   3.056  11.797  2.9134  1.4170 -0.8294
13586TIP3    H262174   0.515   3.161  11.876 -0.1117 -0.7087 -0.6616
13587TIP3   OH262175   5.470   1.107  11.558  0.1167 -0.4738 -0.5240
13587TIP3    H162176   5.491   1.017  11.582 -1.1005 -0.6503 -0.0326
13587TIP3    H262177   5.526   1.160  11.615 -0.2852 -0.9266  0.3232
13588TIP3   OH262178   3.316   5.125   2.797 -0.5651  0.0452  0.2420
13588TIP3    H162179   3.278   5.039   2.817  0.9218 -0.2331  2.1877
13588TIP3    H262180   3.256   5.188   2.837 -0.1817 -0.2710  1.3564
13589TIP3   OH262181   2.458   6.599  13.946  0.2595  0.2787 -0.4803
13589TIP3    H162182   2.431   6.668  13.886  0.0095  0.5888 -0.0177
13589TIP3    H262183   2.467   6.521  13.891 -0.8502  0.3393 -0.7736
13590TIP3   OH262184   4.654   4.055  16.215 -0.0161 -0.3965 -0.1131
13590TIP3    H162185   4.615   4.123  16.271  0.2937  0.5041 -0.9734
13590TIP3    H262186   4.625   4.077  16.127 -0.2198 -1.6124 -0.3656
13591TIP3   OH262187   6.246   4.474   0.116  0.4263  0.1598  0.5040
13591TIP3    H162188   6.273   4.564   0.099  1.0989  0.2722  2.0577
13591TIP3    H262189   6.258   4.429   0.032 -0.1399  1.5417 -0.3555
13592TIP3   OH262190   4.087   2.034   4.589 -0.7721 -0.1694 -0.4778
13592TIP3    H162191   4.071   1.940   4.598 -0.4756 -0.2047 -0.3029
13592TIP3    H262192   4.000   2.074   4.595 -0.9408 -0.4618 -0.9732
13593TIP3   OH262193   4.393   2.576  15.683  0.3587 -0.2789  0.0152
13593TIP3    H162194   4.302   2.558  15.659  0.4036 -1.7334  0.8285
13593TIP3    H262195   4.444   2.551  15.606  0.0372  1.4043 -0.7864
13594TIP3   OH262196   5.773   2.414  16.615  0.7370 -0.2096 -0.8299
13594TIP3    H162197   5.691   2.368  16.636 -0.1389  1.2059 -1.0159
13594TIP3    H262198   5.795   2.383  16.527 -0.9914  1.2062 -1.8393
13595TIP3   OH262199   0.276   6.105  14.424 -0.4352  0.0923  0.4681
13595TIP3    H162200   0.366   6.126  14.403 -0.4383 -0.3499 -0.0085
13595TIP3    H262201   0.247   6.049  14.352 -1.5934  1.5264 -0.2341
13596TIP3   OH262202   5.099   5.821  11.857 -0.2307 -0.4105 -0.2186
13596TIP3    H162203   5.148   5.896  11.825  1.0430 -1.2235 -0.2283
13596TIP3    H262204   5.043   5.796  11.782 -0.8102  0.6155 -0.1470
13597TIP3   OH262205   3.471   5.279   2.031  0.0336 -0.0821  0.1218
13597TIP3    H162206   3.398   5.231   2.071 -0.0695  1.7961  2.4885
13597TIP3    H262207   3.549   5.231   2.057 -0.1356  0.3215  1.4728
13598TIP3   OH262208   3.917   3.840   4.473  0.2001 -0.2189 -0.1200
13598TIP3    H162209   3.939   3.867   4.384  1.7152  0.6794  0.4887
13598TIP3    H262210   4.001   3.827   4.515 -0.4837  0.1707  1.4258
13599TIP3   OH262211   6.452   0.548   1.326 -0.3654 -0.2366 -0.0664
13599TIP3    H162212   6.501   0.488   1.269  0.4194  0.5976 -0.3006
13599TIP3    H262213   6.362   0.541   1.296  0.0092  0.0874 -1.3453
13600TIP3   OH262214   0.587   3.674  11.815 -0.2936  0.2269 -0.9223
13600TIP3    H162215   0.613   3.700  11.903  1.7484  0.9712 -1.6738
13600TIP3    H262216   0.584   3.578  11.819 -1.4422  0.2903  0.2373
13601TIP3   OH262217   5.320   0.998  12.517 -0.0231  0.5692 -0.3510
13601TIP3    H162218   5.277   1.069  12.563 -2.1751  0.5127 -2.0961
13601TIP3    H262219   5.311   0.922  12.574 -0.5029  1.0098  0.1545
13602TIP3   OH262220   3.246   1.922   0.757  0.1164 -0.0988  0.0791
13602TIP3    H162221   3.167   1.900   0.805  0.5765  1.5040  1.6716
13602TIP3    H262222   3.315   1.869   0.797  0.0642 -0.6564 -0.5508
13603TIP3   OH262223   4.807   2.326  11.846 -0.3894  0.3437  0.1930
13603TIP3    H162224   4.811   2.232  11.864  0.1885  0.2338 -0.4369
13603TIP3    H262225   4.738   2.359  11.903  0.7795 -0.1180  1.9680
13604TIP3   OH262226   2.512   4.479  11.090 -0.2998  0.0321  0.0521
13604TIP3    H162227   2.477   4.449  11.006 -0.0846 -0.8327  0.2513
13604TIP3    H262228   2.547   4.399  11.130 -0.4138  0.4299  0.9670
13605TIP3   OH262229   1.519   1.724   4.197 -0.8278  0.2374  0.2941
13605TIP3    H162230   1.541   1.813   4.171  0.2868 -0.2124 -0.3515
13605TIP3    H262231   1.427   1.714   4.170 -0.3104  0.4608 -1.7013
13606TIP3   OH262232   0.226   0.579   3.023 -0.5611  0.4493 -0.5263
13606TIP3    H162233   0.176   0.531   2.958 -0.2296 -2.8376  1.4342
13606TIP3    H262234   0.164   0.596   3.094  0.1101  0.0416  0.1693
13607TIP3   OH262235   6.805   2.940   0.992  0.6001 -0.4415 -0.1833
13607TIP3    H162236   6.775   3.018   0.947 -0.7496 -0.7926  0.0580
13607TIP3    H262237   6.844   2.886   0.923  1.0031  0.1801 -0.4490
13608TIP3   OH262238   5.374   1.642   5.802 -0.0164 -0.4145 -0.5883
13608TIP3    H162239   5.344   1.626   5.891 -1.7701  0.6040 -0.9380
13608TIP3    H262240   5.372   1.555   5.760 -0.4097 -0.7055  0.0249
13609TIP3   OH262241   2.163   6.060  16.719  0.2267  0.3798  0.6598
13609TIP3    H162242   2.237   6.011  16.757  0.9440  1.0626  0.1669
13609TIP3    H262243   2.110   5.993  16.675 -0.1556 -0.3058  2.0898
13610TIP3   OH262244   1.985   3.826   0.177 -0.1054 -0.3158  0.2196
13610TIP3    H162245   1.968   3.869   0.093  0.2044 -0.5327  0.0392
13610TIP3    H262246   1.909   3.768   0.190 -1.8627  2.1385  1.7506
13611TIP3   OH262247   4.641   2.068   3.551 -0.0407  0.3530  0.1246
13611TIP3    H162248   4.584   2.126   3.601 -1.5128 -1.1188  0.2336
13611TIP3    H262249   4.672   2.003   3.615 -0.1624 -0.2519 -0.4206
13612TIP3   OH262250   2.392   4.302  14.741  0.3320  0.5404  0.0423
13612TIP3    H162251   2.455   4.348  14.796 -1.6300  0.8191  2.2479
13612TIP3    H262252   2.411   4.209  14.756  0.5931  0.6262  0.2512
13613TIP3   OH262253   1.677   6.741   1.621  0.2256  0.2041  0.2102
13613TIP3    H162254   1.641   6.774   1.703 -0.1579 -0.0191  0.1345
13613TIP3    H262255   1.614   6.676   1.591  1.5922 -1.5846  1.0166
13614TIP3   OH262256   4.701   5.881   3.041  0.4261 -0.5628  0.1195
13614TIP3    H162257   4.682   5.892   2.948 -0.9577  1.3619  0.5698
13614TIP3    H262258   4.624   5.837   3.076 -0.8669  2.1846  0.9668
13615TIP3   OH262259   5.329   2.954  13.636 -0.1870  0.1416 -0.1705
13615TIP3    H162260   5.278   3.019  13.683  2.2332  0.6251  2.0526
13615TIP3    H262261   5.410   2.946  13.687  0.3711 -3.3237 -1.3437
13616TIP3   OH262262   4.776   5.529  11.734 -0.3688 -0.2932  0.6539
13616TIP3    H162263   4.712   5.464  11.763  1.3255 -2.1745  0.4259
13616TIP3    H262264   4.795   5.506  11.643  1.4463 -0.5260  1.0589
13617TIP3   OH262265   6.694   0.346   4.072  0.7371 -0.0694 -0.1616
13617TIP3    H162266   6.603   0.320   4.087  0.7112  0.7806  1.3366
13617TIP3    H262267   6.692   0.394   3.990 -0.1535 -0.1256 -0.1818
13618TIP3   OH262268   2.093   5.718  13.095 -0.0592 -0.0344 -0.0471
13618TIP3    H162269   2.014   5.753  13.137  1.0889  2.1799  0.4170
13618TIP3    H262270   2.101   5.768  13.013  1.2864  0.4032  0.3216
13619TIP3   OH262271   4.666   1.628  12.326 -0.8815 -0.4709  0.5834
13619TIP3    H162272   4.704   1.544  12.299  1.4874  0.7459 -0.0859
13619TIP3    H262273   4.624   1.661  12.247  0.8151  0.3240 -0.0147
13620TIP3   OH262274   2.253   5.725  12.232 -0.3446 -0.1392  0.4115
13620TIP3    H162275   2.292   5.754  12.150  1.3275 -2.2720  0.3703
13620TIP3    H262276   2.280   5.790  12.296  0.6965  0.0741 -0.2268
13621TIP3   OH262277   5.313   1.204  10.859  0.0474 -0.7263 -0.0789
13621TIP3    H162278   5.251   1.275  10.842  0.5850 -0.2923 -0.2769
13621TIP3    H262279   5.366   1.236  10.932  1.6442  0.0035 -1.4584
13622TIP3   OH262280   3.044   0.132  14.975  0.5445 -0.0236  0.1076
13622TIP3    H162281   2.994   0.170  15.046  0.5042 -0.5022  0.3360
13622TIP3    H262282   3.001   0.049  14.956  1.0537 -0.2889  0.0889
13623TIP3   OH262283   0.357   4.553   0.676  0.0058  0.3395  0.4426
13623TIP3    H162284   0.386   4.567   0.767  0.7727 -0.9944  0.4289
13623TIP3    H262285   0.272   4.596   0.672  1.6250  3.9453  0.6447
13624TIP3   OH262286   4.485   2.931  16.940 -0.8098  0.3472 -0.6244
13624TIP3    H162287   4.530   2.896  16.863 -0.9694  0.0331 -0.5797
13624TIP3    H262288   4.504   2.867  17.009  1.8673  2.0968  0.4268
13625TIP3   OH262289   1.481   2.726   4.440 -0.1872  0.0543 -0.4793
13625TIP3    H162290   1.437   2.650   4.479 -1.0996  0.4075 -0.7975
13625TIP3    H262291   1.488   2.789   4.511 -0.5920  0.1650 -0.5379
13626TIP3   OH262292   2.423   2.621  15.497  0.0224  0.4043 -0.3561
13626TIP3    H162293   2.346   2.629  15.441 -0.4788  1.1982  0.4133
13626TIP3    H262294   2.482   2.562  15.450 -0.1901  1.3832 -1.9225
13627TIP3   OH262295   0.598   4.532   2.917  0.2449  0.3134 -0.7715
13627TIP3    H162296   0.688   4.507   2.936 -0.0102 -1.4255 -1.6871
13627TIP3    H262297   0.569   4.581   2.995  1.1691 -1.2896  0.6265
13628TIP3   OH262298   1.823   1.585  16.957  0.1116  0.5514  0.9298
13628TIP3    H162299   1.889   1.528  16.995  0.2032  1.0930  1.5907
13628TIP3    H262300   1.836   1.576  16.862  0.1048 -0.5328  1.0191
13629TIP3   OH262301   6.008   2.024   0.670  0.6934 -0.3224  0.1035
13629TIP3    H162302   6.076   2.091   0.681  0.6397 -0.2623  0.0719
13629TIP3    H262303   5.926   2.073   0.675  0.6471 -0.4326  0.4048
13630TIP3   OH262304   2.294   5.222   2.072 -0.0067  0.1948  0.1247
13630TIP3    H162305   2.251   5.240   1.989  1.1377  0.7816 -0.3714
13630TIP3    H262306   2.229   5.244   2.139 -0.7094  0.3646 -0.6058
13631TIP3   OH262307   3.902   3.298  10.406 -0.7304 -0.5956  0.7034
13631TIP3    H162308   3.930   3.265  10.491  4.0382  1.4119  0.1753
13631TIP3    H262309   3.883   3.391  10.421  1.9085  0.2447 -0.5493
13632TIP3   OH262310   5.179   0.432   6.027 -0.2591  0.3547 -0.2965
13632TIP3    H162311   5.130   0.432   6.110  2.0672 -2.4327  1.2750
13632TIP3    H262312   5.167   0.343   5.992  1.3477  0.4872 -1.2767
13633TIP3   OH262313   5.090   5.368   4.248  0.7782 -0.1129  0.5052
13633TIP3    H162314   5.170   5.416   4.268  1.1758  0.2442 -1.7207
13633TIP3    H262315   5.091   5.358   4.153 -1.1462 -1.3109  0.5612
13634TIP3   OH262316   1.174   6.346   5.060 -0.4712  0.1864  0.2670
13634TIP3    H162317   1.095   6.348   5.114 -0.6937 -0.2055 -0.0371
13634TIP3    H262318   1.152   6.286   4.989 -0.2911  0.9126 -0.4170
13635TIP3   OH262319   2.625   1.567   5.556 -0.1225 -0.3220  0.1624
13635TIP3    H162320   2.700   1.618   5.525  1.2700 -1.4245  1.5511
13635TIP3    H262321   2.602   1.511   5.482  0.8684 -0.4380 -0.0757
13636TIP3   OH262322   0.027   2.107  16.717 -0.1780  0.2349  0.3386
13636TIP3    H162323  -0.067   2.091  16.727 -0.1336  0.0930  0.5243
13636TIP3    H262324   0.068   2.027  16.749 -0.0504 -0.4351 -1.3843
13637TIP3   OH262325   1.862   4.036   3.243 -0.3731  0.0647 -0.8221
13637TIP3    H162326   1.825   4.073   3.163 -1.4909  0.2368 -0.2570
13637TIP3    H262327   1.844   4.102   3.310  2.7586  1.0671 -0.8328
13638TIP3   OH262328   5.096   3.052   0.224 -0.9134 -0.3100  0.2340
13638TIP3    H162329   5.110   3.131   0.276  0.1348 -0.4110  0.1284
13638TIP3    H262330   5.029   3.076   0.161 -0.1334  0.7087 -0.2271
13639TIP3   OH262331   6.726   6.694   6.070 -0.6774  0.1123 -0.5766
13639TIP3    H162332   6.736   6.703   6.165  1.7415  2.2116 -0.9337
13639TIP3    H262333   6.641   6.733   6.052 -0.6840  0.6937  0.6096
13640TIP3   OH262334   4.034   3.556   5.732 -0.0579  0.3603 -0.2993
13640TIP3    H162335   4.070   3.623   5.790 -0.8528 -0.0975  0.7459
13640TIP3    H262336   3.951   3.531   5.772 -0.9911  0.5481 -2.0197
13641TIP3   OH262337   5.824   0.936  13.130  0.3861 -0.7016 -0.1693
13641TIP3    H162338   5.841   1.029  13.146 -0.5475 -0.7905  1.5576
13641TIP3    H262339   5.755   0.913  13.192  0.2823 -2.4544 -0.8735
13642TIP3   OH262340   1.237   2.361  13.133 -0.4019  0.5522  0.2704
13642TIP3    H162341   1.321   2.358  13.086 -0.6621 -0.5940 -0.1550
13642TIP3    H262342   1.239   2.444  13.181  0.6948  0.8435 -0.2516
13643TIP3   OH262343   5.617   6.594  15.745  0.2260 -0.1416  0.4358
13643TIP3    H162344   5.642   6.633  15.829  0.4378 -1.5675  1.0692
13643TIP3    H262345   5.664   6.645  15.680  1.2384  0.0692  1.2989
13644TIP3   OH262346   1.826   3.161  15.506 -0.3364  0.1360  0.0015
13644TIP3    H162347   1.858   3.079  15.468  0.2607  0.0133  0.7550
13644TIP3    H262348   1.875   3.171  15.588  1.3201  2.3944 -1.1495
13645TIP3   OH262349   4.729   1.595   5.439  0.3366  0.3272 -0.1517
13645TIP3    H162350   4.706   1.605   5.532 -0.2729 -0.5044 -0.1992
13645TIP3    H262351   4.697   1.508   5.416  1.1401  0.2296 -0.9586
13646TIP3   OH262352   2.187   3.763   1.043  0.0370  0.0852  0.3260
13646TIP3    H162353   2.278   3.754   1.072  1.2361  2.1210 -2.3985
13646TIP3    H262354   2.165   3.676   1.010  0.9664 -0.4671  1.1014
13647TIP3   OH262355   6.799   2.103   6.295  0.4265  0.5387  0.9200
13647TIP3    H162356   6.703   2.100   6.294  0.4144  0.8251  1.0504
13647TIP3    H262357   6.820   2.155   6.372  0.6836  0.6317  0.7868
13648TIP3   OH262358   5.272   5.383   1.761  0.6510  0.4789 -0.3850
13648TIP3    H162359   5.350   5.437   1.742  1.4888 -0.5471  0.0332
13648TIP3    H262360   5.278   5.311   1.698  1.0000 -0.5338  0.7828
13649TIP3   OH262361   4.196   0.655  11.645  0.3658 -0.1180  0.0912
13649TIP3    H162362   4.109   0.695  11.646 -0.2994 -1.4965  0.4339
13649TIP3    H262363   4.219   0.650  11.552  0.1229  0.3454  0.0031
13650TIP3   OH262364   0.073   6.056  12.913 -0.3206 -0.7044 -0.5042
13650TIP3    H162365   0.120   6.043  12.831  0.6707 -0.9733  0.0977
13650TIP3    H262366   0.076   5.970  12.956  0.6576 -0.1504  0.5804
13651TIP3   OH262367   6.598   3.810   4.259  0.2625  0.6601  0.7231
13651TIP3    H162368   6.669   3.805   4.323 -0.2114  1.3656  1.3155
13651TIP3    H262369   6.588   3.720   4.228  0.1736  0.2159  2.0072
13652TIP3   OH262370   3.081   2.165   4.636 -0.2842  0.1763  0.3051
13652TIP3    H162371   3.069   2.168   4.731 -1.2965 -0.6695  0.2133
13652TIP3    H262372   3.166   2.206   4.622  0.4377 -0.7734  1.6819
13653TIP3   OH262373   2.142   4.587  13.390  0.2604 -0.9719 -0.2112
13653TIP3    H162374   2.163   4.628  13.307 -1.0037  2.7961  1.1070
13653TIP3    H262375   2.051   4.614  13.408 -0.8602 -4.7614  0.7797
13654TIP3   OH262376   6.274   5.234   1.608  0.2552  0.2919 -0.0807
13654TIP3    H162377   6.244   5.252   1.519  0.8509 -0.4929 -0.4548
13654TIP3    H262378   6.323   5.152   1.601 -1.0096 -0.6184  1.2515
13655TIP3   OH262379   5.801   3.046   3.226  0.0118  0.4688  0.1837
13655TIP3    H162380   5.892   3.038   3.197 -0.2804 -0.1075 -0.6069
13655TIP3    H262381   5.770   2.955   3.235 -0.9515  0.6479 -1.0887
13656TIP3   OH262382   5.276   0.462   0.831 -0.1019 -0.0475 -0.4390
13656TIP3    H162383   5.193   0.457   0.878 -0.8065 -0.1042 -1.6510
13656TIP3    H262384   5.272   0.546   0.785  0.4609 -0.0997 -0.5874
13657TIP3   OH262385   6.315   3.128   3.042 -0.0548 -0.0745  0.0385
13657TIP3    H162386   6.366   3.205   3.068 -2.4240  2.1110 -1.3216
13657TIP3    H262387   6.329   3.120   2.948 -0.2206 -0.9995  0.0891
13658TIP3   OH262388   6.267   4.137   1.927 -0.4190  0.2239 -0.6182
13658TIP3    H162389   6.173   4.152   1.922 -0.3999  0.3563 -0.5750
13658TIP3    H262390   6.306   4.218   1.892 -0.3493 -0.7937 -3.1392
13659TIP3   OH262391   1.592   2.323   1.847  0.2827 -0.3953 -0.0532
13659TIP3    H162392   1.669   2.375   1.825  0.7022  0.1599  2.3879
13659TIP3    H262393   1.533   2.385   1.891 -0.0561 -1.5121  1.1486
13660TIP3   OH262394   2.601   5.689   0.489 -0.3207 -0.1594  0.0611
13660TIP3    H162395   2.530   5.689   0.554  0.5464 -1.5346  1.0693
13660TIP3    H262396   2.569   5.631   0.419 -0.4554 -0.2496  0.1960
13661TIP3   OH262397   1.366   1.483  12.020  0.2223  0.1625 -0.0959
13661TIP3    H162398   1.317   1.542  12.077  0.2061 -0.9246  1.0499
13661TIP3    H262399   1.457   1.497  12.044  0.2933  0.4013 -0.4982
13662TIP3   OH262400   6.444   6.627  16.888  0.4422  0.1910 -0.4728
13662TIP3    H162401   6.453   6.685  16.963 -0.0383 -1.8355  1.2589
13662TIP3    H262402   6.349   6.617  16.876  0.5142  0.3879 -1.2933
13663TIP3   OH262403   2.794   5.317   2.510 -0.5313 -0.5213  0.5424
13663TIP3    H162404   2.888   5.322   2.529 -0.2389  0.0165 -0.8650
13663TIP3    H262405   2.785   5.239   2.455 -0.6690  0.1353 -0.4018
13664TIP3   OH262406   4.074   3.755   0.042 -0.2657  0.9151  0.3007
13664TIP3    H162407   4.113   3.738   0.128 -0.6954 -0.2901  0.2788
13664TIP3    H262408   4.118   3.834   0.011 -1.1796  2.2734  2.2862
13665TIP3   OH262409   2.696   2.992   5.096 -0.4914  0.6583  0.7026
13665TIP3    H162410   2.762   2.937   5.138 -0.6300  1.5153  2.1160
13665TIP3    H262411   2.614   2.944   5.107 -0.4289  0.5824  0.8317
13666TIP3   OH262412   6.052   3.439  11.534 -0.0085  0.3561  0.6410
13666TIP3    H162413   6.006   3.520  11.511  0.3823  0.6524  0.8819
13666TIP3    H262414   6.006   3.406  11.611  0.4844  0.9230  1.1952
13667TIP3   OH262415   5.559   4.008   3.088 -0.5131 -0.2672 -0.0185
13667TIP3    H162416   5.470   4.019   3.122 -0.3597 -0.2377  0.3784
13667TIP3    H262417   5.566   4.071   3.017 -0.9081 -0.4779 -0.2439
13668TIP3   OH262418   5.598   3.159   5.351  0.6275  0.0385  0.3925
13668TIP3    H162419   5.518   3.172   5.300  0.7314 -3.1479 -0.7857
13668TIP3    H262420   5.582   3.079   5.400  2.5562  0.1604  1.3194
13669TIP3   OH262421   2.760   3.189  10.737  0.0259 -0.4288 -0.0367
13669TIP3    H162422   2.671   3.162  10.713 -0.3888  0.8376  0.0073
13669TIP3    H262423   2.799   3.220  10.656 -0.0962  0.4105  0.2200
13670TIP3   OH262424   6.111   2.852   1.028 -0.4356 -0.1271  0.2418
13670TIP3    H162425   6.187   2.799   1.005 -0.2006 -0.0077  0.7415
13670TIP3    H262426   6.072   2.876   0.944  0.9425  1.0947 -0.0665
13671TIP3   OH262427   3.610   1.765  10.350 -0.0935  0.0012 -0.5224
13671TIP3    H162428   3.674   1.740  10.416  0.6228 -2.0339 -1.9115
13671TIP3    H262429   3.531   1.715  10.373 -0.1839  0.1082 -0.5973
13672TIP3   OH262430   0.115   1.070   0.255 -0.5179  0.4102 -0.1751
13672TIP3    H162431   0.083   1.143   0.202  1.4151 -0.1883 -2.3568
13672TIP3    H262432   0.169   1.111   0.322  1.4108  1.0629 -2.0049
13673TIP3   OH262433   6.617   1.460  14.374  0.2452  0.4798 -0.3530
13673TIP3    H162434   6.648   1.547  14.397  0.0961  0.2859  0.6177
13673TIP3    H262435   6.639   1.406  14.450 -0.7909 -0.0546 -0.4164
13674TIP3   OH262436   3.206   5.248  15.635  0.5251  0.5789 -0.0618
13674TIP3    H162437   3.127   5.216  15.679 -0.7876  3.4398 -0.1341
13674TIP3    H262438   3.277   5.225  15.695 -0.6496  0.0799  1.1979
13675TIP3   OH262439   3.929   5.516   6.215  0.0249  0.4581  0.1168
13675TIP3    H162440   3.978   5.597   6.200 -0.3286  0.6645  0.0701
13675TIP3    H262441   3.995   5.453   6.242  0.2422  0.8770  0.5697
13676TIP3   OH262442   2.031   1.914   3.842 -0.4200 -0.0137  0.4014
13676TIP3    H162443   2.099   1.893   3.779 -0.7689  0.1016 -0.0224
13676TIP3    H262444   2.050   1.859   3.918 -0.2862 -0.5200  0.0032
13677TIP3   OH262445   1.057   3.386   2.340  0.0252  0.0319 -0.0985
13677TIP3    H162446   1.136   3.336   2.316 -0.9161 -1.9746  0.7089
13677TIP3    H262447   1.029   3.427   2.258  0.7363 -0.9552 -0.8644
13678TIP3   OH262448   1.927   1.499  12.147 -0.3146  0.2623 -0.5541
13678TIP3    H162449   1.988   1.438  12.188 -0.5374  0.3557 -0.0667
13678TIP3    H262450   1.953   1.585  12.180 -1.3265  0.2058  0.4838
13679TIP3   OH262451   2.572   6.560  11.699 -0.0015  0.0406 -0.1868
13679TIP3    H162452   2.610   6.496  11.758 -0.0549  0.2246  0.0512
13679TIP3    H262453   2.627   6.557  11.621 -0.6109 -1.0283 -0.5980
13680TIP3   OH262454   2.523   2.888   5.390  0.1169  0.0178  0.3648
13680TIP3    H162455   2.459   2.937   5.339  0.3353 -0.5077 -0.4195
13680TIP3    H262456   2.542   2.811   5.337 -0.6233 -1.2084  1.8038
13681TIP3   OH262457   2.662   2.718  14.796 -0.4067  0.1348  0.5135
13681TIP3    H162458   2.672   2.782  14.725 -0.7678 -1.1397 -0.7330
13681TIP3    H262459   2.751   2.707  14.831 -0.0435  0.0526 -0.4030
13682TIP3   OH262460   0.170   6.378  11.240 -0.5125 -0.1266  0.1009
13682TIP3    H162461   0.175   6.474  11.238  1.3518 -0.1675  0.9489
13682TIP3    H262462   0.234   6.349  11.175  1.5138 -0.7525  2.2336
13683TIP3   OH262463   2.986   1.918  16.908  0.0711  0.0684  0.2582
13683TIP3    H162464   3.015   1.849  16.848  0.8041  1.4121 -0.9750
13683TIP3    H262465   2.908   1.955  16.866  1.7666  2.4204 -1.0461
13684TIP3   OH262466   0.850   5.676  12.384  0.4252  0.0451  0.2997
13684TIP3    H162467   0.930   5.629  12.361  1.0693  1.1173  0.2311
13684TIP3    H262468   0.855   5.757  12.332 -0.4583  0.3411  0.6607
13685TIP3   OH262469   5.798   3.971   1.561 -0.1177  0.1055  0.1191
13685TIP3    H162470   5.764   3.927   1.484 -1.4338  1.2270  0.0164
13685TIP3    H262471   5.788   3.908   1.632  2.4763 -1.5061 -0.8015
13686TIP3   OH262472   6.350   6.652  15.723  0.2192 -0.1671 -0.0873
13686TIP3    H162473   6.415   6.698  15.777 -1.2004  0.2558  1.3612
13686TIP3    H262474   6.396   6.632  15.642  1.6896  1.4972  0.2585
13687TIP3   OH262475   3.014   4.571   2.380  0.0412  0.0066  0.3003
13687TIP3    H162476   2.964   4.512   2.324  0.9144 -0.6538  0.1986
13687TIP3    H262477   3.098   4.527   2.393  0.2841  0.6950  1.1734
13688TIP3   OH262478   5.706   3.952   3.668  0.4516 -0.1783  0.1911
13688TIP3    H162479   5.685   3.970   3.576 -0.2905  0.5937  0.4967
13688TIP3    H262480   5.630   3.904   3.701  0.9994 -1.0304  0.2457
13689TIP3   OH262481   6.401   0.911  14.572  0.1151 -0.3073 -0.0568
13689TIP3    H162482   6.326   0.902  14.631  1.6112  2.7017  2.6195
13689TIP3    H262483   6.462   0.842  14.600  0.1801  0.1348  0.9520
13690TIP3   OH262484   0.735   1.850   6.230  0.3181 -0.6707  0.1814
13690TIP3    H162485   0.712   1.761   6.205 -0.7592 -0.4231  0.2656
13690TIP3    H262486   0.663   1.904   6.198  0.6325  0.0923  0.7278
13691TIP3   OH262487   4.648   6.799   3.837  0.2192  0.0963  0.5234
13691TIP3    H162488   4.595   6.831   3.911 -0.1827 -1.0063  0.7310
13691TIP3    H262489   4.633   6.705   3.836  1.6030 -0.1416  0.1129
13692TIP3   OH262490   0.600   0.197  13.651 -0.3326 -0.3671  0.0167
13692TIP3    H162491   0.540   0.251  13.702 -1.0500 -2.9965  2.1480
13692TIP3    H262492   0.548   0.170  13.575 -1.4850 -1.5032  1.1512
13693TIP3   OH262493   4.835   5.905   1.087 -0.2350  0.2528  0.1217
13693TIP3    H162494   4.909   5.965   1.080 -0.0238 -0.0685 -0.5877
13693TIP3    H262495   4.805   5.913   1.177  1.6999 -0.8211  0.9238
13694TIP3   OH262496   2.056   4.208   3.592 -0.1561 -0.1421  0.0895
13694TIP3    H162497   2.064   4.128   3.643  0.2783 -0.8206 -1.0054
13694TIP3    H262498   2.029   4.274   3.656  1.9408 -0.5757  1.5397
13695TIP3   OH262499   0.338   6.594   3.746 -0.3119 -0.0334  0.5895
13695TIP3    H162500   0.262   6.609   3.802 -0.3022 -2.4027  1.3639
13695TIP3    H262501   0.308   6.532   3.680  0.2781  1.0604 -0.7761
13696TIP3   OH262502   2.318   1.899   1.693  0.7670  0.0026 -0.2371
13696TIP3    H162503   2.329   1.848   1.773  0.8174  0.1996 -0.1163
13696TIP3    H262504   2.295   1.987   1.724 -1.2931 -0.4201 -0.4758
13697TIP3   OH262505   5.633   5.309  12.330  0.1819 -0.2250  0.2268
13697TIP3    H162506   5.580   5.230  12.338  1.9345 -1.4757  0.0203
13697TIP3    H262507   5.666   5.307  12.240  0.9988  0.2146  0.5065
13698TIP3   OH262508   6.145   6.274   2.709 -0.1300  0.0644  0.1439
13698TIP3    H162509   6.213   6.323   2.756  0.3030 -0.5499  0.1715
13698TIP3    H262510   6.063   6.303   2.748 -0.0287  1.9448 -0.8965
13699TIP3   OH262511   1.908   4.488   0.909 -0.1575 -0.2176  0.0322
13699TIP3    H162512   1.966   4.431   0.959  2.0648  0.7328 -1.2919
13699TIP3    H262513   1.914   4.455   0.819 -1.3775  0.1752 -0.2156
13700TIP3   OH262514   5.742   6.268  16.514 -0.3537  0.1205  0.2528
13700TIP3    H162515   5.754   6.351  16.561 -2.1440 -0.1892  1.3314
13700TIP3    H262516   5.677   6.288  16.447  0.2240 -0.1075 -0.3892
13701TIP3   OH262517   4.888   1.572   3.868  0.2844 -0.1068 -0.6013
13701TIP3    H162518   4.831   1.547   3.941  0.3072  0.3368 -0.4270
13701TIP3    H262519   4.967   1.518   3.880 -0.2638 -1.0303 -1.0921
13702TIP3   OH262520   3.456   3.155   1.503  0.8123  0.3521  0.0652
13702TIP3    H162521   3.431   3.239   1.467  1.4990  0.5971  0.1354
13702TIP3    H262522   3.410   3.090   1.449  0.5706  0.7578 -0.2194
13703TIP3   OH262523   6.123   2.745  12.919  0.3437 -0.0486 -0.2403
13703TIP3    H162524   6.105   2.805  12.846  1.6538  0.5998 -0.0545
13703TIP3    H262525   6.043   2.747  12.971  0.8410  2.7089  0.5496
13704TIP3   OH262526   3.050   0.805  11.596 -0.0629  0.0026  0.3107
13704TIP3    H162527   3.109   0.836  11.664 -1.9068  0.7413  1.6473
13704TIP3    H262528   3.037   0.881  11.539 -0.6927  0.2178  0.7371
13705TIP3   OH262529   6.808   5.365  13.772 -0.5973  0.1322  0.1669
13705TIP3    H162530   6.877   5.424  13.804  0.6803 -1.5376  0.6773
13705TIP3    H262531   6.825   5.358  13.678  2.4722 -3.1069  0.7137
13706TIP3   OH262532   3.682   1.663   1.720  0.2377  0.4358  1.0252
13706TIP3    H162533   3.644   1.593   1.773  0.8184 -1.1258 -0.5458
13706TIP3    H262534   3.611   1.690   1.661  0.9058 -1.0852 -0.5362
13707TIP3   OH262535   2.590   2.518  11.577  0.0482 -0.5775  0.0109
13707TIP3    H162536   2.569   2.611  11.571  1.5796 -0.1871  0.2670
13707TIP3    H262537   2.562   2.492  11.664 -0.4795 -0.3884 -0.0999
13708TIP3   OH262538   1.548   0.135  10.499 -0.9233  0.4345 -0.0383
13708TIP3    H162539   1.531   0.215  10.548  0.2072  2.1144 -2.1960
13708TIP3    H262540   1.512   0.152  10.412  0.7024 -0.7712 -1.0112
13709TIP3   OH262541   2.368   2.428   0.171 -0.3582  0.1594 -0.2348
13709TIP3    H162542   2.388   2.520   0.184  1.5991 -0.2849  0.1423
13709TIP3    H262543   2.439   2.381   0.214 -1.0777 -1.5361 -0.7940
13710TIP3   OH262544   0.858   3.279  16.651 -0.2293 -0.3885  0.1645
13710TIP3    H162545   0.878   3.342  16.582 -0.2540 -3.0943 -2.4806
13710TIP3    H262546   0.922   3.300  16.720 -0.0612  2.2776 -0.6653
13711TIP3   OH262547   3.923   0.253  10.686 -0.3728 -0.2903  0.0765
13711TIP3    H162548   3.956   0.248  10.596 -2.6017 -0.0173 -0.8412
13711TIP3    H262549   3.872   0.173  10.697  0.6143 -0.7644  1.4677
13712TIP3   OH262550   4.031   6.749   5.360 -0.2179  0.1485  0.8466
13712TIP3    H162551   4.097   6.806   5.320 -1.5472  0.9568 -0.3065
13712TIP3    H262552   3.972   6.809   5.406 -1.6636 -0.2340 -0.4121
13713TIP3   OH262553   0.117   3.073   2.803 -0.1716 -0.4036  0.1167
13713TIP3    H162554   0.167   3.147   2.837  2.2276 -1.4972 -0.7973
13713TIP3    H262555   0.071   3.037   2.879 -0.4497  1.2770  0.7857
13714TIP3   OH262556   2.039   1.994   4.860  0.1521 -0.0008 -0.1683
13714TIP3    H162557   2.038   1.915   4.807 -0.2514 -0.4674  0.5245
13714TIP3    H262558   1.966   1.984   4.921  0.4437  0.6385  0.3100
13715TIP3   OH262559   5.011   4.986  13.700  0.2993 -0.3146 -0.0015
13715TIP3    H162560   5.077   4.957  13.638 -0.3364 -1.9136  0.0215
13715TIP3    H262561   5.059   5.002  13.781  0.8495 -0.0447 -0.3752
13716TIP3   OH262562   4.279   2.587   2.386  0.0250  0.0350 -0.2095
13716TIP3    H162563   4.222   2.513   2.364 -0.2501  0.3614 -0.6140
13716TIP3    H262564   4.269   2.597   2.481  3.2966 -3.0942  0.6642
13717TIP3   OH262565   2.084   4.386  13.587  0.1268  0.3826  0.0376
13717TIP3    H162566   2.138   4.446  13.536  1.4592 -1.7361 -1.1658
13717TIP3    H262567   2.118   4.392  13.676  1.1196  0.4536 -0.3419
13718TIP3   OH262568   6.205   5.968   2.526 -0.0795 -0.3832 -0.0834
13718TIP3    H162569   6.284   5.915   2.534  0.7886  0.6243 -1.4456
13718TIP3    H262570   6.200   5.989   2.433  0.1114  2.5825  0.4804
13719TIP3   OH262571   0.124   4.493  10.765 -0.2479  0.1028  0.6676
13719TIP3    H162572   0.073   4.412  10.756  0.9260 -0.4835 -1.7158
13719TIP3    H262573   0.165   4.505  10.679 -2.8103  4.9777 -0.2174
13720TIP3   OH262574   0.372   1.152   0.755 -0.3016  0.2832  0.2749
13720TIP3    H162575   0.464   1.126   0.745 -0.6817 -1.1528  0.2915
13720TIP3    H262576   0.344   1.108   0.835 -1.6152 -1.2425 -0.9441
13721TIP3   OH262577   0.904   1.024   3.703 -0.4435  0.1887 -0.1172
13721TIP3    H162578   0.998   1.039   3.717  0.0861 -1.5318 -1.4951
13721TIP3    H262579   0.891   0.932   3.727 -1.5154  0.0541 -1.1544
13722TIP3   OH262580   3.180   3.846   4.235  0.2562  0.0023  0.2059
13722TIP3    H162581   3.159   3.753   4.243 -0.6581 -0.1197 -2.4762
13722TIP3    H262582   3.194   3.859   4.141 -1.6136  2.9382  0.1999
13723TIP3   OH262583   3.942   1.657   1.640  0.5155 -0.0158  0.9005
13723TIP3    H162584   3.962   1.609   1.560 -1.2057  0.6239  0.0564
13723TIP3    H262585   3.848   1.646   1.652  0.2580  2.1877  1.2991
13724TIP3   OH262586   5.896   5.683  12.913  0.4955  0.1371 -0.0551
13724TIP3    H162587   5.828   5.749  12.926  0.3439 -0.1983  1.0356
13724TIP3    H262588   5.907   5.644  13.000  1.9671  0.0738 -0.2531
13725TIP3   OH262589   1.093   4.262   5.117 -0.2214 -0.1683  0.3852
13725TIP3    H162590   1.076   4.284   5.208 -0.1056 -1.4558  0.7328
13725TIP3    H262591   1.101   4.166   5.116  1.2608 -0.0652 -0.7260
13726TIP3   OH262592   0.955   2.221  11.286 -0.0432 -0.0753  0.0979
13726TIP3    H162593   0.939   2.221  11.380  1.6827  1.4165  0.4540
13726TIP3    H262594   0.875   2.258  11.248 -0.4981 -0.0825  1.0279
13727TIP3   OH262595   0.344   6.227   6.421 -0.0653 -0.0133 -0.4304
13727TIP3    H162596   0.413   6.288   6.447 -0.9076  0.3479  1.0790
13727TIP3    H262597   0.384   6.140   6.430  0.3287  0.2096  0.0103
13728TIP3   OH262598   5.280   5.037   3.375  0.0734  0.0342 -0.6710
13728TIP3    H162599   5.185   5.043   3.368 -0.1472 -2.8062 -1.2869
13728TIP3    H262600   5.304   5.104   3.439 -2.6490 -0.9858  1.6296
13729TIP3   OH262601   1.091   1.794   4.397 -0.9684 -0.2326 -0.5363
13729TIP3    H162602   1.079   1.702   4.423 -2.9613  0.0388 -0.3362
13729TIP3    H262603   1.076   1.794   4.302  0.5526 -0.3189 -0.8008
13730TIP3   OH262604   4.702   1.034   1.839 -0.2356 -0.3362 -0.2289
13730TIP3    H162605   4.730   1.086   1.914  1.2688  0.3377 -1.1887
13730TIP3    H262606   4.614   1.005   1.860 -0.3717  1.0073  1.1830
13731TIP3   OH262607   4.480   1.084   5.294  0.1204  0.5169  0.1211
13731TIP3    H162608   4.536   1.046   5.361 -0.3672  0.1208  0.3152
13731TIP3    H262609   4.508   1.175   5.287 -0.9878  1.0750  2.1535
13732TIP3   OH262610   6.587   4.747   3.459 -0.5631  0.0346  0.5536
13732TIP3    H162611   6.620   4.796   3.534 -0.2644 -0.2126  0.5833
13732TIP3    H262612   6.636   4.665   3.460 -1.3938 -0.4761  0.7877
13733TIP3   OH262613   2.754   3.943   5.665  0.2123  0.0610  0.3910
13733TIP3    H162614   2.809   4.010   5.625 -1.6718  2.1911  1.1584
13733TIP3    H262615   2.760   3.961   5.759 -0.2675 -0.9422  0.6268
13734TIP3   OH262616   3.989   4.505   3.143  0.4006  0.0193  0.2941
13734TIP3    H162617   3.927   4.504   3.215  0.9233  0.8724  0.7673
13734TIP3    H262618   3.938   4.532   3.067 -0.2038 -1.1152  0.2737
13735TIP3   OH262619   0.445   2.294   1.796  0.0763 -0.4667 -0.9806
13735TIP3    H162620   0.399   2.321   1.875  0.3288 -0.1293 -0.9490
13735TIP3    H262621   0.383   2.311   1.725  0.9096  2.0589 -1.1947
13736TIP3   OH262622   2.218   3.650  11.361  0.0195 -0.1229 -0.6218
13736TIP3    H162623   2.227   3.617  11.451  2.3843  2.5594  0.2650
13736TIP3    H262624   2.184   3.739  11.371 -1.8205 -0.5118 -2.6083
13737TIP3   OH262625   4.096   1.297  14.432 -0.7462 -0.5824 -0.0765
13737TIP3    H162626   4.117   1.315  14.523 -1.2397 -2.0822  0.3649
13737TIP3    H262627   4.001   1.282  14.431 -0.4622 -2.6912 -0.4013
13738TIP3   OH262628   6.749   2.293   6.471 -0.7260  0.4321  0.0974
13738TIP3    H162629   6.701   2.338   6.402  0.2737 -0.4488 -1.2272
13738TIP3    H262630   6.810   2.358   6.504 -0.8680  0.7194 -0.2003
13739TIP3   OH262631   5.508   5.160  14.706  0.1570 -0.1969  0.2089
13739TIP3    H162632   5.438   5.224  14.689  0.3889 -0.5761 -2.7803
13739TIP3    H262633   5.506   5.146  14.800 -0.5517  3.4812  0.9148
13740TIP3   OH262634   6.424   3.009  16.635  0.0086  0.2386  0.0509
13740TIP3    H162635   6.395   3.032  16.724 -3.8605 -1.2960 -0.6167
13740TIP3    H262636   6.383   3.074  16.579  1.4456  0.4812 -0.7605
13741TIP3   OH262637   0.212   2.049  12.306  0.1506  0.3828 -0.1717
13741TIP3    H162638   0.288   2.034  12.363  0.5204  0.7467 -0.5592
13741TIP3    H262639   0.153   1.976  12.325  0.8582 -0.2395 -0.2959
13742TIP3   OH262640   3.085   5.819   3.334  0.3588  0.3712  0.0127
13742TIP3    H162641   3.170   5.807   3.291 -0.4485 -1.8831 -1.0984
13742TIP3    H262642   3.083   5.752   3.402 -0.7204  0.0424 -0.3262
13743TIP3   OH262643   2.910   5.106  12.739 -0.0040 -0.2387 -0.0514
13743TIP3    H162644   2.912   5.036  12.804  0.6681 -0.9926 -0.8568
13743TIP3    H262645   2.990   5.157  12.756 -0.8963  0.8513  1.0551
13744TIP3   OH262646   5.253   1.956  13.585  0.4626 -0.2155  0.1243
13744TIP3    H162647   5.199   1.945  13.663 -0.1641  0.9829 -0.1220
13744TIP3    H262648   5.343   1.955  13.618  0.5194 -4.1400  0.3412
13745TIP3   OH262649   2.346   1.186  13.443 -0.0783  0.2530 -0.2535
13745TIP3    H162650   2.281   1.204  13.375 -0.3125 -0.7145 -0.2896
13745TIP3    H262651   2.335   1.258  13.506 -0.6497  0.5140 -0.6453
13746TIP3   OH262652   1.811   6.442   2.997  0.0235 -0.0489 -0.0681
13746TIP3    H162653   1.865   6.363   2.988 -0.8273 -0.6242 -0.1574
13746TIP3    H262654   1.826   6.491   2.916  0.7697  0.0255  0.1060
13747TIP3   OH262655   3.848   5.758   1.592  0.0696 -0.0021  0.8413
13747TIP3    H162656   3.824   5.851   1.586 -0.6977 -0.2365 -0.0080
13747TIP3    H262657   3.764   5.712   1.593  0.3909 -0.6241  3.2009
13748TIP3   OH262658   6.801   5.494   3.276 -0.0386  0.1061  0.5474
13748TIP3    H162659   6.849   5.518   3.355 -0.9250 -0.1087  1.1685
13748TIP3    H262660   6.855   5.426   3.235 -0.2905 -0.8807  1.7813
13749TIP3   OH262661   1.055   6.515   4.667  0.1455  0.2512 -0.2656
13749TIP3    H162662   1.122   6.538   4.732  0.8380 -0.0834 -0.8387
13749TIP3    H262663   1.090   6.437   4.624 -1.4675 -1.0482  0.6618
13750TIP3   OH262664   1.146   1.430  13.118 -0.2467  0.3562 -0.3813
13750TIP3    H162665   1.073   1.388  13.163  0.6284  0.2972  1.0538
13750TIP3    H262666   1.205   1.459  13.189  0.7180  1.1379 -1.4561
13751TIP3   OH262667   2.995   0.710  14.588  0.0686 -0.0773  0.4966
13751TIP3    H162668   3.013   0.725  14.496  0.5981  1.6378  0.8382
13751TIP3    H262669   2.954   0.624  14.591 -0.0211 -0.1348 -1.3312
13752TIP3   OH262670   2.512   5.373  12.955 -0.3882  0.3639 -0.3032
13752TIP3    H162671   2.437   5.315  12.944 -1.2491  1.3394  0.2161
13752TIP3    H262672   2.580   5.334  12.900 -1.6064  0.0702 -1.6854
13753TIP3   OH262673   1.020   1.405  13.442  0.1520  0.1004  0.1175
13753TIP3    H162674   1.009   1.362  13.358 -0.8542 -0.9723  0.7676
13753TIP3    H262675   0.978   1.491  13.430  0.5637  0.2014 -0.6459
13754TIP3   OH262676   4.925   5.092  16.172 -0.2537  0.2738  0.5144
13754TIP3    H162677   4.942   5.110  16.080 -0.2299 -0.1769  0.4303
13754TIP3    H262678   4.976   5.158  16.219 -1.6875  1.7194  0.1863
13755TIP3   OH262679   2.498   0.374  13.140 -0.1175 -0.1721  0.2989
13755TIP3    H162680   2.454   0.455  13.111  0.4244 -0.6007 -1.8882
13755TIP3    H262681   2.556   0.351  13.068  1.5973 -1.2065  1.9130
13756TIP3   OH262682   3.612   0.424   1.885  0.2277  0.0837  0.2235
13756TIP3    H162683   3.671   0.386   1.950  0.8539  1.1591  0.3122
13756TIP3    H262684   3.663   0.495   1.845 -0.3022 -0.2699 -1.1307
13757TIP3   OH262685   3.081   1.871   5.217  0.1584  0.3654 -0.6951
13757TIP3    H162686   3.080   1.966   5.209  0.5095  0.4178 -0.1992
13757TIP3    H262687   3.173   1.847   5.206  0.0465  0.0664 -0.9865
13758TIP3   OH262688   5.230   1.151  12.718  0.1255 -0.1066  0.9585
13758TIP3    H162689   5.149   1.202  12.721  0.8803  1.0941  1.3559
13758TIP3    H262690   5.300   1.216  12.726  1.1565 -1.0632  0.0383
13759TIP3   OH262691   3.655   1.640   5.233  0.0719  0.0725  0.3910
13759TIP3    H162692   3.722   1.657   5.167 -0.5409 -1.6358 -0.7442
13759TIP3    H262693   3.651   1.720   5.285  3.2358  0.1226  0.7419
13760TIP3   OH262694   5.764   2.504   4.291  0.3909  0.3976 -0.3206
13760TIP3    H162695   5.793   2.461   4.371  0.4057 -0.6878 -0.8849
13760TIP3    H262696   5.678   2.465   4.273  0.5317  0.3779 -0.9963
13761TIP3   OH262697   0.373   1.610  11.641 -0.0863 -0.0234  0.0572
13761TIP3    H162698   0.316   1.537  11.664  0.0012 -0.4839 -1.1134
13761TIP3    H262699   0.446   1.570  11.594  0.2313  0.7634 -0.1447
13762TIP3   OH262700   1.460   3.532   4.789  0.1847 -0.4690 -0.4451
13762TIP3    H162701   1.485   3.511   4.879  0.8597  0.0001 -0.5147
13762TIP3    H262702   1.487   3.455   4.738  3.2907  0.7022 -0.8088
13763TIP3   OH262703   5.093   5.609  15.069  0.1554  0.5354  0.1240
13763TIP3    H162704   5.020   5.671  15.067 -0.4244 -0.0839  1.1266
13763TIP3    H262705   5.171   5.663  15.058 -0.3986  1.3330  0.0402
13764TIP3   OH262706   0.535   2.575   0.844  0.1176  0.3263  0.4668
13764TIP3    H162707   0.456   2.537   0.805 -0.3255  0.8905  0.8029
13764TIP3    H262708   0.607   2.541   0.790 -0.1547 -1.7374  1.2967
13765TIP3   OH262709   6.137   4.634  13.604 -0.1582  0.1648  0.0466
13765TIP3    H162710   6.093   4.558  13.566  2.1324 -0.4288 -1.6560
13765TIP3    H262711   6.185   4.599  13.678 -0.2977  0.2475  0.1754
13766TIP3   OH262712   2.193   0.837   5.426  0.0172  0.1866  0.2049
13766TIP3    H162713   2.265   0.867   5.480  1.2502 -1.1381 -0.6007
13766TIP3    H262714   2.235   0.804   5.346 -1.6872  1.8059 -1.4744
13767TIP3   OH262715   5.737   5.703  15.454  0.4293 -0.2395  0.6049
13767TIP3    H162716   5.743   5.622  15.505  1.0010 -0.9711 -0.5636
13767TIP3    H262717   5.748   5.773  15.518  1.0491 -1.1234  1.4955
13768TIP3   OH262718   5.705   3.334   3.445  0.0741 -0.5518  0.4202
13768TIP3    H162719   5.700   3.425   3.414 -0.5549 -0.9912 -0.8182
13768TIP3    H262720   5.651   3.334   3.524 -0.5863 -0.0155 -0.0137
13769TIP3   OH262721   5.905   1.005  13.838  0.0461 -0.0266  0.1228
13769TIP3    H162722   5.943   1.041  13.918 -0.2378 -0.4830  0.4769
13769TIP3    H262723   5.913   1.074  13.773 -0.1587  0.5318  0.6844
13770TIP3   OH262724   4.462   4.777   2.672 -0.6747 -0.5209 -0.0224
13770TIP3    H162725   4.437   4.766   2.580  0.1423  0.0907 -0.3431
13770TIP3    H262726   4.491   4.690   2.700  0.8843 -0.3442 -0.9441
13771TIP3   OH262727   3.336   6.375  12.283 -0.1025 -0.1539 -0.4186
13771TIP3    H162728   3.389   6.309  12.327 -1.0349 -0.5942  0.0929
13771TIP3    H262729   3.395   6.416  12.220  1.1688  0.2149  0.9497
13772TIP3   OH262730   4.571   3.255  14.749 -0.4706  0.4388  0.5442
13772TIP3    H162731   4.493   3.309  14.743  0.3565  1.4985 -2.1937
13772TIP3    H262732   4.541   3.168  14.723 -1.0678  0.3941  1.3298
13773TIP3   OH262733   4.647   0.614   3.782  0.4567 -0.0481 -0.4770
13773TIP3    H162734   4.649   0.677   3.710  3.0840 -0.0234 -0.4976
13773TIP3    H262735   4.638   0.667   3.861  0.5194  0.1842 -0.6257
13774TIP3   OH262736   6.015   3.444   5.178 -0.0028  0.1307  0.4827
13774TIP3    H162737   5.979   3.400   5.101  1.9565 -0.2166 -0.2993
13774TIP3    H262738   5.960   3.415   5.250 -0.7070 -1.0868 -0.4959
13775TIP3   OH262739   0.129   1.561  15.058  0.4356  0.1946  0.1545
13775TIP3    H162740   0.092   1.649  15.069 -2.6112 -0.6553 -1.8476
13775TIP3    H262741   0.184   1.568  14.980 -2.0712 -0.1118 -1.7891
13776TIP3   OH262742   1.372   1.471   5.463 -0.2806 -0.2871  0.4857
13776TIP3    H162743   1.378   1.376   5.473 -1.2920 -0.3074  0.9962
13776TIP3    H262744   1.305   1.498   5.526  1.8782  1.1262  2.3232
13777TIP3   OH262745   1.898   0.778  13.825 -0.4339  1.0957  0.0895
13777TIP3    H162746   1.984   0.782  13.783 -0.6102  0.4642 -0.3398
13777TIP3    H262747   1.887   0.864  13.865  0.5358  1.0836  0.4144
13778TIP3   OH262748   3.850   5.761   0.702 -0.2366 -0.3907  0.0259
13778TIP3    H162749   3.939   5.787   0.724 -0.0177 -1.6389  0.6792
13778TIP3    H262750   3.795   5.829   0.741  0.4639  1.6499 -2.2862
13779TIP3   OH262751   5.451   2.197   4.453  0.0317 -0.2872 -0.3442
13779TIP3    H162752   5.411   2.258   4.515 -1.0567 -0.2674 -1.0300
13779TIP3    H262753   5.488   2.128   4.508  1.7708  1.2090  0.4883
13780TIP3   OH262754   2.502   0.503  11.044 -0.3622  0.4203  0.2767
13780TIP3    H162755   2.517   0.490  10.951 -0.7960  2.0666 -0.0576
13780TIP3    H262756   2.569   0.450  11.087  1.5336  1.6836 -1.0079
13781TIP3   OH262757   0.490   5.951  13.471  0.0047 -0.0979 -0.3036
13781TIP3    H162758   0.571   5.912  13.441 -0.1302 -0.3510 -0.3389
13781TIP3    H262759   0.510   5.984  13.559  0.5700  1.1810 -0.8924
13782TIP3   OH262760   2.753   6.662   6.050 -0.2297  0.6387  0.2328
13782TIP3    H162761   2.805   6.697   6.122  0.5216  1.2117 -0.5847
13782TIP3    H262762   2.771   6.568   6.052  0.5467  0.7830  0.1862
13783TIP3   OH262763   2.012   6.244  11.682  0.0698 -0.3666 -0.6393
13783TIP3    H162764   2.093   6.294  11.696 -0.9894  1.0350  0.9162
13783TIP3    H262765   2.042   6.156  11.659  2.0142  0.5504 -1.9233
13784TIP3   OH262766   6.305   1.154   0.240  0.1838  0.1998  0.0837
13784TIP3    H162767   6.362   1.200   0.179  0.5732 -0.0926  0.2292
13784TIP3    H262768   6.223   1.205   0.239  1.3011  2.1815  1.8565
13785TIP3   OH262769   0.565   1.224   1.597 -0.1014 -0.7275 -0.1320
13785TIP3    H162770   0.531   1.302   1.553  0.1636 -0.9535 -0.7658
13785TIP3    H262771   0.637   1.195   1.541  0.3205 -0.9677  0.5230
13786TIP3   OH262772   4.241   3.002  15.582  0.1020  0.2172  0.2289
13786TIP3    H162773   4.292   3.083  15.572 -1.6775  1.0909 -3.4723
13786TIP3    H262774   4.159   3.030  15.623 -0.1644  0.1471 -0.2496
13787TIP3   OH262775   2.426   5.253   5.437 -0.1288  0.1402 -0.2251
13787TIP3    H162776   2.511   5.288   5.462  0.2377 -1.6625  1.3039
13787TIP3    H262777   2.439   5.218   5.349  0.2406  1.3211 -0.6502
13788TIP3   OH262778   0.715   2.970  16.853  0.1825  0.1610 -0.1049
13788TIP3    H162779   0.678   2.925  16.928  2.4627  1.5263  1.9983
13788TIP3    H262780   0.718   3.062  16.879 -1.4000  1.1684 -2.9954
13789TIP3   OH262781   6.000   2.135   3.164 -0.4092 -0.6280  0.4740
13789TIP3    H162782   5.932   2.182   3.211  1.5847  2.5024  0.4788
13789TIP3    H262783   6.078   2.143   3.219  1.2314  0.5041 -1.8417
13790TIP3   OH262784   4.724   0.376   2.685 -0.5122  0.3349 -0.7416
13790TIP3    H162785   4.651   0.346   2.739  0.9839 -1.5322  0.3759
13790TIP3    H262786   4.774   0.434   2.742  0.9693 -1.4899 -0.0901
13791TIP3   OH262787   1.629   0.599  16.182 -0.8594  0.0256 -0.1113
13791TIP3    H162788   1.654   0.678  16.229  0.2378 -1.2619  1.6003
13791TIP3    H262789   1.643   0.528  16.244 -0.0006 -1.7280 -2.1592
13792TIP3   OH262790   6.429   5.900  13.547 -0.3210  0.0899 -0.0416
13792TIP3    H162791   6.396   5.825  13.597 -0.2976  0.0968 -0.0167
13792TIP3    H262792   6.518   5.875  13.523 -0.5134 -0.1459 -0.5402
13793TIP3   OH262793   0.914   1.026   4.256 -0.0878  0.1083  0.0877
13793TIP3    H162794   0.938   1.103   4.206  0.1415  0.0212  0.0599
13793TIP3    H262795   0.821   1.012   4.237  0.2600 -0.5682 -1.1831
13794TIP3   OH262796   6.602   2.714  11.353  0.2107  0.1261  0.3663
13794TIP3    H162797   6.516   2.721  11.394  0.1622 -0.0128  0.2877
13794TIP3    H262798   6.619   2.802  11.317 -0.6075 -0.2627 -1.0268
13795TIP3   OH262799   0.884   1.865  15.290 -0.1192  0.0764  0.1359
13795TIP3    H162800   0.794   1.895  15.294 -0.6830 -1.0467 -2.4822
13795TIP3    H262801   0.910   1.855  15.382 -3.3491 -1.6029  0.9998
13796TIP3   OH262802   0.844   2.260  13.164 -0.4224 -0.1494  0.4099
13796TIP3    H162803   0.825   2.346  13.127 -1.1061 -0.2976  0.3992
13796TIP3    H262804   0.895   2.278  13.243  1.3824  0.1581 -0.7642
13797TIP3   OH262805   4.372   1.550  14.543 -0.4276  0.2663 -0.0002
13797TIP3    H162806   4.366   1.561  14.448 -1.1280  1.1384  0.1317
13797TIP3    H262807   4.380   1.639  14.577 -1.9967  0.1064  0.8733
13798TIP3   OH262808   0.569   6.372   6.493 -0.3570  0.5895  0.0329
13798TIP3    H162809   0.595   6.445   6.550  0.6317  0.5490 -0.3551
13798TIP3    H262810   0.651   6.340   6.456 -0.6806 -1.2330  0.7774
13799TIP3   OH262811   6.541   4.789  14.574 -0.5189  0.2748 -0.4900
13799TIP3    H162812   6.538   4.708  14.624 -1.7321 -0.4663 -1.6993
13799TIP3    H262813   6.582   4.764  14.491 -0.6842  0.9519 -0.7811
13800TIP3   OH262814   6.624   0.268  11.247 -0.1554 -0.0717 -0.4806
13800TIP3    H162815   6.598   0.180  11.222 -0.3050  0.1625 -1.1759
13800TIP3    H262816   6.629   0.316  11.164  0.4809  0.4240 -0.1652
13801TIP3   OH262817   2.317   4.771  12.742  0.3951  0.0933 -0.1837
13801TIP3    H162818   2.352   4.825  12.671 -2.2202 -1.1882 -2.6267
13801TIP3    H262819   2.265   4.832  12.795 -0.6431  0.4394 -1.5577
13802TIP3   OH262820   4.325   5.700   5.795 -0.6093  0.0394  0.5154
13802TIP3    H162821   4.325   5.698   5.890 -1.1845  1.5978  0.5802
13802TIP3    H262822   4.416   5.717   5.771 -0.4755 -0.2959  0.7838
13803TIP3   OH262823   4.094   3.888  16.291  0.1122 -0.6040 -0.4866
13803TIP3    H162824   4.092   3.896  16.386 -1.2584 -0.3803 -0.5107
13803TIP3    H262825   4.022   3.944  16.261  0.1251 -1.1667 -1.6106
13804TIP3   OH262826   5.224   2.143   1.665  0.3035 -0.3499 -0.0577
13804TIP3    H162827   5.182   2.205   1.724  1.2601 -0.3543  0.6550
13804TIP3    H262828   5.211   2.058   1.707  0.5536 -0.4130 -0.1068
13805TIP3   OH262829   4.820   0.340  12.798 -0.3063 -0.9509 -0.1614
13805TIP3    H162830   4.904   0.304  12.827 -0.2075 -0.1407  0.6066
13805TIP3    H262831   4.813   0.314  12.707  0.4682 -1.6016 -0.0519
13806TIP3   OH262832   3.732   1.105  15.884  0.4106 -0.3303 -0.5401
13806TIP3    H162833   3.828   1.096  15.884  0.2542 -2.5658 -0.1710
13806TIP3    H262834   3.713   1.163  15.811  1.9860 -1.0639 -1.5960
13807TIP3   OH262835   2.892   6.175  14.860 -0.3646  0.0655 -0.3529
13807TIP3    H162836   2.911   6.128  14.942  2.3089  0.5887 -0.5782
13807TIP3    H262837   2.897   6.108  14.792  0.8387  0.1853 -0.4044
13808TIP3   OH262838   1.612   0.094   0.673  0.9043 -0.3348 -0.2539
13808TIP3    H162839   1.669   0.048   0.611  0.4220 -0.4439 -0.6230
13808TIP3    H262840   1.541   0.033   0.691  1.1078 -0.3499  0.5140
13809TIP3   OH262841   3.364   1.823  11.917 -0.1814 -0.4712 -0.3374
13809TIP3    H162842   3.397   1.883  11.984  0.8877 -0.3660 -0.9318
13809TIP3    H262843   3.440   1.805  11.862 -0.7049 -1.6552 -0.7108
13810TIP3   OH262844   3.346   2.718   2.946 -0.9018  0.5581  0.0597
13810TIP3    H162845   3.417   2.747   2.889 -2.6629 -0.8052 -3.0538
13810TIP3    H262846   3.276   2.781   2.931 -1.9586 -0.7306 -0.6366
13811TIP3   OH262847   6.382   3.544   2.458  0.0264  0.2711 -0.2407
13811TIP3    H162848   6.424   3.520   2.376 -0.5202  0.8124 -0.6834
13811TIP3    H262849   6.386   3.640   2.461  0.0243  0.2607  0.3536
13812TIP3   OH262850   1.872   5.184  15.386  0.3072 -0.3057 -0.2376
13812TIP3    H162851   1.832   5.194  15.300  1.9425 -0.1095 -1.0249
13812TIP3    H262852   1.799   5.167  15.445 -0.9349  0.3239 -1.5302
13813TIP3   OH262853   6.699   0.676  12.507 -0.2843 -0.1541  0.1394
13813TIP3    H162854   6.746   0.616  12.564 -0.2047 -0.0116  0.2242
13813TIP3    H262855   6.744   0.669  12.423 -1.7686 -2.0367 -0.5597
13814TIP3   OH262856   0.091   1.391  13.148 -0.0578 -0.0148 -0.4739
13814TIP3    H162857   0.071   1.430  13.063  1.2526 -1.0620 -1.2978
13814TIP3    H262858   0.005   1.377  13.188 -0.6737  1.0094 -1.3716
13815TIP3   OH262859   1.968   4.298  14.835 -0.3047  0.4321 -0.2089
13815TIP3    H162860   1.957   4.232  14.903  1.7974  1.3764  1.1398
13815TIP3    H262861   1.975   4.380  14.883 -0.2312  1.3280 -1.6934
13816TIP3   OH262862   3.089   2.144   4.921 -0.2526  0.9021 -0.3229
13816TIP3    H162863   3.151   2.072   4.914  1.0543  2.0045 -0.5726
13816TIP3    H262864   3.108   2.183   5.007 -0.7306  1.1377 -0.3224
13817TIP3   OH262865   5.984   6.661   1.459  0.5035 -0.2418  0.1870
13817TIP3    H162866   6.027   6.653   1.374 -1.3301 -1.6561 -0.6877
13817TIP3    H262867   6.016   6.586   1.509  2.1097  0.9605  1.0771
13818TIP3   OH262868   2.906   2.116  12.977 -0.3090 -0.2636  0.0724
13818TIP3    H162869   2.956   2.098  12.898 -0.2008 -1.5672  0.4217
13818TIP3    H262870   2.960   2.179  13.026  0.4059 -0.7224 -0.1161
13819TIP3   OH262871   2.214   6.564   5.487 -0.0497 -0.0727 -0.1313
13819TIP3    H162872   2.217   6.483   5.538  1.2964  0.4353  0.6377
13819TIP3    H262873   2.197   6.536   5.398 -0.5871 -1.1255  0.2929
13820TIP3   OH262874   5.582   5.379  11.702 -0.0520 -0.0643 -0.0200
13820TIP3    H162875   5.504   5.414  11.746 -0.3208 -1.3750  0.5971
13820TIP3    H262876   5.642   5.358  11.774  0.4292 -0.1065 -0.4295
13821TIP3   OH262877   4.961   6.025   4.491  0.4196 -0.0335  0.0419
13821TIP3    H162878   4.971   6.114   4.524 -0.7018 -0.6292  2.1861
13821TIP3    H262879   5.024   5.973   4.541 -0.0652 -0.6921 -0.0115
13822TIP3   OH262880   1.211   2.050  12.910 -0.2081 -0.2327 -0.2954
13822TIP3    H162881   1.135   1.998  12.884 -0.1260 -0.4279 -0.1493
13822TIP3    H262882   1.278   1.985  12.934 -0.4105 -0.0799  0.7722
13823TIP3   OH262883   0.028   3.848  15.868  0.0923  0.3427 -0.1632
13823TIP3    H162884  -0.051   3.795  15.861  0.5395 -0.2871 -0.5293
13823TIP3    H262885  -0.003   3.934  15.897 -0.4914 -0.5425  2.0745
13824TIP3   OH262886   4.710   0.048  14.172 -0.3539  0.3813 -0.4947
13824TIP3    H162887   4.633   0.103  14.155 -1.3803 -0.2646  1.7669
13824TIP3    H262888   4.675  -0.028  14.219  1.0835 -2.0498 -3.0631
13825TIP3   OH262889   6.660   5.315  14.432  0.0899 -0.1801 -0.1346
13825TIP3    H162890   6.749   5.338  14.457 -0.3936  1.3262  0.3392
13825TIP3    H262891   6.660   5.220  14.427  1.4984 -0.2525  0.7039
13826TIP3   OH262892   2.879   1.682   2.896 -0.0962  0.2462 -0.2688
13826TIP3    H162893   2.798   1.664   2.943  0.7435  0.0579  1.1462
13826TIP3    H262894   2.948   1.674   2.962  1.2380 -1.1487 -1.7611
13827TIP3   OH262895   4.072   1.835  11.319  0.0091  0.2986  0.1472
13827TIP3    H162896   3.993   1.791  11.288 -0.0446  0.4418  0.0855
13827TIP3    H262897   4.119   1.860  11.240  0.5802 -0.6197  0.1710
13828TIP3   OH262898   3.275   4.513   5.192 -0.1529  0.4843 -0.0130
13828TIP3    H162899   3.301   4.531   5.282 -0.6333 -1.7396  0.6111
13828TIP3    H262900   3.181   4.497   5.196 -0.0283 -0.5278 -0.7510
13829TIP3   OH262901   0.130   3.532  11.728 -0.5894 -0.0149 -0.5750
13829TIP3    H162902   0.210   3.564  11.687 -0.0766  0.3066  0.6439
13829TIP3    H262903   0.089   3.610  11.766  0.1133 -0.5829  1.4751
13830TIP3   OH262904   5.807   0.031   0.674  0.3625  0.5347 -0.0281
13830TIP3    H162905   5.730   0.006   0.623 -0.6130  0.2984  1.5153
13830TIP3    H262906   5.832  -0.048   0.721  1.0364  0.8352  0.1308
13831TIP3   OH262907   3.669   6.193   3.345  0.3324 -0.4144  0.1978
13831TIP3    H162908   3.629   6.276   3.320 -0.1227 -1.2211 -2.0000
13831TIP3    H262909   3.607   6.154   3.406  0.5231  0.8018  1.2011
13832TIP3   OH262910   5.120   3.555   6.310  0.1093 -0.2633 -0.1196
13832TIP3    H162911   5.151   3.483   6.254 -0.2457 -2.2286  2.0456
13832TIP3    H262912   5.189   3.621   6.304  0.2667 -0.5402 -2.5083
13833TIP3   OH262913   1.240   0.130   4.669 -0.1394 -0.0942 -0.4613
13833TIP3    H162914   1.294   0.063   4.627  1.4369  0.6415  0.3331
13833TIP3    H262915   1.244   0.205   4.609  0.2861  0.1920 -0.0798
13834TIP3   OH262916   5.237   5.672   3.743 -0.0694 -0.0142 -0.9512
13834TIP3    H162917   5.299   5.712   3.682  0.6536  0.4134  0.0330
13834TIP3    H262918   5.192   5.746   3.785 -0.4629 -0.2955 -0.8616
13835TIP3   OH262919   1.502   2.007   1.233 -0.4744 -0.1945  0.3916
13835TIP3    H162920   1.441   2.057   1.179  0.6440 -0.7570 -1.4985
13835TIP3    H262921   1.449   1.975   1.307 -2.2664 -0.0235 -0.7630
13836TIP3   OH262922   1.317   0.189  10.740  0.1556  0.2338  0.6813
13836TIP3    H162923   1.369   0.250  10.688  0.4742  0.7279  1.5702
13836TIP3    H262924   1.237   0.237  10.762 -0.6948 -0.4973 -0.6161
13837TIP3   OH262925   5.245   5.924  16.254 -0.2683  0.6822 -0.6659
13837TIP3    H162926   5.238   5.871  16.333  2.2869 -1.5698 -1.7823
13837TIP3    H262927   5.165   5.905  16.205 -0.7696  0.2148  0.3175
13838TIP3   OH262928   0.169   6.112  16.117  0.0231 -0.0387 -0.0384
13838TIP3    H162929   0.147   6.083  16.029  2.0379 -0.8982 -0.3036
13838TIP3    H262930   0.100   6.076  16.172 -0.3374 -0.9268 -1.0432
13839TIP3   OH262931   4.300   4.473  12.755 -0.1923  0.4038 -0.2230
13839TIP3    H162932   4.340   4.424  12.683 -1.1789  1.6426 -1.7044
13839TIP3    H262933   4.331   4.430  12.834  2.4376  0.0968 -1.3198
13840TIP3   OH262934   1.228   1.242   6.471  0.0626  0.1515  1.1413
13840TIP3    H162935   1.150   1.249   6.417 -0.4266  0.1134  1.8342
13840TIP3    H262936   1.214   1.304   6.542  0.4668 -0.1758  1.5123
13841TIP3   OH262937   4.655   6.809   3.110 -0.5373  0.5724  0.0878
13841TIP3    H162938   4.738   6.858   3.114 -0.6271  0.7255  0.0623
13841TIP3    H262939   4.665   6.741   3.177 -0.0601  0.0784 -0.4741
13842TIP3   OH262940   0.442   6.419   2.067 -0.1329  0.0181 -0.1409
13842TIP3    H162941   0.458   6.446   2.158 -0.4162  1.2781 -0.4335
13842TIP3    H262942   0.523   6.378   2.040  0.2813  0.4493  0.4097
13843TIP3   OH262943   1.829   4.551   4.672  0.0138  0.2580 -0.2674
13843TIP3    H162944   1.830   4.644   4.696  1.2586  0.3303 -0.5375
13843TIP3    H262945   1.858   4.506   4.751  0.1281  0.1518 -0.3702
13844TIP3   OH262946   0.411   6.102  16.659  0.2136  0.0576 -0.0486
13844TIP3    H162947   0.454   6.017  16.650  2.1168  0.7922  1.3770
13844TIP3    H262948   0.483   6.165  16.652 -0.7483  1.4056  1.5680
13845TIP3   OH262949   5.580   1.928   5.044 -0.2035 -0.4897  0.2770
13845TIP3    H162950   5.536   1.976   5.113  0.9261 -0.1781  0.8028
13845TIP3    H262951   5.614   1.849   5.086 -1.4043 -1.4183 -0.4200
13846TIP3   OH262952   1.348   4.783   1.204  0.1557 -0.1008  0.2451
13846TIP3    H162953   1.413   4.715   1.186  0.7198  0.7163 -0.9314
13846TIP3    H262954   1.308   4.802   1.119  0.0733  1.0977  0.5273
13847TIP3   OH262955   2.925   2.036  15.835  0.1038 -0.9455 -0.3294
13847TIP3    H162956   2.833   2.018  15.856  0.0136  0.2020  0.3329
13847TIP3    H262957   2.934   2.008  15.744 -1.1392 -0.2667 -0.6880
13848TIP3   OH262958   4.286   3.767  12.746  0.1755 -0.3131  0.0163
13848TIP3    H162959   4.212   3.747  12.803  1.7462 -1.0305  1.9222
13848TIP3    H262960   4.259   3.734  12.660 -2.1961  0.6308  0.3262
13849TIP3   OH262961   1.404   0.052  13.810  0.1844  0.2436 -0.1579
13849TIP3    H162962   1.404   0.089  13.722 -2.0268  0.7423 -0.0195
13849TIP3    H262963   1.349  -0.027  13.803  0.1619  0.1678  0.7085
13850TIP3   OH262964   1.236   3.994   1.866  0.3843 -0.3115 -0.1319
13850TIP3    H162965   1.252   4.058   1.934  0.7513  0.3998 -0.8730
13850TIP3    H262966   1.322   3.958   1.845  0.6950  1.3704 -2.0353
13851TIP3   OH262967   5.335   0.791   2.605  0.1917 -0.3647  0.1462
13851TIP3    H162968   5.243   0.819   2.609  0.2591 -0.0050 -0.6669
13851TIP3    H262969   5.333   0.711   2.553  0.1478 -1.2817  1.5084
13852TIP3   OH262970   4.771   0.324   6.067 -0.2420  0.2963  0.1910
13852TIP3    H162971   4.784   0.365   6.152  2.7782 -1.5842  0.7780
13852TIP3    H262972   4.820   0.380   6.006 -1.3883  0.9586 -0.1618
13853TIP3   OH262973   5.238   0.675  11.872 -0.0647 -0.1936  0.8315
13853TIP3    H162974   5.198   0.602  11.823 -0.0072 -0.1586  0.7316
13853TIP3    H262975   5.191   0.677  11.955  0.2703 -0.6651  1.0375
13854TIP3   OH262976   1.033   5.475  15.348  0.0758 -0.1527  0.1163
13854TIP3    H162977   1.006   5.386  15.325 -0.5383  0.3108 -1.0499
13854TIP3    H262978   1.052   5.471  15.441  0.2162 -1.5465  0.0519
13855TIP3   OH262979   5.635   0.700   0.486  0.0482 -0.1284 -0.0372
13855TIP3    H162980   5.663   0.654   0.564  0.3728 -2.3983 -1.4071
13855TIP3    H262981   5.716   0.718   0.438 -0.3248 -3.7741 -2.4228
13856TIP3   OH262982   0.520   0.623   3.032 -0.5957 -0.7061 -0.1040
13856TIP3    H162983   0.434   0.582   3.027 -0.1702 -1.8234  1.1609
13856TIP3    H262984   0.517   0.675   3.113 -0.3842 -0.0143 -0.5367
13857TIP3   OH262985   3.165   5.626  14.654  0.2639  0.5072  0.0193
13857TIP3    H162986   3.087   5.649  14.705  0.7171 -1.4588  1.7303
13857TIP3    H262987   3.226   5.590  14.719  1.5116 -0.6186 -1.7019
13858TIP3   OH262988   4.588   4.308   1.081  0.0139  0.3820  0.2644
13858TIP3    H162989   4.628   4.223   1.099  1.2401  0.6224 -1.1113
13858TIP3    H262990   4.501   4.286   1.048  0.2442 -0.3286  0.0964
13859TIP3   OH262991   3.725   5.403  13.992  0.4777 -0.4453 -0.8155
13859TIP3    H162992   3.753   5.443  13.910 -0.7316  1.2396 -0.4439
13859TIP3    H262993   3.646   5.355  13.969  0.9356 -1.1777 -0.8993
13860TIP3   OH262994   3.176   0.996  12.556 -0.2606 -0.5024  0.2267
13860TIP3    H162995   3.080   0.990  12.556 -0.2372 -3.2380 -2.1983
13860TIP3    H262996   3.196   1.059  12.487 -0.3496 -1.0722 -0.3328
13861TIP3   OH262997   4.052   4.831  13.115 -0.0729  0.3466  0.4176
13861TIP3    H162998   4.105   4.795  13.186  3.7999 -1.3069 -2.8964
13861TIP3    H262999   3.977   4.771  13.107  0.9872 -1.1304  1.2779
13862TIP3   OH263000   4.814   4.513   2.492 -0.2170  0.4040 -0.0092
13862TIP3    H163001   4.833   4.500   2.399 -0.7054  1.2597 -0.2424
13862TIP3    H263002   4.899   4.513   2.535 -0.0875 -3.3375  0.0508
13863TIP3   OH263003   1.891   1.476  12.957 -0.3176 -0.0578  0.0161
13863TIP3    H163004   1.898   1.440  12.869 -0.7235 -0.3918  0.1132
13863TIP3    H263005   1.955   1.546  12.960 -0.1712 -0.1665 -0.4854
13864TIP3   OH263006   6.475   0.878  13.495  0.2650 -0.1948 -0.5710
13864TIP3    H163007   6.452   0.791  13.530  0.0241  0.0668 -0.0663
13864TIP3    H263008   6.391   0.917  13.473  0.1069  1.0803  2.0141
13865TIP3   OH263009   2.350   0.248   3.356  0.3196 -0.3189 -0.2050
13865TIP3    H163010   2.443   0.243   3.334  0.7236 -0.9325  1.5652
13865TIP3    H263011   2.311   0.172   3.314  0.1750  1.0117 -2.7103
13866TIP3   OH263012   6.033   3.409  14.229 -0.1166 -0.4385 -0.0394
13866TIP3    H163013   5.987   3.459  14.161 -0.5511 -1.9708 -0.9277
13866TIP3    H263014   5.964   3.358  14.271  0.2935 -0.1876  0.9681
13867TIP3   OH263015   4.054   1.196   1.256  0.2128  0.5134  0.3633
13867TIP3    H163016   4.083   1.167   1.342  0.9200  0.3991  0.0938
13867TIP3    H263017   3.987   1.133   1.231  1.9598 -1.1600 -0.3561
13868TIP3   OH263018   2.466   2.571  14.702  0.0059  0.1376  0.2494
13868TIP3    H163019   2.529   2.637  14.729 -0.6327  0.1173  1.9271
13868TIP3    H263020   2.442   2.595  14.613  2.0256  0.3883 -0.2597
13869TIP3   OH263021   2.487   6.351  15.249  0.3209  0.4509 -0.4813
13869TIP3    H163022   2.422   6.413  15.283  0.4414  0.0951  0.3991
13869TIP3    H263023   2.435   6.287  15.200 -0.1545 -0.6049  1.3426
13870TIP3   OH263024   4.228   6.749   2.330 -0.0886 -0.4163  0.4140
13870TIP3    H163025   4.303   6.789   2.374  0.2431 -0.2755 -0.2682
13870TIP3    H263026   4.152   6.793   2.367  0.2619  0.7457 -0.2047
13871TIP3   OH263027   1.285   1.104  16.931  0.8425 -0.3290 -0.9479
13871TIP3    H163028   1.309   1.085  16.841  0.2114 -1.2621 -0.9316
13871TIP3    H263029   1.364   1.083  16.981  1.3193  0.5589 -1.3121
13872TIP3   OH263030   6.623   2.659  12.166 -0.2758  0.1236  0.4340
13872TIP3    H163031   6.537   2.617  12.162 -0.1481 -0.0642 -0.6336
13872TIP3    H263032   6.673   2.618  12.095  0.2617  1.1866  0.1833
13873TIP3   OH263033   6.176   5.558   5.824  0.4066  0.4492 -0.3551
13873TIP3    H163034   6.270   5.552   5.840  0.2534  0.0664  0.4359
13873TIP3    H263035   6.136   5.558   5.911 -0.5013 -2.2942 -0.6776
13874TIP3   OH263036   2.289   3.713  13.253  0.2695  0.3452 -0.5291
13874TIP3    H163037   2.339   3.652  13.308  0.3099  0.3746 -0.5341
13874TIP3    H263038   2.274   3.664  13.172 -0.2721  0.0918 -0.2841
13875TIP3   OH263039   5.971   3.440   2.606 -0.0621 -0.2287 -0.6796
13875TIP3    H163040   6.028   3.517   2.606 -2.4288  1.6297 -0.2523
13875TIP3    H263041   5.930   3.439   2.692 -2.0283 -0.3825 -1.5498
13876TIP3   OH263042   0.743   1.682   2.999  0.0601  0.5843  0.3485
13876TIP3    H163043   0.669   1.694   2.940  2.0626 -2.4927 -3.2410
13876TIP3    H263044   0.819   1.714   2.950  1.8024 -1.7775  1.3089
13877TIP3   OH263045   4.922   0.542   5.877 -0.0404  0.2018 -0.8014
13877TIP3    H163046   4.873   0.530   5.795 -0.4482 -2.0277 -0.2997
13877TIP3    H263047   5.014   0.549   5.849 -0.2450  0.2630 -1.4916
13878TIP3   OH263048   6.522   6.279   1.922  0.4072 -0.0397  0.1873
13878TIP3    H163049   6.449   6.219   1.910  0.2940 -0.0958  1.0964
13878TIP3    H263050   6.497   6.333   1.997  0.7729  0.7412 -0.2414
13879TIP3   OH263051   0.064   2.994  16.872  0.1583  0.0078 -0.5412
13879TIP3    H163052   0.050   2.943  16.793 -0.4605 -0.3743 -0.1899
13879TIP3    H263053   0.152   3.032  16.861  1.3831 -2.4728 -0.0719
13880TIP3   OH263054   5.553   4.668   2.775  0.1313 -0.0988  0.6752
13880TIP3    H163055   5.617   4.631   2.714 -0.4557  1.3401 -0.8802
13880TIP3    H263056   5.517   4.744   2.730 -0.9782  0.5219  2.4800
13881TIP3   OH263057   2.703   4.708  12.954 -0.0095  0.4258  0.5627
13881TIP3    H163058   2.649   4.636  12.922  0.7939  0.2274 -0.4300
13881TIP3    H263059   2.773   4.715  12.889 -0.3079  2.3984  0.3943
13882TIP3   OH263060   1.915   3.486  15.534 -0.0052 -0.4889 -0.0690
13882TIP3    H163061   1.899   3.580  15.542  1.2175 -0.1384 -1.3182
13882TIP3    H263062   1.851   3.446  15.593 -0.1705  1.1407  0.9276
13883TIP3   OH263063   0.064   6.609  14.472  0.3357 -0.4193 -0.0235
13883TIP3    H163064   0.110   6.547  14.416 -2.5744 -2.2883 -0.5560
13883TIP3    H263065   0.079   6.577  14.561  1.6827  0.2319  0.0145
13884TIP3   OH263066   2.312   3.228  11.833 -0.4120 -0.4419  0.4075
13884TIP3    H163067   2.235   3.174  11.853 -0.0028 -1.6075 -0.9678
13884TIP3    H263068   2.387   3.169  11.846  0.0536 -0.2338 -1.0551
13885TIP3   OH263069   5.504   4.532  13.235  0.1191  0.1265 -0.2044
13885TIP3    H163070   5.457   4.456  13.201  0.8071 -0.7163  0.6801
13885TIP3    H263071   5.453   4.607  13.205 -1.8803 -0.7492  0.8255
13886TIP3   OH263072   1.296   6.175   3.959 -0.6699  0.3825 -0.2428
13886TIP3    H163073   1.240   6.100   3.940 -0.3072 -0.2480  1.0331
13886TIP3    H263074   1.317   6.166   4.052 -1.1884  2.4584  0.1186
13887TIP3   OH263075   6.109   3.339  13.790  0.4841 -0.0875  0.4062
13887TIP3    H163076   6.143   3.278  13.725 -1.6621 -0.1352 -0.7637
13887TIP3    H263077   6.079   3.414  13.739 -2.3335 -0.6204  1.1330
13888TIP3   OH263078   4.674   2.570  15.577  0.5992  0.1542  0.8289
13888TIP3    H163079   4.752   2.619  15.603  0.1858  1.0420  0.4440
13888TIP3    H263080   4.685   2.558  15.482 -0.0862  0.9757  0.6291
13889TIP3   OH263081   3.064   5.724   5.513  0.7428 -0.2860  0.3219
13889TIP3    H163082   3.062   5.799   5.453 -1.0005 -2.0833 -2.0852
13889TIP3    H263083   3.055   5.763   5.600 -0.7897  2.2825 -0.8595
13890TIP3   OH263084   5.887   2.246   4.109 -0.1168 -0.7833 -0.1887
13890TIP3    H163085   5.867   2.288   4.025 -0.5858  0.7191  0.6405
13890TIP3    H263086   5.807   2.199   4.132 -0.0207 -1.1192 -0.5283
13891TIP3   OH263087   4.114   5.427   3.744 -0.5585  0.0366  0.2176
13891TIP3    H163088   4.144   5.380   3.666 -0.9540 -0.5590  0.4115
13891TIP3    H263089   4.024   5.396   3.758 -0.1375 -0.7021  1.5255
13892TIP3   OH263090   0.107   2.124   5.117  0.3200 -0.1738 -0.0351
13892TIP3    H163091   0.159   2.203   5.100  1.6254 -1.0015 -0.0569
13892TIP3    H263092   0.067   2.140   5.202  2.5630 -0.4616  1.1382
13893TIP3   OH263093   3.419   5.763  15.970  0.6994  0.4781 -0.4126
13893TIP3    H163094   3.515   5.764  15.976  0.6689  1.9809  0.3321
13893TIP3    H263095   3.394   5.854  15.981 -0.8697  0.0010  0.1600
13894TIP3   OH263096   2.978   3.951  11.725 -0.7530  0.3532 -0.5198
13894TIP3    H163097   2.907   3.925  11.667  0.1264 -1.4823 -0.8438
13894TIP3    H263098   2.969   3.896  11.802 -0.1648  0.6849 -0.2036
13895TIP3   OH263099   0.331   2.619   1.267  0.2727 -0.6302 -0.5968
13895TIP3    H163100   0.334   2.706   1.226  1.1876 -0.4375 -0.1344
13895TIP3    H263101   0.315   2.559   1.194  1.2859 -0.2277 -1.1739
13896TIP3   OH263102   2.721   4.841   6.120 -0.2583 -0.5869  0.3003
13896TIP3    H163103   2.659   4.895   6.171 -0.5996 -0.6526 -0.0404
13896TIP3    H263104   2.770   4.905   6.068 -0.4291 -0.5752  0.1507
13897TIP3   OH263105   4.706   5.986  12.192  0.2383 -0.3344 -0.2956
13897TIP3    H163106   4.636   5.953  12.248  0.3631 -0.7936 -0.4019
13897TIP3    H263107   4.746   6.057  12.241  0.3802 -0.7673  0.2200
13898TIP3   OH263108   4.109   1.191  14.932  0.0948 -0.5477  0.2299
13898TIP3    H163109   4.069   1.143  14.859  1.2267 -1.3869  0.1449
13898TIP3    H263110   4.189   1.143  14.952 -0.3547 -0.5489  2.2703
13899TIP3   OH263111   5.644   1.197  12.948 -0.0605 -0.2012  0.5098
13899TIP3    H163112   5.585   1.132  12.985 -0.6308 -1.1043 -1.8429
13899TIP3    H263113   5.681   1.155  12.871  0.6715  1.7416 -0.2557
13900TIP3   OH263114   1.737   0.856  15.189 -0.0239  0.2416 -0.3539
13900TIP3    H163115   1.765   0.933  15.238 -0.3119  1.3453 -1.8573
13900TIP3    H263116   1.818   0.805  15.177  0.2688  0.5686  0.1693
13901TIP3   OH263117   5.957   6.044   2.213  0.4276 -0.1277 -0.0754
13901TIP3    H163118   6.047   6.069   2.195 -0.1689  2.3645  0.0547
13901TIP3    H263119   5.961   5.993   2.293  1.7448 -0.3948 -0.2931
13902TIP3   OH263120   0.307   2.004  16.734 -0.2728  0.2406  0.2524
13902TIP3    H163121   0.294   2.077  16.674  2.5719  1.0385  0.4382
13902TIP3    H263122   0.351   1.937  16.682  0.6792  0.2662  0.9822
13903TIP3   OH263123   5.539   2.389  10.613 -0.1307 -0.7099  0.1792
13903TIP3    H163124   5.604   2.432  10.558  0.7068 -1.9279  0.1790
13903TIP3    H263125   5.484   2.340  10.552  0.4291 -1.5795  0.3592
13904TIP3   OH263126   5.521   3.376  15.490 -0.3163  0.2361  0.0634
13904TIP3    H163127   5.589   3.353  15.553 -0.7746  0.5634  0.6951
13904TIP3    H263128   5.556   3.350  15.405 -0.9781 -3.3590  0.7145
13905TIP3   OH263129   1.330   6.690   3.040 -0.3308 -0.4330  0.1628
13905TIP3    H163130   1.414   6.689   3.085 -1.1969  0.6918  1.9319
13905TIP3    H263131   1.289   6.607   3.063 -0.2566 -0.3981  0.4166
13906TIP3   OH263132   1.125   1.811  13.802  0.3343  0.2083  0.0982
13906TIP3    H163133   1.180   1.831  13.878 -1.0323 -1.6119  1.6566
13906TIP3    H263134   1.042   1.782  13.839 -0.2843 -1.0755 -2.0973
13907TIP3   OH263135   0.958   6.456   4.060  0.4226 -0.1688 -0.4772
13907TIP3    H163136   0.917   6.370   4.049  0.3803 -0.2935  0.5824
13907TIP3    H263137   0.899   6.516   4.016 -0.6493 -0.4172  0.5780
13908TIP3   OH263138   4.455   0.275  14.682 -0.0956  0.4160  0.2975
13908TIP3    H163139   4.394   0.210  14.719  0.0108 -0.4835 -1.0103
13908TIP3    H263140   4.441   0.268  14.588  1.3198  0.9166  0.0365
13909TIP3   OH263141   3.757   5.748  11.397 -0.1036 -0.3223  0.2448
13909TIP3    H163142   3.803   5.703  11.469  0.3051  0.4669  0.4874
13909TIP3    H263143   3.750   5.682  11.328  1.4170 -0.4680  0.1937
13910TIP3   OH263144   3.745   5.548   3.054 -0.1667 -0.2851  0.2863
13910TIP3    H163145   3.756   5.607   3.128 -1.0849  3.0137 -1.9781
13910TIP3    H263146   3.794   5.589   2.983 -1.2571 -2.0008 -1.5547
13911TIP3   OH263147   6.027   3.118   3.811 -0.9456 -0.8204 -0.4945
13911TIP3    H163148   6.036   3.126   3.716  0.8239  0.9789 -0.2497
13911TIP3    H263149   6.108   3.076   3.840 -0.4816  0.5649  0.3631
13912TIP3   OH263150   5.142   3.055  11.230  0.0018 -0.3424 -0.5121
13912TIP3    H163151   5.177   2.992  11.167  0.3118 -1.0772  0.3737
13912TIP3    H263152   5.213   3.119  11.243  0.4674 -0.9745  0.1286
13913TIP3   OH263153   6.745   5.826  11.975  0.0985  0.1965  0.0588
13913TIP3    H163154   6.656   5.806  12.002  0.0485 -0.4984 -0.6021
13913TIP3    H263155   6.738   5.848  11.883  0.6900 -0.5028 -0.1656
13914TIP3   OH263156   6.324   0.478  16.073 -0.1032 -0.2339  0.0063
13914TIP3    H163157   6.316   0.388  16.042  0.1084  0.6019 -2.7888
13914TIP3    H263158   6.397   0.514  16.023 -2.3078  2.3968 -1.6476
13915TIP3   OH263159   6.114   3.568   1.628 -0.3359 -0.2526  0.4894
13915TIP3    H163160   6.106   3.654   1.669 -3.0667  0.3810 -1.1161
13915TIP3    H263161   6.181   3.579   1.561 -0.2216  0.4457  0.7082
13916TIP3   OH263162   1.491   0.883   6.230  0.6260 -0.2914 -0.2499
13916TIP3    H163163   1.401   0.851   6.230  0.0957  1.1154  0.1729
13916TIP3    H263164   1.482   0.977   6.243  2.1725 -0.1511 -0.0847
13917TIP3   OH263165   1.571   0.332   0.416 -0.6406 -0.1010  0.6228
13917TIP3    H163166   1.542   0.401   0.474 -2.1730 -1.0074  0.9703
13917TIP3    H263167   1.498   0.318   0.355  1.2807  1.5806 -2.3189
13918TIP3   OH263168   4.370   0.497   5.134 -0.0274 -0.1763  0.2467
13918TIP3    H163169   4.288   0.495   5.085  0.0233  0.2638  0.1410
13918TIP3    H263170   4.398   0.406   5.138 -1.0748 -0.4830  1.2274
13919TIP3   OH263171   2.116   0.767  11.586  0.5024 -0.5866 -0.1417
13919TIP3    H163172   2.105   0.749  11.492  0.6700  1.9839 -0.7270
13919TIP3    H263173   2.031   0.746  11.625  0.1461 -0.8154 -1.0214
13920TIP3   OH263174   0.173   3.428  11.436  0.2185 -0.7004  0.3263
13920TIP3    H163175   0.139   3.339  11.426  0.3603 -0.5381 -2.1245
13920TIP3    H263176   0.096   3.483  11.445 -0.0627 -0.7506 -1.4449
13921TIP3   OH263177   0.557   5.410   0.727 -0.0099  0.4665  0.7963
13921TIP3    H163178   0.529   5.494   0.689  1.0893  0.4350 -0.1520
13921TIP3    H263179   0.476   5.359   0.734 -0.4656  1.0166 -0.1651
13922TIP3   OH263180   0.751   2.683  14.466 -0.2926  0.1360 -0.3995
13922TIP3    H163181   0.757   2.626  14.542  2.0129 -1.5296 -1.7111
13922TIP3    H263182   0.818   2.749  14.479 -0.2600  0.1723 -0.7370
13923TIP3   OH263183   5.239   0.954  10.763 -0.1607 -0.3884 -0.3984
13923TIP3    H163184   5.154   0.918  10.787  1.0773 -1.9398  2.1527
13923TIP3    H263185   5.233   1.047  10.783 -1.0978 -0.5915  0.3371
13924TIP3   OH263186   3.527   4.028  13.775  0.4691 -0.0323  0.2925
13924TIP3    H163187   3.501   3.940  13.803  0.2365 -0.1575 -0.2932
13924TIP3    H263188   3.531   4.079  13.856  0.2476 -0.4868  0.5968
13925TIP3   OH263189   2.315   1.694  11.742  0.1361 -0.1244  0.5511
13925TIP3    H163190   2.299   1.611  11.698  0.6085  1.0219 -1.9440
13925TIP3    H263191   2.397   1.726  11.706 -0.2520  1.6435  1.0935
13926TIP3   OH263192   3.692   0.072  15.185  0.0641 -0.3996 -0.0143
13926TIP3    H163193   3.728   0.065  15.274  0.4613  1.1425 -0.0110
13926TIP3    H263194   3.661   0.163  15.180  0.1600 -0.4314 -1.4951
13927TIP3   OH263195   3.795   1.013   3.522 -0.1585 -0.4973  0.1608
13927TIP3    H163196   3.842   0.974   3.448  0.7964  0.7456  0.0657
13927TIP3    H263197   3.797   0.946   3.590 -0.1905 -1.2919 -0.6022
13928TIP3   OH263198   3.539   5.290   3.795 -0.2473 -0.6481 -0.0676
13928TIP3    H163199   3.534   5.197   3.817  0.1587 -0.7031 -0.2041
13928TIP3    H263200   3.583   5.330   3.870 -0.1513 -0.6106 -0.1446
13929TIP3   OH263201   2.696   0.724   1.978  0.2354  0.0192  0.0264
13929TIP3    H163202   2.780   0.713   1.934  0.2505 -0.5156  0.1883
13929TIP3    H263203   2.665   0.810   1.950  1.5758  0.9275  1.2154
13930TIP3   OH263204   2.077   0.463   2.769  0.1065 -0.2838 -0.5513
13930TIP3    H163205   2.146   0.429   2.825  0.1505  0.6475 -0.0220
13930TIP3    H263206   2.051   0.545   2.810  1.0796  1.1279 -2.6092
13931TIP3   OH263207   3.256   0.967   2.477 -0.5816 -0.3719  0.6545
13931TIP3    H163208   3.265   1.062   2.474 -3.9303  0.0714 -2.3790
13931TIP3    H263209   3.327   0.934   2.422  0.0974  0.4105  1.0389
13932TIP3   OH263210   6.536   4.841  16.043  0.1793  0.2577 -0.6742
13932TIP3    H163211   6.474   4.913  16.029  1.6166  1.7716  0.2872
13932TIP3    H263212   6.573   4.824  15.957 -0.2198  0.6485 -0.9298
13933TIP3   OH263213   5.104   6.052  13.210 -0.1916 -0.2664  0.0707
13933TIP3    H163214   5.074   6.142  13.194 -2.3312 -1.1401 -1.2713
13933TIP3    H263215   5.039   6.017  13.271 -0.5148 -1.4707 -0.9372
13934TIP3   OH263216   1.321   0.629   1.907  0.0648 -0.2726  0.0206
13934TIP3    H163217   1.288   0.553   1.954 -2.5054  0.7809  0.1042
13934TIP3    H263218   1.401   0.654   1.953 -0.1774 -1.6880  1.2731
13935TIP3   OH263219   2.392   1.306   2.036  0.3867 -0.3037 -0.6081
13935TIP3    H163220   2.368   1.288   2.126  0.3908  0.4030 -0.4652
13935TIP3    H263221   2.374   1.224   1.990  1.3731 -1.0127  0.2219
13936TIP3   OH263222   0.107   6.197   1.494 -0.0445  0.3701 -0.3439
13936TIP3    H163223   0.142   6.241   1.572 -1.9439  0.5295  0.4748
13936TIP3    H263224   0.108   6.104   1.517 -0.4769  0.4056 -0.1736
13937TIP3   OH263225   1.660   4.651  11.677 -0.4134  0.1212  0.2155
13937TIP3    H163226   1.691   4.561  11.669  0.1222  0.3421 -0.2959
13937TIP3    H263227   1.710   4.688  11.749  0.0942  0.3009 -0.2235
13938TIP3   OH263228   5.213   0.105   2.307 -0.1477 -0.0413  0.0396
13938TIP3    H163229   5.197   0.058   2.225  0.3802  1.4526 -0.9556
13938TIP3    H263230   5.220   0.036   2.373 -1.5954 -1.2383 -0.9746
13939TIP3   OH263231   1.350   1.210   0.858 -0.0961  0.5984  0.4574
13939TIP3    H163232   1.442   1.225   0.836 -0.6986  2.7969 -0.9366
13939TIP3    H263233   1.349   1.200   0.953  1.6549 -0.2731  0.4237
13940TIP3   OH263234   2.831   1.873  13.079 -0.1359  0.6327 -0.2280
13940TIP3    H163235   2.848   1.962  13.046 -0.6242  0.3445 -1.2791
13940TIP3    H263236   2.893   1.818  13.032  0.4152  0.4456  0.6880
13941TIP3   OH263237   5.995   5.671  16.768 -0.2622  0.2910  0.3387
13941TIP3    H163238   5.902   5.665  16.791 -0.9083  2.0837 -1.4003
13941TIP3    H263239   6.030   5.737  16.828 -0.0288 -0.5658  1.1607
13942TIP3   OH263240   5.936   2.980  15.009 -0.5613 -0.6220 -0.0038
13942TIP3    H163241   5.873   2.916  15.042 -0.5170 -1.6549 -1.8027
13942TIP3    H263242   5.932   3.053  15.071 -1.6554 -1.7653  1.3020
13943TIP3   OH263243   1.003   0.340   4.667  0.8436  0.5538 -0.7714
13943TIP3    H163244   0.966   0.426   4.645 -1.3804  0.3799  1.8346
13943TIP3    H263245   1.085   0.360   4.711 -0.4730  1.5525  1.3909
13944TIP3   OH263246   4.669   0.000  13.571  0.1255  0.6898  0.0370
13944TIP3    H163247   4.645  -0.087  13.603 -2.3009  1.4934  0.6130
13944TIP3    H263248   4.657  -0.005  13.477 -2.7922  1.0648  0.2847
13945TIP3   OH263249   2.514   5.930   0.329 -0.0235  0.1413  0.8690
13945TIP3    H163250   2.534   5.837   0.328  0.9064  0.3125 -1.1187
13945TIP3    H263251   2.599   5.973   0.341 -0.0868  0.7587 -0.7108
13946TIP3   OH263252   2.645   5.237   4.918  0.0003 -0.5594 -0.2496
13946TIP3    H163253   2.724   5.231   4.971 -1.9490 -1.6025  2.7428
13946TIP3    H263254   2.654   5.320   4.871  2.1714  0.0515  1.1338
13947TIP3   OH263255   3.760   4.550   5.572  0.1484 -0.5867 -0.1363
13947TIP3    H163256   3.747   4.608   5.647 -3.1108 -0.4176 -0.6858
13947TIP3    H263257   3.741   4.462   5.605 -1.3033 -0.5122 -0.6946
13948TIP3   OH263258   5.263   6.316  10.822  0.6839  0.4781  0.6138
13948TIP3    H163259   5.271   6.255  10.749  1.3369  1.3523 -0.0728
13948TIP3    H263260   5.295   6.267  10.898  1.7369  0.1301 -0.0250
13949TIP3   OH263261   6.693   3.848  16.186  0.2684 -0.8049  0.8268
13949TIP3    H163262   6.611   3.838  16.139  0.6858 -0.1090 -0.0754
13949TIP3    H263263   6.726   3.758  16.196 -1.0158 -1.1924  2.0313
13950TIP3   OH263264   6.721   3.832   1.838 -0.0898 -0.2973  0.2270
13950TIP3    H163265   6.786   3.895   1.868  0.2274  0.2297 -1.4668
13950TIP3    H263266   6.640   3.882   1.833 -0.2037 -0.4554  0.4707
13951TIP3   OH263267   3.319   1.031  13.387  0.9060 -0.0050 -0.5065
13951TIP3    H163268   3.287   0.941  13.378 -0.9132  0.6039 -0.5490
13951TIP3    H263269   3.399   1.023  13.439  0.6599 -1.6273 -0.3227
13952TIP3   OH263270   1.113   3.881  11.766  0.4870 -0.0294  0.2054
13952TIP3    H163271   1.141   3.895  11.676  3.4567 -0.8773  0.8863
13952TIP3    H263272   1.116   3.786  11.778 -0.1757  0.0434  1.1116
13953TIP3   OH263273   2.262   5.547   1.053 -0.0388 -0.6441 -0.2127
13953TIP3    H163274   2.260   5.533   0.958  0.5432 -0.5062 -0.2457
13953TIP3    H263275   2.340   5.501   1.083  0.3756  0.2078  0.0549
13954TIP3   OH263276   2.764   1.788  12.353 -0.5340  0.3432  0.3124
13954TIP3    H163277   2.719   1.731  12.291 -1.0063  2.9038 -1.8896
13954TIP3    H263278   2.850   1.802  12.315  0.3907 -0.5925  1.9703
13955TIP3   OH263279   1.086   6.479  15.998 -0.0859 -0.0667  0.4848
13955TIP3    H163280   1.044   6.394  16.011  1.3816 -0.7426  1.0847
13955TIP3    H263281   1.158   6.479  16.061  1.4761  0.5800 -1.2155
13956TIP3   OH263282   3.650   0.651   3.026 -0.0387 -0.4110  0.0004
13956TIP3    H163283   3.701   0.693   2.957 -2.5601  1.7336 -0.7387
13956TIP3    H263284   3.565   0.635   2.986 -1.2159 -0.1836  2.2681
13957TIP3   OH263285   5.757   0.131  15.911 -0.4163 -0.2189  0.4178
13957TIP3    H163286   5.724   0.052  15.955 -1.3425  0.3903  0.8492
13957TIP3    H263287   5.683   0.192  15.913  0.1596  0.5191 -0.2708
13958TIP3   OH263288   5.755   1.269  14.966 -0.1283  0.6205  0.5086
13958TIP3    H163289   5.660   1.275  14.973 -0.4211 -0.3841 -1.7670
13958TIP3    H263290   5.778   1.327  14.894  0.6800 -0.7136 -0.3655
13959TIP3   OH263291   4.336   1.819   5.148  0.2455  0.0730 -0.1225
13959TIP3    H163292   4.427   1.820   5.120  0.6387 -1.0173  1.0059
13959TIP3    H263293   4.332   1.884   5.218  1.1899 -2.5008  2.5677
13960TIP3   OH263294   3.222   2.139  13.701 -0.1112  0.1080  0.8894
13960TIP3    H163295   3.136   2.097  13.710  0.2891 -0.6500  1.2365
13960TIP3    H263296   3.253   2.112  13.615  0.5177 -1.0247  1.4576
13961TIP3   OH263297   6.442   2.456   0.790 -0.4327  0.2530 -0.4674
13961TIP3    H163298   6.411   2.365   0.793 -1.1333  0.4957  1.1793
13961TIP3    H263299   6.368   2.507   0.824  0.4340  1.2754 -0.0649
13962TIP3   OH263300   5.577   2.318   4.008  0.1484 -0.6308 -0.5157
13962TIP3    H163301   5.582   2.271   3.925  2.3027 -2.0749  0.3606
13962TIP3    H263302   5.576   2.250   4.075  0.0001  0.5247  0.7036
13963TIP3   OH263303   2.205   6.758   5.016  0.2783  0.5348 -0.4039
13963TIP3    H163304   2.245   6.671   5.011 -1.8470 -0.4941 -0.6590
13963TIP3    H263305   2.185   6.770   5.108 -1.5152 -0.2944 -0.6536
13964TIP3   OH263306   3.972   6.707   3.138  0.4449 -0.4548 -0.1676
13964TIP3    H163307   4.044   6.770   3.144 -0.5675  0.8087 -1.0049
13964TIP3    H263308   3.951   6.687   3.229 -0.6242  2.0937  0.2204
13965TIP3   OH263309   4.590   5.333  16.957  0.4524 -0.2102 -0.4187
13965TIP3    H163310   4.685   5.328  16.970  0.6655 -0.9799 -2.0006
13965TIP3    H263311   4.563   5.412  17.003  1.8810  0.0583 -0.0133
13966TIP3   OH263312   4.625   3.125  15.235  0.1036 -0.2206 -0.3508
13966TIP3    H163313   4.605   3.125  15.141 -0.0383 -1.1107 -0.3353
13966TIP3    H263314   4.588   3.206  15.268  0.4576  0.2717 -1.1275
13967TIP3   OH263315   0.038   2.639   2.620 -0.2216  0.0761 -0.1140
13967TIP3    H163316   0.021   2.611   2.710  2.0911  0.6530  0.5728
13967TIP3    H263317   0.073   2.560   2.578  1.5224  0.5298  0.3942
13968TIP3   OH263318   2.210   6.070   3.410 -0.2153 -0.1296 -0.2393
13968TIP3    H163319   2.155   6.142   3.441  0.0067  0.1432 -0.4675
13968TIP3    H263320   2.254   6.106   3.332 -0.2852 -0.5922 -0.4925
13969TIP3   OH263321   4.836   4.082  14.320  0.3798 -0.2170 -0.1963
13969TIP3    H163322   4.915   4.029  14.319 -0.5564 -2.4026  5.4405
13969TIP3    H263323   4.860   4.160  14.369 -0.6480 -0.2631  0.4032
13970TIP3   OH263324   3.837   2.539   3.916 -0.3993 -0.0879 -0.1367
13970TIP3    H163325   3.872   2.601   3.980  0.3011 -0.5785 -0.0282
13970TIP3    H263326   3.801   2.468   3.969 -0.6833 -0.0423 -0.2695
13971TIP3   OH263327   5.491   5.585   3.588 -0.2432  0.1938 -0.0074
13971TIP3    H163328   5.538   5.516   3.635  0.8816 -0.3151 -1.7466
13971TIP3    H263329   5.418   5.540   3.546 -0.5815  0.4166  0.3470
13972TIP3   OH263330   2.098   1.019  11.322  0.2802 -0.2604  0.7452
13972TIP3    H163331   2.110   0.931  11.356 -0.8947 -0.3937  0.8591
13972TIP3    H263332   2.058   1.007  11.236  1.1080  0.1439  0.2890
13973TIP3   OH263333   3.048   4.636  15.730 -0.3982 -0.5218  0.0723
13973TIP3    H163334   3.089   4.634  15.644  0.9998  1.3965  0.6123
13973TIP3    H263335   2.989   4.561  15.731  1.8756 -2.4526 -1.3721
13974TIP3   OH263336   6.493   3.728  16.415 -0.5679  0.2727 -0.1049
13974TIP3    H163337   6.526   3.779  16.341  1.1566 -0.0186  0.4314
13974TIP3    H263338   6.422   3.675  16.378  0.2659  0.1370 -1.5498
13975TIP3   OH263339   5.930   3.264  16.536 -0.1051 -0.3852  0.1695
13975TIP3    H163340   5.983   3.279  16.614 -0.7310 -0.4804  0.6173
13975TIP3    H263341   5.840   3.281  16.564 -0.3336 -0.3915 -0.5372
13976TIP3   OH263342   0.334   6.351   4.406 -1.1017  0.3171  0.3166
13976TIP3    H163343   0.286   6.415   4.460 -1.4887  1.3056 -1.1531
13976TIP3    H263344   0.272   6.278   4.395 -1.2733  0.4123  0.6345
13977TIP3   OH263345   0.470   0.584   4.451 -0.5506 -0.0613  0.9954
13977TIP3    H163346   0.420   0.504   4.435 -0.1322 -0.0765 -0.4014
13977TIP3    H263347   0.509   0.605   4.366  1.6077  0.1041  1.9640
13978TIP3   OH263348   3.587   5.336  16.944 -0.4157  0.2266 -0.5063
13978TIP3    H163349   3.579   5.327  17.039  0.2479  1.2751 -0.3382
13978TIP3    H263350   3.650   5.269  16.919  1.2673  1.4962  0.1450
13979TIP3   OH263351   3.114   1.365  11.303 -0.6856 -0.3946 -0.0666
13979TIP3    H163352   3.070   1.359  11.219  0.3750 -2.4860 -0.5455
13979TIP3    H263353   3.051   1.407  11.361 -1.4257  1.1361 -1.8715
13980TIP3   OH263354   5.623   5.792  13.460 -0.0274 -0.8338 -0.4443
13980TIP3    H163355   5.682   5.783  13.535 -1.2701 -1.5232  0.4866
13980TIP3    H263356   5.545   5.834  13.495  0.8667  2.7603 -2.2276
13981TIP3   OH263357   0.159   3.314  16.918 -0.1026  0.3733  0.1846
13981TIP3    H163358   0.162   3.261  16.998  0.6502  0.4554  0.2140
13981TIP3    H263359   0.150   3.404  16.948 -2.0502  0.2502  0.1262
13982TIP3   OH263360   0.936   2.497   0.475  0.4313 -0.4750 -0.3078
13982TIP3    H163361   1.013   2.502   0.532 -0.6440 -1.0396  1.2762
13982TIP3    H263362   0.964   2.441   0.402  1.2315 -1.5125  0.7512
13983TIP3   OH263363   0.697   3.413  11.846  0.3354  0.8072  0.0804
13983TIP3    H163364   0.694   3.362  11.928 -0.0165 -1.0175 -0.9973
13983TIP3    H263365   0.790   3.414  11.822  0.1278 -2.0009 -1.3623
13984TIP3   OH263366   3.993   4.351   3.429 -0.3287  0.1081 -0.0619
13984TIP3    H163367   3.931   4.423   3.418  0.2680  0.2700 -3.2471
13984TIP3    H263368   3.938   4.272   3.432 -0.8384  0.2201 -3.1146
13985TIP3   OH263369   5.008   1.953  14.477  0.4064  0.5862  0.8301
13985TIP3    H163370   5.017   1.899  14.555  0.1122 -0.6398  0.0422
13985TIP3    H263371   4.939   1.911  14.426  1.2078  0.8261 -0.5150
13986TIP3   OH263372   1.610   2.234  13.930 -0.1534  0.4243 -0.1337
13986TIP3    H163373   1.590   2.142  13.909 -1.5171  1.0643 -1.9653
13986TIP3    H263374   1.530   2.281  13.907  0.9974  2.2590 -0.6001
13987TIP3   OH263375   4.506   0.571   0.388  0.1702 -0.4695  0.4829
13987TIP3    H163376   4.431   0.621   0.355  0.6862  0.6197  0.9055
13987TIP3    H263377   4.568   0.638   0.418  1.5077 -1.3461 -0.2611
13988TIP3   OH263378   1.953   5.673   1.895 -0.9109 -0.2199  0.0154
13988TIP3    H163379   1.930   5.766   1.902 -1.6079 -0.4555  1.1247
13988TIP3    H263380   1.870   5.629   1.874 -0.7919 -0.6922  0.5054
13989TIP3   OH263381   4.956   2.247  13.616 -0.0894 -0.3200 -0.0432
13989TIP3    H163382   4.889   2.303  13.578 -0.8070 -1.4982 -0.5679
13989TIP3    H263383   5.005   2.212  13.541 -0.2706 -1.1342  0.2042
13990TIP3   OH263384   2.026   1.238   4.239 -0.3748  0.1786  0.1238
13990TIP3    H163385   1.962   1.185   4.192  0.0218 -0.6893  0.5425
13990TIP3    H263386   1.989   1.326   4.239 -0.9593 -0.0547 -0.7419
13991TIP3   OH263387   2.245   2.374   6.071 -0.1533  0.4742  0.6309
13991TIP3    H163388   2.152   2.369   6.048 -0.4395 -1.3883  1.9413
13991TIP3    H263389   2.263   2.468   6.079 -2.1484  0.8553  1.1649
13992TIP3   OH263390   3.739   0.575   4.841  0.3754 -0.7194  0.2649
13992TIP3    H163391   3.775   0.530   4.763  1.7784 -0.0479  0.4903
13992TIP3    H263392   3.658   0.528   4.860  0.2782 -1.2507 -1.2816
13993TIP3   OH263393   4.492   4.980  12.788 -0.0590 -0.3913 -0.4895
13993TIP3    H163394   4.519   5.043  12.722 -1.0930  1.3596  0.6750
13993TIP3    H263395   4.570   4.965  12.841 -0.0704  0.8766 -0.0656
13994TIP3   OH263396   3.326   5.457   2.446 -0.2500  0.1342 -0.7793
13994TIP3    H163397   3.378   5.378   2.435 -1.5620 -1.0851  1.2798
13994TIP3    H263398   3.290   5.474   2.359  1.7692 -0.2241 -1.7477
13995TIP3   OH263399   6.800   0.405  14.212 -0.1124  0.1248 -0.4079
13995TIP3    H163400   6.866   0.474  14.198  1.3650 -1.2363 -0.3863
13995TIP3    H263401   6.761   0.391  14.125 -0.0424  0.6038 -0.5196
13996TIP3   OH263402   4.323   2.345   0.582 -0.8362  0.4025 -0.1034
13996TIP3    H163403   4.286   2.276   0.528  0.1024  0.3003 -0.6388
13996TIP3    H263404   4.417   2.329   0.580 -0.8291 -0.3612  2.5971
13997TIP3   OH263405   4.703   6.020  11.477  0.2199  0.5868 -0.6437
13997TIP3    H163406   4.766   6.020  11.405 -0.0338 -2.9577 -1.0313
13997TIP3    H263407   4.618   6.034  11.436  0.3678  2.0224 -0.5242
13998TIP3   OH263408   0.018   6.368   5.086  0.1294  0.5052 -0.4646
13998TIP3    H163409   0.060   6.284   5.068  1.2530  0.9869 -0.1964
13998TIP3    H263410  -0.076   6.348   5.088  0.3658 -0.7060 -0.5713
13999TIP3   OH263411   6.067   0.013  12.593 -0.1773 -0.4810  0.4461
13999TIP3    H163412   6.161   0.025  12.577 -0.1676 -1.6844 -0.5603
13999TIP3    H263413   6.059   0.008  12.688  0.8759 -1.0153  0.5206
14000TIP3   OH263414   3.125   2.150   6.070 -0.3662  0.3959 -0.2594
14000TIP3    H163415   3.169   2.107   6.143 -1.7945  0.2471  0.5514
14000TIP3    H263416   3.176   2.230   6.056  0.3881  0.0421  0.3793
14001TIP3   OH263417   4.190   3.296   5.835  0.1304 -0.2115 -0.1160
14001TIP3    H163418   4.281   3.265   5.840  0.1474  0.0109  1.8665
14001TIP3    H263419   4.173   3.334   5.922 -1.0542  2.0496 -1.2484
14002TIP3   OH263420   1.618   2.260   6.364 -0.2358  0.1767  0.2554
14002TIP3    H163421   1.582   2.202   6.431 -0.5713  0.8039  0.6248
14002TIP3    H263422   1.591   2.348   6.391 -0.9145  0.3840 -1.0434
14003TIP3   OH263423   4.395   1.681   3.763 -0.5876  0.3721 -0.5677
14003TIP3    H163424   4.360   1.770   3.753 -0.3423  0.4480 -0.7474
14003TIP3    H263425   4.390   1.644   3.676  0.3278  0.5842 -0.7204
14004TIP3   OH263426   5.577   0.615  15.328 -0.0632 -0.3685 -0.1270
14004TIP3    H163427   5.562   0.694  15.277  0.3255 -0.8590 -1.0273
14004TIP3    H263428   5.669   0.594  15.313 -0.2344 -1.1449 -0.1288
14005TIP3   OH263429   6.540   3.335  16.180  0.5477 -0.3631 -0.1605
14005TIP3    H163430   6.462   3.282  16.163 -0.6314  1.6615 -1.5324
14005TIP3    H263431   6.506   3.422  16.200  2.4049 -0.0675  2.1420
14006TIP3   OH263432   5.648   1.515   5.069 -0.4954 -0.1300 -0.3143
14006TIP3    H163433   5.637   1.602   5.108 -3.6017 -0.0567 -1.1232
14006TIP3    H263434   5.641   1.454   5.142  2.4840  0.2135  0.3824
14007TIP3   OH263435   6.780   2.950   4.257  0.0832 -0.9656  0.0834
14007TIP3    H163436   6.759   2.862   4.228  0.6689 -1.4389  1.0259
14007TIP3    H263437   6.868   2.967   4.222 -0.3121 -0.4776 -0.6852
14008TIP3   OH263438   1.158   2.490  14.786  0.4903 -0.0047  0.0401
14008TIP3    H163439   1.133   2.400  14.767 -1.1884  0.8538 -2.2273
14008TIP3    H263440   1.246   2.499  14.748  0.0027 -0.2824 -1.2198
14009TIP3   OH263441   6.185   4.958   3.729  0.1919  0.0869  0.7731
14009TIP3    H163442   6.275   4.957   3.762  0.2892  2.5842  0.7796
14009TIP3    H263443   6.193   4.933   3.637  1.2222  2.2925  0.2081
14010TIP3   OH263444   4.569   5.123   5.877  0.3024 -0.1083 -0.2319
14010TIP3    H163445   4.552   5.203   5.927 -0.5826  0.1109 -0.8701
14010TIP3    H263446   4.529   5.053   5.928 -0.9387  0.1665 -0.8097
14011TIP3   OH263447   0.585   4.111  16.216 -0.7585 -0.0107 -0.2437
14011TIP3    H163448   0.613   4.150  16.133 -0.6664 -0.7751 -0.5866
14011TIP3    H263449   0.663   4.110  16.271 -1.0296  1.3231  0.1937
14012TIP3   OH263450   1.034   5.120   2.556 -0.8789  0.0148  0.3097
14012TIP3    H163451   1.096   5.047   2.549 -0.7358  0.2148 -0.6844
14012TIP3    H263452   1.070   5.188   2.498 -2.0723  0.0919 -0.3766
14013TIP3   OH263453   0.461   6.729  13.038  0.0114 -0.0648  0.5593
14013TIP3    H163454   0.540   6.781  13.055  3.2420 -3.6440 -1.7989
14013TIP3    H263455   0.478   6.646  13.081 -0.6545 -2.2239 -2.9742
14014TIP3   OH263456   4.341   6.238  16.482  0.1500  0.2857 -0.2253
14014TIP3    H163457   4.430   6.230  16.518  0.2122  0.0758 -0.4223
14014TIP3    H263458   4.340   6.178  16.408  0.6172  2.1089 -1.7747
14015TIP3   OH263459   5.487   6.802  12.837  0.0573 -0.1220  0.5854
14015TIP3    H163460   5.448   6.728  12.884  2.1884 -1.2120  0.7595
14015TIP3    H263461   5.555   6.763  12.782 -0.1608  1.5073 -0.9252
14016TIP3   OH263462   0.402   1.340  13.497  0.1166 -0.0464 -0.1810
14016TIP3    H163463   0.495   1.318  13.507  0.1142  0.4749  1.2112
14016TIP3    H263464   0.379   1.307  13.410  0.7224 -3.2304  0.7574
14017TIP3   OH263465   6.047   6.663  12.380 -0.0634 -0.4364  0.5563
14017TIP3    H163466   6.128   6.614  12.364 -0.3520 -0.8900  0.4572
14017TIP3    H263467   6.064   6.711  12.461 -0.0071 -1.2304  1.0296
14018TIP3   OH263468   4.925   2.068  16.586  0.5231 -0.6034  0.2200
14018TIP3    H163469   4.960   2.046  16.500  1.4310 -1.4857  0.7923
14018TIP3    H263470   4.854   2.005  16.600  1.0327 -1.1244  0.5200
14019TIP3   OH263471   0.537   4.984   3.752 -0.0752  0.2671  0.3581
14019TIP3    H163472   0.542   5.033   3.670 -1.0602 -0.1303  0.0528
14019TIP3    H263473   0.559   5.049   3.820 -2.1036  1.3778  0.0407
14020TIP3   OH263474   0.034   3.787   2.661 -0.6558  0.2141 -0.2008
14020TIP3    H163475   0.125   3.813   2.646 -0.3632 -0.7602 -0.1913
14020TIP3    H263476   0.033   3.693   2.647 -1.6127  0.1646  0.0886
14021TIP3   OH263477   0.081   5.137   3.761 -0.6688 -0.5756  0.1350
14021TIP3    H163478   0.070   5.220   3.808 -0.2712  0.1712 -1.0359
14021TIP3    H263479   0.062   5.159   3.669 -1.8236 -2.0842 -0.0204
14022TIP3   OH263480   3.649   0.599  15.575 -0.6132  0.3959  0.2248
14022TIP3    H163481   3.575   0.616  15.632  0.4144  2.1932  1.1367
14022TIP3    H263482   3.716   0.562  15.632 -0.3891 -0.0699 -0.3257
14023TIP3   OH263483   6.660   3.761  14.857 -0.6935  0.1574  0.7568
14023TIP3    H163484   6.580   3.745  14.808 -0.3823  0.3645  0.1727
14023TIP3    H263485   6.630   3.791  14.943 -1.2931 -2.9017  1.7078
14024TIP3   OH263486   1.230   5.639   0.992  0.2925  0.0498  0.3362
14024TIP3    H163487   1.239   5.734   1.000  0.9508 -0.0511  0.8248
14024TIP3    H263488   1.316   5.609   0.962  0.3142 -0.4684  0.9094
14025TIP3   OH263489   4.360   6.478   2.623 -0.6440 -0.1624  0.5660
14025TIP3    H163490   4.440   6.530   2.632 -0.0903 -0.4431 -2.1263
14025TIP3    H263491   4.347   6.441   2.711  0.9843  1.5336  1.6159
14026TIP3   OH263492   6.543   2.591  10.890 -0.0704  0.0356  0.2788
14026TIP3    H163493   6.490   2.638  10.826  1.0764 -0.2162 -0.8981
14026TIP3    H263494   6.480   2.544  10.944 -1.1132  1.1302  0.0375
14027TIP3   OH263495   3.047   2.912   6.389 -0.1272 -0.5722 -1.0383
14027TIP3    H163496   3.036   2.818   6.393 -0.6920 -0.4642  1.9846
14027TIP3    H263497   3.110   2.926   6.318  0.7040 -3.2742 -0.9166
14028TIP3   OH263498   1.121   2.181  14.788 -0.8252 -0.2705 -0.1842
14028TIP3    H163499   1.039   2.219  14.819 -0.7696  1.8768 -2.3461
14028TIP3    H263500   1.095   2.097  14.749 -1.5486 -0.8252  1.3997
14029TIP3   OH263501   2.525   2.415   1.842  0.2128  0.8991 -0.5076
14029TIP3    H163502   2.483   2.400   1.757 -0.3054  0.5538 -0.2034
14029TIP3    H263503   2.482   2.493   1.877 -1.2525 -0.2552  0.4305
14030TIP3   OH263504   2.672   2.428   1.205 -0.8720  0.2529  0.3940
14030TIP3    H163505   2.670   2.399   1.297 -0.1029 -0.7474  0.1152
14030TIP3    H263506   2.671   2.347   1.155  1.2148  0.6890 -0.4337
14031TIP3   OH263507   0.596   0.309  11.535 -0.0159 -0.1835 -0.0096
14031TIP3    H163508   0.669   0.250  11.556  0.5576  0.8586  1.0365
14031TIP3    H263509   0.520   0.266  11.576  0.3782 -0.2582  0.6687
14032TIP3   OH263510   1.998   1.445  11.258  0.5124 -0.1283  0.3463
14032TIP3    H163511   1.955   1.365  11.229 -0.7394  0.9314 -0.8244
14032TIP3    H263512   2.053   1.417  11.331  1.5350 -2.3781 -1.1764
14033TIP3   OH263513   6.447   6.330  15.917  0.3998 -0.5553 -0.1426
14033TIP3    H163514   6.361   6.372  15.907  1.2799  1.3936 -0.1258
14033TIP3    H263515   6.454   6.310  16.010  0.0840 -0.4167 -0.0881
14034TIP3   OH263516   1.902   3.535   5.006  0.3295 -0.2993  0.1324
14034TIP3    H163517   1.901   3.481   4.927  0.9021 -0.1450  0.0182
14034TIP3    H263518   1.983   3.586   5.000  0.2880 -0.1530  0.7277
14035TIP3   OH263519   5.510   4.381  16.605 -0.5034  0.5070  0.7430
14035TIP3    H163520   5.493   4.474  16.589  1.8154  0.8902  0.0640
14035TIP3    H263521   5.519   4.375  16.700  1.0530  1.3814  0.6938
14036TIP3   OH263522   2.849   3.452  14.785  0.6102  0.1142  0.5627
14036TIP3    H163523   2.798   3.401  14.848 -0.5745  0.3864 -0.1562
14036TIP3    H263524   2.807   3.537  14.783  0.9546  0.2767 -0.2103
14037TIP3   OH263525   2.309   5.355  13.254  0.0991 -0.5050 -0.2680
14037TIP3    H163526   2.272   5.354  13.165  2.1622  0.1450 -1.1868
14037TIP3    H263527   2.234   5.371  13.311 -1.2081 -0.4810 -1.9259
14038TIP3   OH263528   1.907   5.940   4.545  0.0469 -0.5538 -0.2441
14038TIP3    H163529   1.871   5.898   4.467  1.6191  0.4140 -1.5694
14038TIP3    H263530   1.993   5.898   4.556  0.0595 -0.3044  0.6612
14039TIP3   OH263531   3.494   6.284   4.499 -0.0374 -0.3496 -0.5627
14039TIP3    H163532   3.578   6.325   4.476 -0.3101  1.4686  1.4007
14039TIP3    H263533   3.433   6.316   4.433  0.5999 -0.9784 -1.4848
14040TIP3   OH263534   5.481   4.151  13.946  0.3256  0.2368 -0.7270
14040TIP3    H163535   5.486   4.066  13.990  1.0594  0.3405 -0.6079
14040TIP3    H263536   5.387   4.173  13.948  0.3128  0.1562  0.6458
14041TIP3   OH263537   1.138   5.962  16.976 -0.0179 -0.4848 -0.0739
14041TIP3    H163538   1.191   5.980  17.053 -0.7672  1.8144 -0.0300
14041TIP3    H263539   1.150   6.039  16.920  0.3069 -1.9764 -2.1573
14042TIP3   OH263540   2.366   1.506   4.993 -0.1841 -0.0173 -0.3255
14042TIP3    H163541   2.318   1.561   4.931  1.1364  2.6188  0.8149
14042TIP3    H263542   2.436   1.466   4.941 -1.2947 -0.8529 -1.2233
14043TIP3   OH263543   5.552   1.643   0.883 -0.5629  0.2723 -0.0353
14043TIP3    H163544   5.509   1.590   0.950 -0.0283 -0.3796 -0.2016
14043TIP3    H263545   5.637   1.665   0.920 -0.1218 -0.3865 -0.6335
14044TIP3   OH263546   5.506   0.254  11.624  0.3824 -0.2564 -0.1396
14044TIP3    H163547   5.593   0.266  11.586 -0.6218  1.0944 -2.1886
14044TIP3    H263548   5.471   0.343  11.630 -0.9760 -0.7998  0.3621
14045TIP3   OH263549   2.428   1.210   2.556  0.1655 -0.3777 -0.0527
14045TIP3    H163550   2.355   1.177   2.609 -0.0244 -0.2148 -0.2141
14045TIP3    H263551   2.497   1.145   2.568  0.4307  0.0822  1.0891
14046TIP3   OH263552   4.077   4.568   3.591  0.2695 -0.1162 -0.4202
14046TIP3    H163553   4.006   4.567   3.526 -0.4747 -0.3113  0.3769
14046TIP3    H263554   4.066   4.486   3.639  0.7566  0.0711  0.0160
14047TIP3   OH263555   5.793   5.876   4.508 -0.3466  0.2690 -0.8340
14047TIP3    H163556   5.746   5.800   4.544  0.2105  0.1638 -0.3077
14047TIP3    H263557   5.737   5.951   4.527 -1.2069 -0.0689 -1.9194
14048TIP3   OH263558   0.789   4.746   6.446 -0.2514 -0.3050  0.4649
14048TIP3    H163559   0.750   4.706   6.368 -2.6514  0.9465  0.9199
14048TIP3    H263560   0.830   4.826   6.414  1.3444 -1.2325  0.1010
14049TIP3   OH263561   0.275   4.151   2.953 -0.4842  0.5990  0.3006
14049TIP3    H163562   0.307   4.085   2.891  1.8389  0.4635  1.5319
14049TIP3    H263563   0.306   4.234   2.918 -0.4808  0.6714  0.4734
14050TIP3   OH263564   6.399   2.698  14.315 -0.3474 -0.0448  0.5277
14050TIP3    H163565   6.426   2.739  14.233 -2.4353  0.9630  0.2533
14050TIP3    H263566   6.462   2.628  14.329  1.5066  1.2691 -0.6571
14051TIP3   OH263567   0.394   1.526  11.239 -0.2962  0.1332  0.1030
14051TIP3    H163568   0.468   1.546  11.297  0.4088 -0.5070 -0.5430
14051TIP3    H263569   0.432   1.470  11.171 -1.3463 -0.0467 -0.3504
14052TIP3   OH263570   4.482   4.823   3.361 -0.0139  0.5107  0.0827
14052TIP3    H163571   4.410   4.823   3.424  0.2767 -0.0206  0.4249
14052TIP3    H263572   4.464   4.748   3.304  2.0693 -1.9225  2.3290
14053TIP3   OH263573   4.358   0.188  11.272  0.6401  0.2434 -0.4642
14053TIP3    H163574   4.346   0.171  11.179 -0.3538 -0.5629 -0.2104
14053TIP3    H263575   4.452   0.202  11.282  0.9688 -1.1386 -1.3572
14054TIP3   OH263576   4.217   3.535  15.372 -0.2136  0.1535 -0.0322
14054TIP3    H163577   4.252   3.621  15.397 -0.0562 -0.3522  1.6511
14054TIP3    H263578   4.136   3.526  15.422  0.3742 -1.1290  0.7746
14055TIP3   OH263579   6.698   4.922  16.362 -0.5880 -0.3902 -0.6088
14055TIP3    H163580   6.633   4.987  16.335  0.4006  0.5376 -0.8017
14055TIP3    H263581   6.783   4.963  16.344  0.0737 -1.2247  0.4686
14056TIP3   OH263582   3.146   0.539  11.690  0.0731 -0.0616 -0.7816
14056TIP3    H163583   3.111   0.459  11.650 -2.0157 -0.3551  1.3647
14056TIP3    H263584   3.136   0.606  11.623 -1.1715 -0.9667 -1.5410
14057TIP3   OH263585   2.056   5.341  14.725  0.0230  0.7774 -0.5661
14057TIP3    H163586   2.146   5.318  14.703 -0.0541  0.3850 -0.4811
14057TIP3    H263587   2.012   5.257  14.737 -0.6434  0.9382 -1.7454
14058TIP3   OH263588   4.943   1.473  11.152  0.7998 -0.3959 -0.6222
14058TIP3    H163589   4.932   1.531  11.077 -0.6191 -0.3668 -0.4186
14058TIP3    H263590   4.876   1.502  11.214  1.8855 -0.4725  0.6371
14059TIP3   OH263591   2.129   5.273  12.697  0.5477  0.5425  0.0108
14059TIP3    H163592   2.185   5.350  12.688 -0.4738  1.3728  0.6565
14059TIP3    H263593   2.067   5.295  12.766  0.7576 -1.1863  0.8149
14060TIP3   OH263594   0.315   5.615  16.144  0.0836  0.0618 -0.2845
14060TIP3    H163595   0.322   5.683  16.077 -0.4167  1.2960  0.8751
14060TIP3    H263596   0.406   5.589  16.161  0.1940 -0.9002 -1.9950
14061TIP3   OH263597   3.796   1.144  11.653  0.0907 -0.1226  0.3269
14061TIP3    H163598   3.757   1.064  11.689  0.1761  0.8243  2.6608
14061TIP3    H263599   3.876   1.157  11.704  0.4374  1.0979 -0.4873
14062TIP3   OH263600   1.119   4.004   1.626  0.2718 -0.0908 -0.4620
14062TIP3    H163601   1.137   4.007   1.719 -2.1508  0.5339  0.0676
14062TIP3    H263602   1.089   3.915   1.610 -1.3177  0.3572 -0.1602
14063TIP3   OH263603   0.997   6.241  13.765  0.2167  0.0221  0.0816
14063TIP3    H163604   1.073   6.275  13.717  1.2130 -1.4509  0.5356
14063TIP3    H263605   0.938   6.315  13.771  1.3769  1.0713 -0.7841
14064TIP3   OH263606   4.244   0.756  13.116  0.0083  0.2128 -0.1551
14064TIP3    H163607   4.157   0.722  13.138  0.4215 -0.1361  0.9629
14064TIP3    H263608   4.270   0.705  13.039  0.0479 -1.0657  0.6873
14065TIP3   OH263609   6.027   0.784  13.047  0.5682  0.0279 -0.3574
14065TIP3    H163610   5.955   0.842  13.027  0.6397  0.4471  0.5464
14065TIP3    H263611   5.996   0.730  13.120  0.6587 -0.7780 -0.8962
14066TIP3   OH263612   6.478   4.449   3.298  0.4723  0.4767  0.1356
14066TIP3    H163613   6.455   4.524   3.244  0.3529  0.9834  0.8791
14066TIP3    H263614   6.566   4.468   3.330  0.3078  0.4711  0.6077
14067TIP3   OH263615   6.130   3.911   4.094  0.9502 -0.0659 -0.3139
14067TIP3    H163616   6.217   3.951   4.083  0.8335  0.5797  0.9355
14067TIP3    H263617   6.101   3.940   4.181 -1.7303  2.1138 -1.7462
14068TIP3   OH263618   3.430   5.347   4.220  0.1631 -0.1392  0.8077
14068TIP3    H163619   3.421   5.258   4.185 -1.4136  0.6145 -0.8359
14068TIP3    H263620   3.464   5.334   4.309  1.0237 -2.3053  0.2269
14069TIP3   OH263621   5.997   4.670  15.209 -0.2146  0.3297 -0.4735
14069TIP3    H163622   6.068   4.701  15.265  0.1317  2.3933 -1.9520
14069TIP3    H263623   5.934   4.630  15.269  1.2070  0.3404  1.0899
14070TIP3   OH263624   5.257   1.354  14.273 -0.4788 -0.4303 -0.6009
14070TIP3    H163625   5.200   1.325  14.202 -2.3682 -0.1729  0.7642
14070TIP3    H263626   5.218   1.435  14.305  2.3656  1.5228 -1.5624
14071TIP3   OH263627   1.584   0.007  11.663 -0.1431  0.1437  0.1442
14071TIP3    H163628   1.530  -0.001  11.584  0.5894 -1.4931 -0.2384
14071TIP3    H263629   1.659   0.059  11.636 -0.3865  0.4344  0.0296
14072TIP3   OH263630   2.502   4.938   0.578  0.1974 -0.1412  0.5334
14072TIP3    H163631   2.453   5.001   0.526 -1.1030  1.3376  3.3222
14072TIP3    H263632   2.594   4.962   0.564 -0.2440  2.2752  1.2621
14073TIP3   OH263633   6.774   0.562   0.771  0.1714  0.3564  0.1887
14073TIP3    H163634   6.717   0.490   0.799  1.2859 -0.3139  0.7937
14073TIP3    H263635   6.862   0.534   0.794  0.7706  1.3588 -0.7689
14074TIP3   OH263636   5.370   3.084   6.027 -0.4008  0.0835  0.2768
14074TIP3    H163637   5.277   3.076   6.048 -0.3568 -0.8652  0.1692
14074TIP3    H263638   5.403   3.151   6.086 -0.7751 -0.8422  1.5734
14075TIP3   OH263639   2.642   5.462  16.617  0.5256  0.1300  0.2607
14075TIP3    H163640   2.675   5.398  16.681 -0.3135 -0.8449 -0.2465
14075TIP3    H263641   2.551   5.436  16.602  0.9132 -0.2032 -1.9399
14076TIP3   OH263642   4.805   2.657   0.635  0.1606 -0.8992 -0.1712
14076TIP3    H163643   4.763   2.743   0.628 -1.4901 -1.8045 -2.8789
14076TIP3    H263644   4.898   2.674   0.619  0.2397  0.5868  1.5323
14077TIP3   OH263645   3.736   4.768   3.006  0.0235 -0.4156  0.6463
14077TIP3    H163646   3.793   4.838   3.038  1.2269 -1.3815  0.7107
14077TIP3    H263647   3.700   4.802   2.924  3.2078 -0.9033 -1.1223
14078TIP3   OH263648   3.544   6.252   3.673  0.4417 -0.2719 -0.2475
14078TIP3    H163649   3.522   6.180   3.732  0.2865 -0.1997 -0.2172
14078TIP3    H263650   3.637   6.270   3.690  0.3877 -0.2241  0.0031
14079TIP3   OH263651   3.953   0.574  12.195 -0.6125 -0.2470 -0.1594
14079TIP3    H163652   3.987   0.587  12.283 -1.4014  2.4554 -0.1698
14079TIP3    H263653   4.021   0.609  12.137 -0.9044 -0.2716 -0.5221
14080TIP3   OH263654   5.829   4.720  11.214  0.3675 -0.2675 -0.2538
14080TIP3    H163655   5.825   4.692  11.306  1.7083  0.0743 -0.0759
14080TIP3    H263656   5.895   4.663  11.175  0.4742  0.2100 -0.7785
14081TIP3   OH263657   0.859   0.118   1.931  0.6737  0.0694  1.2947
14081TIP3    H163658   0.873   0.191   1.872 -0.8215 -0.3395  0.3855
14081TIP3    H263659   0.933   0.122   1.992  2.1892  0.6056 -0.4659
14082TIP3   OH263660   3.749   3.942  14.220 -0.6852  0.4631  0.2880
14082TIP3    H163661   3.678   3.989  14.263  0.3845  0.8081  1.7798
14082TIP3    H263662   3.717   3.853  14.210 -0.1849 -0.3318  4.1659
14083TIP3   OH263663   3.408   1.705  13.090 -0.1285 -0.0918  0.1600
14083TIP3    H163664   3.338   1.680  13.150  0.0704 -0.9973  0.0295
14083TIP3    H263665   3.402   1.641  13.018  1.2987 -0.6626  0.5154
14084TIP3   OH263666   2.183   4.054   3.145  0.7323 -0.3818 -0.5029
14084TIP3    H163667   2.278   4.040   3.145  0.6054 -1.5101  1.1188
14084TIP3    H263668   2.165   4.098   3.062  2.4353 -1.8105 -1.6912
14085TIP3   OH263669   3.978   5.790  11.655  0.0823  0.0786  0.2707
14085TIP3    H163670   4.060   5.833  11.632  0.8834 -0.3750  2.0461
14085TIP3    H263671   3.912   5.858  11.645  0.8831  0.8652  0.1534
14086TIP3   OH263672   4.083   5.245  16.000 -0.5056 -0.1547  0.2361
14086TIP3    H163673   4.026   5.318  15.976 -0.5211  0.0054  0.7502
14086TIP3    H263674   4.118   5.269  16.086  0.8646  0.0638 -0.3542
14087TIP3   OH263675   0.653   4.380  11.900 -0.5501 -0.2248  0.1485
14087TIP3    H163676   0.617   4.304  11.945  1.1143 -1.8222 -1.0661
14087TIP3    H263677   0.601   4.388  11.820 -0.5891 -0.2454  0.1725
14088TIP3   OH263678   1.844   1.852  16.234 -0.6032  0.5911  1.0099
14088TIP3    H163679   1.939   1.856  16.244 -0.0622 -0.2843 -2.4426
14088TIP3    H263680   1.819   1.942  16.212 -0.2748  0.4715  0.1184
14089TIP3   OH263681   3.984   0.391  10.373 -0.2153 -0.3162 -0.4968
14089TIP3    H163682   4.026   0.305  10.380 -0.8394 -0.5151  1.4252
14089TIP3    H263683   3.890   0.371  10.373 -0.3580  0.3055 -1.4269
14090TIP3   OH263684   4.018   6.360  11.089 -0.2809  0.4083  0.1616
14090TIP3    H163685   4.001   6.413  11.167  0.4748  0.0907  0.5564
14090TIP3    H263686   3.980   6.275  11.109 -2.4205  1.0393 -0.8841
14091TIP3   OH263687   5.588   2.313   3.319  0.4344  0.3503 -0.4398
14091TIP3    H163688   5.599   2.372   3.244  0.2940 -0.3639 -1.0288
14091TIP3    H263689   5.494   2.295   3.323  0.3597  0.8427  0.2716
14092TIP3   OH263690   3.129   1.773   1.536  0.0111  0.1964 -0.4880
14092TIP3    H163691   3.132   1.859   1.578 -2.2655  0.3255 -0.4777
14092TIP3    H263692   3.119   1.793   1.442 -1.6067 -0.0234 -0.3755
14093TIP3   OH263693   4.562   4.244  12.020 -0.4319  0.2760 -0.6955
14093TIP3    H163694   4.602   4.322  11.981 -0.7929  0.7008 -0.2326
14093TIP3    H263695   4.470   4.266  12.029 -0.4125  0.0777  0.1126
14094TIP3   OH263696   2.712   4.659  13.886 -0.1514  0.3128  0.2498
14094TIP3    H163697   2.778   4.727  13.878  0.5164 -0.2106  1.0884
14094TIP3    H263698   2.721   4.607  13.806  0.6148  0.1211  0.4495
14095TIP3   OH263699   0.609   3.149  10.608 -0.3405 -0.3465 -0.3024
14095TIP3    H163700   0.519   3.147  10.576 -1.0239 -2.9290  1.3975
14095TIP3    H263701   0.609   3.218  10.674 -0.5078  0.9656 -1.6335
14096TIP3   OH263702   2.925   2.489   2.900 -0.4283 -0.0321 -0.4522
14096TIP3    H163703   2.887   2.520   2.817  0.8946  0.7238 -0.8240
14096TIP3    H263704   2.910   2.561   2.961 -2.6106 -1.1358  0.3971
14097TIP3   OH263705   2.092   2.317  10.592  0.0122 -0.2928  0.3088
14097TIP3    H163706   2.052   2.382  10.650 -4.5859 -0.5672 -2.0728
14097TIP3    H263707   2.049   2.235  10.615  0.7653 -1.1178 -1.0934
14098TIP3   OH263708   2.050   4.969  15.402  0.0922  0.0996 -0.2198
14098TIP3    H163709   2.140   4.995  15.380  0.0092  0.3019 -0.3280
14098TIP3    H263710   2.002   5.052  15.404 -0.1758 -0.0468 -0.5691
14099TIP3   OH263711   0.318   6.074   0.678  0.6110  0.6914  0.0292
14099TIP3    H163712   0.325   6.114   0.765  0.9431 -0.0783  0.3623
14099TIP3    H263713   0.228   6.044   0.672  0.5451  0.8813  0.0404
14100TIP3   OH263714   4.896   1.169  16.548 -0.2405  0.0747  0.0651
14100TIP3    H163715   4.838   1.168  16.472  0.8129 -1.6809 -0.7866
14100TIP3    H263716   4.838   1.158  16.623 -1.1177 -0.2744 -0.6489
14101TIP3   OH263717   6.610   0.748   2.304  0.4907 -0.4259  0.1269
14101TIP3    H163718   6.588   0.835   2.268 -1.3093 -0.5446  0.8266
14101TIP3    H263719   6.601   0.689   2.229 -0.3196 -0.2753  0.0936
14102TIP3   OH263720   1.934   1.499   0.172  0.1056 -0.1923 -0.5843
14102TIP3    H163721   1.939   1.412   0.132 -0.1480 -1.4066  1.8243
14102TIP3    H263722   1.970   1.487   0.260  0.4718  2.2691 -0.3242
14103TIP3   OH263723   2.773   1.050   1.758 -0.3816 -0.1284  0.2430
14103TIP3    H163724   2.788   1.052   1.664 -0.1780 -1.5837  0.2188
14103TIP3    H263725   2.860   1.043   1.796 -0.4968 -0.0928  0.5140
14104TIP3   OH263726   4.513   0.395  17.066 -1.0376  0.1470  0.5880
14104TIP3    H163727   4.431   0.345  17.067 -1.0459  0.1682  1.8979
14104TIP3    H263728   4.544   0.393  17.156 -0.3292  1.3592  0.3947
14105TIP3   OH263729   3.115   3.137   5.302 -0.1418  0.2056  0.1756
14105TIP3    H163730   3.157   3.137   5.216  0.8089  0.6213  0.6303
14105TIP3    H263731   3.101   3.044   5.321 -0.0350  0.0948 -0.2774
14106TIP3   OH263732   0.110   0.796   3.925  0.0988  0.4221 -0.4355
14106TIP3    H163733   0.204   0.798   3.906 -0.3681  2.8581 -3.1012
14106TIP3    H263734   0.095   0.876   3.976 -0.3690 -0.6920  1.2457
14107TIP3   OH263735   2.248   1.267   4.096 -0.3576  0.1073  0.3673
14107TIP3    H163736   2.156   1.247   4.116 -0.3918 -1.1335 -0.8605
14107TIP3    H263737   2.294   1.250   4.178 -0.6350 -3.7423 -0.0579
14108TIP3   OH263738   1.591   1.747  13.683  0.2521  0.4830 -0.6241
14108TIP3    H163739   1.666   1.783  13.635  1.4902 -0.3759  0.5856
14108TIP3    H263740   1.588   1.655  13.656 -0.9819  0.7283 -1.3817
14109TIP3   OH263741   4.966   3.690   1.867  0.3973  0.0422  0.0243
14109TIP3    H163742   5.021   3.622   1.828 -1.7500 -0.3301 -2.6350
14109TIP3    H263743   4.878   3.671   1.835 -0.8168  2.3083  1.7271
14110TIP3   OH263744   3.947   1.456  11.404 -0.0299  0.5815 -0.0944
14110TIP3    H163745   4.038   1.457  11.433  0.0661  0.5260 -0.3971
14110TIP3    H263746   3.913   1.373  11.436  0.0936  0.4941 -0.1884
14111TIP3   OH263747   5.729   5.079  10.680  0.2415 -0.3908  0.0066
14111TIP3    H163748   5.684   5.162  10.699 -0.3507 -0.1376 -2.2288
14111TIP3    H263749   5.818   5.092  10.713  0.4011  1.4615 -1.0108
14112TIP3   OH263750   2.537   2.868   2.672  0.4052  0.4930  0.7435
14112TIP3    H163751   2.630   2.891   2.680  0.4473 -0.4106  3.6577
14112TIP3    H263752   2.537   2.789   2.618  1.1225  1.4127 -0.6851
14113TIP3   OH263753   6.382   5.258   3.239 -0.5573  0.4874  0.1807
14113TIP3    H163754   6.297   5.292   3.212  0.1147  0.7376 -1.7592
14113TIP3    H263755   6.431   5.334   3.271 -0.6512  0.5412  0.1941
14114TIP3   OH263756   1.437   2.127   5.730 -0.6963  0.1323  0.3313
14114TIP3    H163757   1.466   2.089   5.813 -0.7631 -0.9047 -0.0962
14114TIP3    H263758   1.517   2.155   5.686 -0.6137  0.1581  0.4996
14115TIP3   OH263759   0.189   1.944  12.830  0.3039 -0.0806  0.3432
14115TIP3    H163760   0.109   1.893  12.843 -1.9900  2.1385 -3.3594
14115TIP3    H263761   0.254   1.879  12.803 -1.6036 -1.5240 -1.0996
14116TIP3   OH263762   3.214   1.952   0.253  0.3286  0.4101 -0.1812
14116TIP3    H163763   3.143   1.888   0.244  1.8508 -1.4645  0.6008
14116TIP3    H263764   3.224   1.989   0.165  0.5829 -1.7730 -1.1291
14117TIP3   OH263765   4.078   2.411  14.838  0.1916 -0.0447 -0.9480
14117TIP3    H163766   4.133   2.402  14.915 -1.1190  0.5802  0.1062
14117TIP3    H263767   4.005   2.351  14.853 -1.7083  2.3085 -0.1455
14118TIP3   OH263768   0.598   4.146   3.161 -0.2298  0.0432  0.6773
14118TIP3    H163769   0.669   4.171   3.102 -0.2988  2.0042  1.3548
14118TIP3    H263770   0.637   4.082   3.219  0.3959 -0.4269 -0.2336
14119TIP3   OH263771   2.363   3.020  16.587 -0.1584  0.1346 -0.0438
14119TIP3    H163772   2.330   3.098  16.632 -0.5001  0.4224 -0.7799
14119TIP3    H263773   2.352   3.039  16.494  1.2732 -0.1205 -0.2974
14120TIP3   OH263774   2.592   1.157  11.792  0.5103 -0.1103 -1.0004
14120TIP3    H163775   2.502   1.125  11.794 -0.2514  1.8038  1.6886
14120TIP3    H263776   2.642   1.091  11.841 -0.7114  1.5191  2.8963
14121TIP3   OH263777   2.986   5.277   4.874 -0.1593  0.0265  0.2214
14121TIP3    H163778   2.952   5.229   4.798  0.0023  1.9319 -1.1508
14121TIP3    H263779   2.958   5.226   4.950  0.2693 -2.3548 -1.1055
14122TIP3   OH263780   6.710   3.833   0.645 -0.1492 -0.7345 -0.2074
14122TIP3    H163781   6.741   3.881   0.722 -1.9761 -2.0200  1.4162
14122TIP3    H263782   6.615   3.829   0.656 -0.2617 -2.7740 -1.4353
14123TIP3   OH263783   4.283   3.025  11.002  0.2450  0.0834 -0.3517
14123TIP3    H163784   4.374   3.013  10.976  0.5149  2.0195 -0.4807
14123TIP3    H263785   4.253   3.100  10.950 -1.0976  0.1353  0.4396
14124TIP3   OH263786   6.734   4.940  11.705  0.0859 -0.1068  0.0617
14124TIP3    H163787   6.754   5.005  11.773 -0.2792  0.7933 -0.6624
14124TIP3    H263788   6.641   4.921  11.718 -0.4978  1.5227 -1.3396
14125TIP3   OH263789   2.552   3.572  12.028 -0.4754 -0.5328  0.0500
14125TIP3    H163790   2.532   3.507  12.095 -0.4477 -0.9560 -0.3514
14125TIP3    H263791   2.600   3.524  11.960 -1.0795 -0.2540 -0.5874
14126TIP3   OH263792   6.625   1.273  16.870 -0.0241 -0.3860  0.3686
14126TIP3    H163793   6.580   1.207  16.923  0.2628 -1.2003 -0.3923
14126TIP3    H263794   6.610   1.246  16.780  0.9134  0.0454  0.0739
14127TIP3   OH263795   6.124   3.018  11.621 -1.1117 -0.3076  0.1529
14127TIP3    H163796   6.119   3.060  11.535 -4.2989 -1.0203 -0.1344
14127TIP3    H263797   6.161   2.932  11.604 -0.4859  0.0391 -0.2681
14128TIP3   OH263798   0.749   5.815   4.522  0.4683  0.1874  0.8646
14128TIP3    H163799   0.659   5.840   4.540  0.1507 -0.6799  0.4846
14128TIP3    H263800   0.785   5.792   4.608 -0.3719 -1.7207  0.7367
14129TIP3   OH263801   0.389   2.915  15.338 -0.4052  0.7063  0.6479
14129TIP3    H163802   0.408   2.989  15.395 -0.0069  1.4746 -0.4685
14129TIP3    H263803   0.458   2.851  15.356  0.9470  1.8059 -0.4554
14130TIP3   OH263804   5.084   1.731  11.344 -0.6418 -0.1631  0.1110
14130TIP3    H163805   5.000   1.693  11.321 -0.1005 -1.5150  0.3071
14130TIP3    H263806   5.065   1.792  11.415 -1.2620 -1.6065  1.2316
14131TIP3   OH263807   5.155   6.487   0.129 -1.2779 -0.1475 -0.3998
14131TIP3    H163808   5.180   6.473   0.037  0.4190 -1.4783  0.2048
14131TIP3    H263809   5.092   6.559   0.126 -0.8333  0.2266 -2.5455
14132TIP3   OH263810   4.190   6.756  17.035  0.2153 -0.4026 -0.0383
14132TIP3    H163811   4.232   6.839  17.011 -0.5483 -0.0924 -0.3071
14132TIP3    H263812   4.184   6.760  17.131  0.6676 -0.3921 -0.0057
14133TIP3   OH263813   3.986   2.001  12.844 -0.3641 -0.0150  0.0403
14133TIP3    H163814   4.080   2.001  12.826 -0.5334  1.9367 -1.2078
14133TIP3    H263815   3.963   1.909  12.854  1.6096 -0.5518 -0.0390
14134TIP3   OH263816   2.703   5.049  14.544  0.8173 -0.2184 -0.1517
14134TIP3    H163817   2.691   5.137  14.510 -2.6042 -0.1406  0.8843
14134TIP3    H263818   2.723   4.996  14.467 -0.3060  0.9900 -1.3337
14135TIP3   OH263819   1.044   5.208  16.232 -0.2385  0.9180 -0.3647
14135TIP3    H163820   1.097   5.270  16.283 -0.4491  2.4570 -1.9390
14135TIP3    H263821   1.097   5.128  16.231 -0.8457  0.2726  3.4025
14136TIP3   OH263822   1.757   4.526  15.629 -0.3253 -0.3700  0.0993
14136TIP3    H163823   1.768   4.431  15.628  0.2835 -0.3042 -0.0345
14136TIP3    H263824   1.765   4.552  15.537 -1.0856 -0.2509  0.0653
14137TIP3   OH263825   3.087   6.428  14.816 -0.5901  0.7552 -0.1313
14137TIP3    H163826   3.048   6.357  14.867  0.1469 -0.1447 -0.8075
14137TIP3    H263827   3.161   6.389  14.771 -2.4428  0.8891 -3.6945
14138TIP3   OH263828   4.234   2.280   4.535  0.6563  0.2283  0.7424
14138TIP3    H163829   4.198   2.200   4.572  0.5113 -0.1745 -0.2442
14138TIP3    H263830   4.207   2.279   4.444  0.1745  1.6869  0.8404
14139TIP3   OH263831   1.663   4.278  13.894  0.3260 -0.1205  0.0600
14139TIP3    H163832   1.710   4.252  13.974  1.4319 -0.1038 -0.5552
14139TIP3    H263833   1.574   4.244  13.906  0.1534  0.8353  1.7574
14140TIP3   OH263834   4.475   5.590  12.506 -0.3974  0.2603 -0.3398
14140TIP3    H163835   4.487   5.499  12.533  0.1512  0.5088  0.2856
14140TIP3    H263836   4.430   5.632  12.579  0.8088  0.8620  0.0896
14141TIP3   OH263837   5.913   3.128   5.894 -0.4301 -0.1947 -0.1418
14141TIP3    H163838   5.944   3.071   5.824 -0.2049  1.2421 -1.2538
14141TIP3    H263839   5.961   3.210   5.882 -0.6033  0.1985  1.5249
14142TIP3   OH263840   5.896   4.857  15.526  0.1303 -0.1842  0.6008
14142TIP3    H163841   5.974   4.879  15.577 -0.0018  0.7634  0.4237
14142TIP3    H263842   5.838   4.933  15.537 -0.2836 -0.3675 -0.2036
14143TIP3   OH263843   1.365   1.712   1.895  1.0933  0.3281  0.1797
14143TIP3    H163844   1.335   1.633   1.849 -1.6713  0.2766  1.8308
14143TIP3    H263845   1.456   1.693   1.918  0.7445 -2.0783 -0.1583
14144TIP3   OH263846   0.456   1.506   0.612  0.0848  0.3761 -0.0631
14144TIP3    H163847   0.550   1.515   0.621  0.4646  0.1292 -2.8242
14144TIP3    H263848   0.434   1.562   0.537 -2.0188  0.6342  0.6765
14145TIP3   OH263849   5.664   3.590   3.606 -0.0479 -0.1083  0.0472
14145TIP3    H163850   5.606   3.649   3.655  0.1827 -1.4080  2.0005
14145TIP3    H263851   5.719   3.648   3.553  0.4013  1.4802  2.1346
14146TIP3   OH263852   5.492   2.843   2.740 -0.1811  0.1017 -0.7186
14146TIP3    H163853   5.440   2.890   2.805 -2.3324 -1.8052 -0.9219
14146TIP3    H263854   5.441   2.851   2.659  0.9489 -0.0441 -1.4633
14147TIP3   OH263855   2.049   3.576   0.838  0.3377 -0.0998  0.2135
14147TIP3    H163856   1.993   3.652   0.848 -0.2373 -0.7948  3.6630
14147TIP3    H263857   1.994   3.502   0.865  1.5276 -1.4746 -0.9273
14148TIP3   OH263858   4.685   6.276  15.132 -0.4524  0.1390 -0.4943
14148TIP3    H163859   4.754   6.212  15.149 -0.0090  0.7702  0.1162
14148TIP3    H263860   4.631   6.274  15.211 -1.4281 -0.6777 -1.1366
14149TIP3   OH263861   4.524   5.682  13.542 -0.0156  0.2255 -0.0777
14149TIP3    H163862   4.543   5.598  13.584 -1.8632 -0.2276 -0.0486
14149TIP3    H263863   4.477   5.732  13.609 -2.5032 -0.2989 -1.3033
14150TIP3   OH263864   1.501   0.089  12.336 -0.2317 -0.1308 -0.4813
14150TIP3    H163865   1.489  -0.004  12.355  2.6418 -0.5026  0.0730
14150TIP3    H263866   1.559   0.091  12.260 -1.6518  1.2836 -1.6082
14151TIP3   OH263867   6.557   4.549   1.823  0.2574  0.3322  0.7385
14151TIP3    H163868   6.461   4.556   1.828 -0.0720  0.1608 -2.7248
14151TIP3    H263869   6.574   4.454   1.827  0.5108  0.4227  2.9707
14152TIP3   OH263870   0.680   4.499   2.253 -0.7317  0.9156 -0.0414
14152TIP3    H163871   0.660   4.445   2.176 -0.3320  1.2552 -0.3892
14152TIP3    H263872   0.596   4.536   2.279 -1.7745 -2.6003  2.3671
14153TIP3   OH263873   2.272   3.628   2.941 -0.2784 -0.4916 -0.2615
14153TIP3    H163874   2.222   3.573   2.880 -0.3629 -3.2104  2.0172
14153TIP3    H263875   2.362   3.620   2.912 -0.5317 -0.1226 -1.1693
14154TIP3   OH263876   4.414   1.896   2.984  0.2785  0.0082  0.2398
14154TIP3    H163877   4.326   1.859   2.987  1.3841 -3.0488 -0.7607
14154TIP3    H263878   4.440   1.905   3.076 -0.5243 -0.5896  0.5365
14155TIP3   OH263879   4.373   4.980  14.581 -0.7295  0.0112  0.0158
14155TIP3    H163880   4.311   4.908  14.588 -1.6528  0.5781 -1.8008
14155TIP3    H263881   4.381   4.997  14.487  1.6264  0.4610  0.2304
14156TIP3   OH263882   4.251   0.827   1.545 -0.0006 -0.4915 -0.6148
14156TIP3    H163883   4.251   0.742   1.501 -0.8953 -0.8556  0.0595
14156TIP3    H263884   4.293   0.810   1.629  0.9587  0.0225 -0.9730
14157TIP3   OH263885   2.199   5.408  11.492  0.5361  0.0320  0.2818
14157TIP3    H163886   2.153   5.482  11.531  0.8392  1.0703 -1.2596
14157TIP3    H263887   2.290   5.435  11.487  0.5175 -0.0738 -1.0719
14158TIP3   OH263888   0.107   0.707  11.721 -0.2898  0.1189 -0.1632
14158TIP3    H163889   0.127   0.616  11.741  0.1727 -0.2632 -2.2012
14158TIP3    H263890   0.158   0.757  11.785  1.8425 -1.0111 -0.8827
14159TIP3   OH263891   6.404   1.149  15.143  0.3898  0.5813 -0.0220
14159TIP3    H163892   6.413   1.164  15.237  0.8330  0.8821 -0.1112
14159TIP3    H263893   6.311   1.159  15.126  0.2190 -0.0694  0.4873
14160TIP3   OH263894   3.969   3.518  15.482  0.3346 -0.3192  0.0805
14160TIP3    H163895   3.923   3.451  15.532 -1.3949  1.3159  0.8104
14160TIP3    H263896   3.903   3.586  15.467  2.1115  1.4205 -0.2654
14161TIP3   OH263897   2.150   6.765  12.339 -0.3218 -0.3078 -0.2151
14161TIP3    H163898   2.152   6.740  12.247  1.1404  0.8801 -0.5525
14161TIP3    H263899   2.067   6.812  12.349 -0.4255 -0.3187 -0.9640
14162TIP3   OH263900   2.312   6.754  10.639 -0.6260 -0.2992 -0.2215
14162TIP3    H163901   2.323   6.768  10.545 -0.1321 -0.3639 -0.1775
14162TIP3    H263902   2.337   6.662  10.652  1.8929  0.4024  0.3499
14163TIP3   OH263903   5.729   0.302  14.312 -0.2374 -0.5470 -0.1688
14163TIP3    H163904   5.727   0.379  14.255  0.3426 -0.6226 -0.2978
14163TIP3    H263905   5.820   0.272  14.309 -0.3302 -0.8963  0.3382
14164TIP3   OH263906   2.283   0.183  14.568  0.1212  0.6447  0.3550
14164TIP3    H163907   2.240   0.097  14.571 -0.5597  0.9908  0.6845
14164TIP3    H263908   2.286   0.205  14.475 -1.2283  1.0108  0.3806
14165TIP3   OH263909   0.793   4.913  12.111 -0.1771  0.1749 -0.7441
14165TIP3    H163910   0.830   5.000  12.120  0.9984 -0.3678 -0.0466
14165TIP3    H263911   0.819   4.867  12.191 -0.6175 -0.8628 -1.1745
14166TIP3   OH263912   0.600   3.229   3.635 -0.5521 -0.3414 -0.0463
14166TIP3    H163913   0.600   3.145   3.681  2.1680 -0.1419  0.4741
14166TIP3    H263914   0.691   3.241   3.607 -1.0036  2.1497 -0.6580
14167TIP3   OH263915   6.395   1.355   3.485 -0.0170 -0.7627  0.1478
14167TIP3    H163916   6.319   1.395   3.529 -0.7868 -0.4050 -1.4139
14167TIP3    H263917   6.357   1.308   3.411  1.4302  1.9540 -2.5372
14168TIP3   OH263918   5.820   2.974   3.989 -0.2164  0.1764 -0.2033
14168TIP3    H163919   5.805   3.068   3.981  0.0178  0.1458 -1.1838
14168TIP3    H263920   5.912   2.963   3.965  0.0190 -0.2066  0.8181
14169TIP3   OH263921   1.214   5.690   4.901  0.3512 -0.8429  0.1407
14169TIP3    H163922   1.284   5.716   4.842  0.8433 -0.4731  0.8698
14169TIP3    H263923   1.133   5.710   4.854  0.7148  0.9384  0.1966
14170TIP3   OH263924   0.647   2.078   4.988 -0.3909 -0.7051  0.0885
14170TIP3    H163925   0.627   2.161   4.944  0.1743 -0.4562  0.2926
14170TIP3    H263926   0.742   2.079   5.000 -0.2360 -1.8526 -0.8398
14171TIP3   OH263927   4.666   6.056   5.602  0.4930 -0.2370 -0.0547
14171TIP3    H163928   4.581   6.021   5.628 -0.4152  1.0144 -1.1999
14171TIP3    H263929   4.716   6.063   5.683 -1.5873  1.8777  1.1585
14172TIP3   OH263930   6.013   3.267  16.149 -0.2439 -0.4221 -0.3655
14172TIP3    H163931   5.924   3.259  16.117 -0.7333  1.3345  0.4055
14172TIP3    H263932   6.018   3.206  16.222 -1.0597 -0.0200  0.0402
14173TIP3   OH263933   1.910   3.893  13.379 -0.4876 -0.0640  0.1709
14173TIP3    H163934   1.955   3.880  13.295 -2.2522  1.5774 -1.0948
14173TIP3    H263935   1.961   3.962  13.422  1.2439 -1.8394  1.1735
14174TIP3   OH263936   2.644   4.270   0.610  0.2878 -0.5858 -0.3082
14174TIP3    H163937   2.566   4.273   0.555  0.1882 -1.9829 -0.2719
14174TIP3    H263938   2.715   4.246   0.551  0.2759 -1.5546  0.0510
14175TIP3   OH263939   2.772   4.762   1.898  0.8287 -0.2962  0.0950
14175TIP3    H163940   2.735   4.688   1.849  1.5301  0.1244 -1.1071
14175TIP3    H263941   2.802   4.823   1.831  2.6403 -0.0983  1.0258
14176TIP3   OH263942   0.335   1.559   1.301  0.9129  0.3657  0.3893
14176TIP3    H163943   0.341   1.650   1.271  0.8503  0.3139  0.2194
14176TIP3    H263944   0.305   1.511   1.225  2.1375  0.0092  0.1105
14177TIP3   OH263945   6.656   2.419   3.804 -0.2679 -0.0107 -0.9280
14177TIP3    H163946   6.616   2.501   3.833 -1.5455 -0.1340 -2.2554
14177TIP3    H263947   6.636   2.357   3.874 -0.2202  0.5304 -0.4175
14178TIP3   OH263948   5.952   0.292  12.775 -0.1241  0.0253 -0.2352
14178TIP3    H163949   5.873   0.259  12.731  0.7597 -0.4574 -1.5033
14178TIP3    H263950   6.021   0.286  12.709  1.1632 -0.3129  1.0828
14179TIP3   OH263951   3.327   3.581   1.375  0.1759 -0.4280 -0.2549
14179TIP3    H163952   3.245   3.615   1.413 -0.1086 -0.4534 -0.8378
14179TIP3    H263953   3.306   3.492   1.349  0.4492 -0.4974 -0.2406
14180TIP3   OH263954   2.157   3.731  14.997 -0.2163  0.2437 -0.1597
14180TIP3    H163955   2.212   3.662  15.034 -1.0769 -0.4355 -0.1044
14180TIP3    H263956   2.068   3.704  15.019 -0.6399  0.6825 -1.2811
14181TIP3   OH263957   5.359   5.223   2.790  0.0123  0.4729 -0.1344
14181TIP3    H163958   5.389   5.181   2.709  0.5743  2.0344 -0.7757
14181TIP3    H263959   5.263   5.223   2.783  0.0465  0.2749 -0.6335
14182TIP3   OH263960   2.833   5.837  15.295 -0.3336  0.2065  0.1752
14182TIP3    H163961   2.881   5.842  15.378 -0.8859  1.1676  0.4584
14182TIP3    H263962   2.742   5.820  15.321 -1.0107  3.0075 -0.0126
14183TIP3   OH263963   3.219   6.748   6.209  0.8114 -0.0147 -0.3229
14183TIP3    H163964   3.286   6.706   6.262  0.7522  0.8372  0.4522
14183TIP3    H263965   3.205   6.833   6.250 -1.1411 -0.3735 -0.1211
14184TIP3   OH263966   2.275   5.530  10.718 -0.5611 -0.4949  0.2230
14184TIP3    H163967   2.182   5.511  10.712 -0.7526  0.1435  1.0104
14184TIP3    H263968   2.292   5.540  10.811  0.0047  0.7976 -0.0020
14185TIP3   OH263969   3.647   3.172  14.334 -0.6035 -0.0743 -0.3350
14185TIP3    H163970   3.613   3.092  14.373  0.2067 -0.3833 -0.2407
14185TIP3    H263971   3.600   3.243  14.378  1.4004 -0.3227  2.4055
14186TIP3   OH263972   1.891   3.990   0.543  0.5334 -0.3080 -0.3634
14186TIP3    H163973   1.876   4.068   0.596  0.0416  0.1163 -1.1148
14186TIP3    H263974   1.984   3.993   0.521  0.4283  0.2973 -0.7420
14187TIP3   OH263975   3.269   2.075  11.056 -0.4563 -0.3827 -0.3158
14187TIP3    H163976   3.357   2.112  11.048 -0.2531 -0.8577 -0.2818
14187TIP3    H263977   3.280   1.982  11.038 -0.8360 -0.5712  0.3931
14188TIP3   OH263978   2.378   5.979   5.342 -0.6151  0.1803  0.4971
14188TIP3    H163979   2.446   5.913   5.326  0.0169  0.9163  0.1196
14188TIP3    H263980   2.314   5.934   5.398 -0.0598 -0.6698  0.4638
14189TIP3   OH263981   3.382   5.204   3.102  0.9527 -0.0649  0.0273
14189TIP3    H163982   3.398   5.286   3.056  1.4177  0.4016  0.9939
14189TIP3    H263983   3.309   5.223   3.162  0.3638 -0.6598 -0.4813
14190TIP3   OH263984   0.104   3.421   5.906  0.4226 -0.0151 -0.9914
14190TIP3    H163985   0.187   3.469   5.903  0.8538 -0.8002 -2.3968
14190TIP3    H263986   0.129   3.332   5.930 -0.1589 -0.0242 -0.3642
14191TIP3   OH263987   5.566   3.305  14.426  0.1478 -0.2741 -0.1682
14191TIP3    H163988   5.527   3.321  14.512  2.6045 -0.7159  1.1133
14191TIP3    H263989   5.542   3.215  14.405  0.5468 -0.5901  0.6704
14192TIP3   OH263990   5.455   4.671  11.955  0.1311 -0.3365  0.0002
14192TIP3    H163991   5.472   4.710  12.041 -0.2849 -1.0996  0.4318
14192TIP3    H263992   5.366   4.698  11.934 -1.0467 -2.8292  1.3233
14193TIP3   OH263993   4.572   6.694   1.871  0.1088  0.5564 -0.1020
14193TIP3    H163994   4.624   6.702   1.951 -2.6587 -2.2354  2.2146
14193TIP3    H263995   4.600   6.612   1.832 -0.3173  0.6496 -0.6157
14194TIP3   OH263996   5.279   2.153   3.893  0.2127 -0.6790 -0.4907
14194TIP3    H163997   5.355   2.104   3.861  0.3270 -1.5982  1.1234
14194TIP3    H263998   5.248   2.104   3.968 -0.5023  1.0138  0.3725
14195TIP3   OH263999   2.320   4.543   0.959 -0.0988 -0.2087  0.2861
14195TIP3    H164000   2.316   4.629   0.916  1.9320  0.1163  0.6274
14195TIP3    H264001   2.400   4.504   0.925 -1.1353 -2.1243 -0.0793
14196TIP3   OH264002   4.785   3.849  16.367 -0.0129  0.5145  0.0006
14196TIP3    H164003   4.752   3.894  16.289 -0.8471  0.1168  0.1107
14196TIP3    H264004   4.809   3.918  16.428  1.3722  0.8511 -0.8905
14197TIP3   OH264005   2.722   3.204   3.280  0.4257 -0.3252 -0.7079
14197TIP3    H164006   2.747   3.139   3.214  2.4437 -0.7291  0.3769
14197TIP3    H264007   2.648   3.165   3.326  0.1452 -0.8185 -1.5601
14198TIP3   OH264008   0.761   0.551  11.626 -0.4188  0.4814 -0.7612
14198TIP3    H164009   0.669   0.576  11.615 -0.7618 -0.6960 -0.7728
14198TIP3    H264010   0.765   0.461  11.593  0.7021  0.4498 -0.5789
14199TIP3   OH264011   0.969   1.313  13.711 -0.4900  0.3053  0.1890
14199TIP3    H164012   0.964   1.340  13.619  0.1466 -0.4580 -0.0780
14199TIP3    H264013   1.059   1.283  13.723 -1.0887 -1.4787  0.5083
14200TIP3   OH264014   1.208   5.141   0.348  0.2768  0.7521 -0.2559
14200TIP3    H164015   1.265   5.066   0.366 -0.8434 -0.4846 -1.6422
14200TIP3    H264016   1.216   5.195   0.426 -0.4632 -1.8169  1.7516
14201TIP3   OH264017   0.225   1.183  14.999 -0.2931  0.0737  0.3512
14201TIP3    H164018   0.257   1.096  14.975  2.5051  1.5927 -2.1679
14201TIP3    H264019   0.267   1.201  15.084  1.5218  0.0059 -0.4846
14202TIP3   OH264020   6.141   1.436   0.847  0.5630 -0.5162  0.0516
14202TIP3    H164021   6.060   1.477   0.820  1.4099  0.8443 -0.5385
14202TIP3    H264022   6.198   1.442   0.770  2.4886  2.0072  1.5094
14203TIP3   OH264023   1.193   1.482   5.671  0.2302 -0.0528 -0.0325
14203TIP3    H164024   1.179   1.474   5.765 -0.8117  0.5770 -0.1179
14203TIP3    H264025   1.121   1.433   5.631  0.2531  0.2806 -0.4955
14204TIP3   OH264026   6.799   3.531   6.127 -0.3362  0.1573  0.0385
14204TIP3    H164027   6.734   3.574   6.072  0.5814 -0.3789 -1.5314
14204TIP3    H264028   6.850   3.478   6.066  2.1847  1.2817  1.0441
14205TIP3   OH264029   2.350   3.067   0.404  0.1523 -0.4485 -0.0433
14205TIP3    H164030   2.258   3.093   0.410  0.0243 -0.6205 -1.0262
14205TIP3    H264031   2.348   2.973   0.389  0.4408 -0.3387 -0.8730
14206TIP3   OH264032   0.605   0.772   4.592 -0.5390  0.5461 -0.3287
14206TIP3    H164033   0.542   0.705   4.569  0.7633 -0.0128 -2.5111
14206TIP3    H264034   0.676   0.725   4.636 -1.3095  1.0901  1.6044
14207TIP3   OH264035   1.287   6.294   2.129 -0.2256  0.4036  0.2893
14207TIP3    H164036   1.199   6.313   2.097 -1.4620 -0.5447  2.8750
14207TIP3    H264037   1.291   6.333   2.216  1.7708  0.0767  0.4009
14208TIP3   OH264038   4.074   3.884   1.273  0.8104 -0.6290 -0.5849
14208TIP3    H164039   3.999   3.873   1.214  0.7853  0.7672 -0.8680
14208TIP3    H264040   4.113   3.968   1.245  2.0389 -0.9743  0.0363
14209TIP3   OH264041   4.048   5.910  14.736  0.2608  0.2190  0.5105
14209TIP3    H164042   3.999   5.852  14.794  0.3633  0.3413  0.7202
14209TIP3    H264043   4.002   5.993  14.740 -1.8423 -0.6579 -2.2829
14210TIP3   OH264044   2.483   0.217   2.995  0.3848 -0.3290  0.0940
14210TIP3    H164045   2.501   0.238   3.087 -0.6279  0.5219  0.1138
14210TIP3    H264046   2.415   0.150   2.998  0.4645 -0.4168 -0.0336
14211TIP3   OH264047   4.482   6.104  14.547 -0.8774  0.0086 -0.6430
14211TIP3    H164048   4.431   6.165  14.494 -1.4470  0.5008  0.4259
14211TIP3    H264049   4.571   6.140  14.546 -0.8070 -0.1725 -1.5157
14212TIP3   OH264050   0.127   4.886  12.313  0.0661 -0.5879  0.1962
14212TIP3    H164051   0.040   4.921  12.294  0.4644  0.8243  0.8463
14212TIP3    H264052   0.158   4.936  12.388  2.1193  0.1419 -1.0306
14213TIP3   OH264053   5.708   2.806  16.178 -0.5770  0.7678 -0.0530
14213TIP3    H164054   5.621   2.766  16.171  0.2315 -0.9641 -0.9262
14213TIP3    H264055   5.711   2.842  16.266 -2.1599  0.8226  0.0133
14214TIP3   OH264056   0.459   2.745   5.803 -0.5782  0.2700 -0.8332
14214TIP3    H164057   0.496   2.707   5.724 -0.6579 -1.1900 -0.1883
14214TIP3    H264058   0.373   2.704   5.812 -0.5432  0.3640  0.0495
14215TIP3   OH264059   1.431   4.064   5.773 -0.4750  0.0283  0.1616
14215TIP3    H164060   1.454   4.006   5.846 -0.7757 -0.3853 -0.0647
14215TIP3    H264061   1.501   4.129   5.770 -0.5292  0.1234  0.8969
14216TIP3   OH264062   1.730   6.211   4.428 -0.4587  0.3456  0.3829
14216TIP3    H164063   1.814   6.229   4.470  0.3242 -0.8566 -0.5766
14216TIP3    H264064   1.675   6.176   4.498 -0.1406  1.0618  1.0012
14217TIP3   OH264065   3.292   3.267  11.020  0.2527  0.4727 -0.4752
14217TIP3    H164066   3.244   3.208  10.961  1.4591  0.4588 -1.4819
14217TIP3    H264067   3.266   3.239  11.108  1.5275 -2.2871 -0.8563
14218TIP3   OH264068   3.571   6.124   1.134  0.3812 -0.3524  0.3555
14218TIP3    H164069   3.603   6.172   1.210 -1.2734 -0.0636  0.8910
14218TIP3    H264070   3.481   6.101   1.155  0.1343 -0.9561 -1.2023
14219TIP3   OH264071   1.362   2.715   5.482  0.0352 -0.0688 -0.3671
14219TIP3    H164072   1.315   2.767   5.547 -0.1208 -0.6870  0.0286
14219TIP3    H264073   1.325   2.627   5.491  1.6710 -0.7319  0.3765
14220TIP3   OH264074   3.354   4.657   3.765 -0.2862 -0.0152 -0.9045
14220TIP3    H164075   3.391   4.616   3.843 -1.1313  0.3169 -0.3193
14220TIP3    H264076   3.429   4.666   3.705  1.5508  3.8299  1.5462
14221TIP3   OH264077   5.945   5.082  16.253 -0.2909 -0.8467  0.0207
14221TIP3    H164078   5.971   5.047  16.338  0.0259  0.5930  0.5444
14221TIP3    H264079   5.866   5.132  16.270  0.2560  0.1740 -0.3431
14222TIP3   OH264080   4.997   3.867  12.094 -0.3475  0.3769 -0.3461
14222TIP3    H164081   4.906   3.887  12.113 -0.5889 -0.6462 -0.3296
14222TIP3    H264082   5.006   3.884  12.000 -0.6935  0.0160 -0.4492
14223TIP3   OH264083   0.017   0.932  11.903 -0.4850 -0.3413 -1.3172
14223TIP3    H164084   0.002   0.946  11.810  0.9516 -0.9418 -1.6797
14223TIP3    H264085  -0.019   0.845  11.921 -0.6806 -0.2636 -1.3391
14224TIP3   OH264086   3.773   0.367  14.600 -0.6396  0.5036  0.0984
14224TIP3    H164087   3.782   0.288  14.654  1.2117  0.2225 -0.5757
14224TIP3    H264088   3.711   0.343  14.532  2.2239 -1.5638 -2.0332
14225TIP3   OH264089   3.759   1.303  16.123  0.7241  0.1169 -0.4447
14225TIP3    H164090   3.759   1.235  16.055 -3.9464  0.6237 -1.2275
14225TIP3    H264091   3.759   1.255  16.206  1.9188 -0.6219 -0.8467
14226TIP3   OH264092   6.180   3.418   0.377 -0.0317  0.7447 -0.0100
14226TIP3    H164093   6.150   3.399   0.288  1.0757 -1.1618 -0.0294
14226TIP3    H264094   6.100   3.419   0.429 -0.5357  0.0028 -0.7380
14227TIP3   OH264095   0.257   4.292   4.983 -0.0687  0.3961 -0.2078
14227TIP3    H164096   0.327   4.354   4.964  0.6466  0.3189  1.9734
14227TIP3    H264097   0.227   4.263   4.897  2.3941  0.6158 -1.2147
14228TIP3   OH264098   0.618   1.142   2.363 -0.5901 -0.5167 -0.0036
14228TIP3    H164099   0.686   1.100   2.310  1.5677  0.0932  2.0950
14228TIP3    H264100   0.605   1.083   2.437 -0.1513  0.7431  1.1178
14229TIP3   OH264101   0.945   4.235  15.230 -0.0913 -0.4000 -0.2239
14229TIP3    H164102   0.911   4.259  15.316  2.2227 -0.0892  0.6669
14229TIP3    H264103   1.040   4.227  15.242  0.4790  0.7698 -2.9711
14230TIP3   OH264104   2.837   2.970   0.218  0.0590  0.0473  0.2595
14230TIP3    H164105   2.855   3.051   0.267 -0.0662  0.9789 -1.1788
14230TIP3    H264106   2.924   2.937   0.194  0.0894  0.0947  0.3038
14231TIP3   OH264107   1.494   3.349   0.169  0.8369 -0.6118  0.6947
14231TIP3    H164108   1.502   3.436   0.208  1.5419 -0.7760  0.9319
14231TIP3    H264109   1.555   3.350   0.096  1.1267 -1.0334  0.9284
14232TIP3   OH264110   4.982   1.092  13.876  0.1028 -0.1438  0.0069
14232TIP3    H164111   4.962   1.070  13.785 -0.4170 -0.1008  0.1087
14232TIP3    H264112   4.897   1.098  13.919  0.3962 -1.7073  0.8689
14233TIP3   OH264113   5.563   5.924   1.554 -0.3387 -0.0813  0.2437
14233TIP3    H164114   5.597   5.870   1.626  2.8068  1.8956  0.4677
14233TIP3    H264115   5.564   5.866   1.479 -0.1018 -1.2052  1.0799
14234TIP3   OH264116   2.525   2.761  12.659  0.2604  0.2959  0.3852
14234TIP3    H164117   2.578   2.697  12.612  2.5344  2.0352  0.4015
14234TIP3    H264118   2.532   2.735  12.751 -1.1851 -1.0012  0.1672
14235TIP3   OH264119   0.659   1.636  16.234  0.2150  0.1924 -0.3463
14235TIP3    H164120   0.628   1.578  16.303  0.2627  0.5276 -0.0367
14235TIP3    H264121   0.579   1.679  16.201  0.3149  0.9426  0.3447
14236TIP3   OH264122   0.546   4.835  15.464 -0.0809  0.0871 -0.3814
14236TIP3    H164123   0.480   4.901  15.485  0.7440  1.2375 -1.2806
14236TIP3    H264124   0.629   4.874  15.494  0.4395 -0.4420 -1.1058
14237TIP3   OH264125   0.730   3.893  15.100 -0.0103  0.9207  0.1065
14237TIP3    H164126   0.667   3.961  15.076  0.5002  0.7697 -1.8573
14237TIP3    H264127   0.701   3.863  15.186 -1.0411  2.6706  0.4319
14238TIP3   OH264128   3.454   6.797  16.151 -1.6808  0.2542 -0.2962
14238TIP3    H164129   3.476   6.722  16.095 -1.3340 -0.1579  0.3719
14238TIP3    H264130   3.536   6.820  16.195 -1.8773  0.7634 -0.1862
14239TIP3   OH264131   0.475   6.605  14.748  0.5255  0.2155 -0.3678
14239TIP3    H164132   0.416   6.538  14.782 -2.0412  1.1944 -2.5418
14239TIP3    H264133   0.424   6.686  14.749  2.6075  1.6071 -0.3350
14240TIP3   OH264134   2.428   6.000  11.286  0.0863 -0.8315  0.4136
14240TIP3    H164135   2.396   5.950  11.210 -1.6113  1.7342 -0.6863
14240TIP3    H264136   2.496   6.057  11.249  0.6705 -0.9533  1.2693
14241TIP3   OH264137   1.256   3.847  16.933 -0.0981  0.1836  0.3009
14241TIP3    H164138   1.200   3.788  16.984  0.9767 -2.0451 -0.9669
14241TIP3    H264139   1.339   3.800  16.924  0.4562  1.4271 -1.6897
14242TIP3   OH264140   1.510   0.338  11.084  0.0785  0.1323 -0.7421
14242TIP3    H164141   1.472   0.414  11.040  1.8259  0.9709 -0.8802
14242TIP3    H264142   1.603   0.357  11.090  0.5215 -1.8372 -0.4276
14243TIP3   OH264143   6.509   3.843  16.656 -0.4526 -0.3038  0.2547
14243TIP3    H164144   6.498   3.805  16.569 -1.7760  1.2322 -0.3031
14243TIP3    H264145   6.428   3.822  16.702 -0.4830  0.3489  0.5104
14244TIP3   OH264146   3.048   6.629  14.469  0.2273 -0.2207 -0.8425
14244TIP3    H164147   3.088   6.713  14.491  1.7782 -0.9510 -0.7492
14244TIP3    H264148   3.007   6.600  14.550 -0.9941  0.7642 -1.0674
14245TIP3   OH264149   0.112   3.541   2.956  0.5562 -0.0465  0.7555
14245TIP3    H164150   0.114   3.634   2.932  2.3035 -0.6604 -1.8775
14245TIP3    H264151   0.023   3.513   2.934  1.4425 -0.0746 -3.7021
14246TIP3   OH264152   0.566   2.617  16.631 -0.4458  1.1949 -0.0540
14246TIP3    H164153   0.661   2.629  16.639 -0.2619 -0.1921  0.1051
14246TIP3    H264154   0.552   2.607  16.536 -0.3217  0.6469 -0.0189
14247TIP3   OH264155   6.144   5.891  14.516 -0.0931  0.3804  0.8225
14247TIP3    H164156   6.195   5.937  14.450  2.4090  0.2385  2.5380
14247TIP3    H264157   6.121   5.808  14.475 -1.5147  1.5864 -0.9984
14248TIP3   OH264158   5.001   3.578  11.677  0.3097  0.5069 -0.4093
14248TIP3    H164159   5.039   3.491  11.686 -0.2467  0.3084  0.0974
14248TIP3    H264160   5.068   3.637  11.711 -0.7599 -0.0306  3.0355
14249TIP3   OH264161   3.875   5.504   3.508  0.5331 -0.6335  0.3363
14249TIP3    H164162   3.867   5.419   3.551  1.0378  0.3616  2.4926
14249TIP3    H264163   3.785   5.538   3.506  0.4261 -0.9214  0.0558
14250TIP3   OH264164   1.603   2.165  15.551  0.2504  0.2905 -0.4340
14250TIP3    H164165   1.568   2.150  15.639 -0.8561 -0.2066 -0.9332
14250TIP3    H264166   1.584   2.257  15.533  0.4435  0.3824 -0.1622
14251TIP3   OH264167   0.192   6.268   5.666 -0.1035  0.2356  0.9985
14251TIP3    H164168   0.194   6.173   5.666 -0.0513  0.2016 -0.9106
14251TIP3    H264169   0.276   6.294   5.629  0.1920  1.0619  2.1988
14252TIP3   OH264170   2.191   1.024   2.245  0.0735  0.0509 -0.5088
14252TIP3    H164171   2.207   0.951   2.305 -0.3373 -0.3996 -0.9503
14252TIP3    H264172   2.214   0.991   2.159 -0.2041  0.4113 -0.7251
14253TIP3   OH264173   5.699   0.258   5.194 -0.1291  0.7557 -0.3438
14253TIP3    H164174   5.730   0.314   5.265  1.7692 -1.5673  0.8330
14253TIP3    H264175   5.648   0.189   5.239  1.1251 -0.7729 -1.1642
14254TIP3   OH264176   4.202   1.807  15.663 -0.1802  0.1486 -0.3087
14254TIP3    H164177   4.119   1.768  15.693 -0.2102  0.2389 -0.2722
14254TIP3    H264178   4.246   1.834  15.744 -0.7795  1.4489 -0.3954
14255TIP3   OH264179   3.594   5.948  16.366 -0.1241  0.3136  0.2861
14255TIP3    H164180   3.633   5.968  16.451  0.0112  0.7078  0.1357
14255TIP3    H264181   3.582   6.034  16.325  2.6012  0.0283 -1.3468
14256TIP3   OH264182   4.999   2.159  11.406  0.4369  0.1015 -0.1968
14256TIP3    H164183   5.043   2.105  11.472 -0.2961 -2.2821 -1.5562
14256TIP3    H264184   4.906   2.148  11.424  0.2593  1.0919 -0.4143
14257TIP3   OH264185   5.608   0.467  16.469 -0.0466 -0.2673  0.4563
14257TIP3    H164186   5.559   0.545  16.494 -0.1161 -0.2351  0.2202
14257TIP3    H264187   5.591   0.457  16.375  1.1844  0.3199  0.1454
14258TIP3   OH264188   5.966   2.473  12.689  0.0720  0.5309  0.7236
14258TIP3    H164189   5.928   2.561  12.681 -1.7776 -0.2675  0.3209
14258TIP3    H264190   5.895   2.414  12.668  0.0493 -1.2641  4.8242
14259TIP3   OH264191   6.379   3.719   2.126  0.6657 -0.2707 -0.1877
14259TIP3    H164192   6.436   3.665   2.180 -0.7897  0.5731  2.3970
14259TIP3    H264193   6.428   3.800   2.112  0.8434 -0.2823  0.3715
14260TIP3   OH264194   1.438   1.162  13.161  0.4790 -0.3324  0.3825
14260TIP3    H164195   1.462   1.073  13.134  0.6828 -0.3259  0.5452
14260TIP3    H264196   1.489   1.178  13.240  0.3413 -0.1187  0.4289
14261TIP3   OH264197   4.875   0.698  14.232  0.5704  0.7741 -0.1291
14261TIP3    H164198   4.958   0.734  14.264  0.8261 -0.2658  0.4265
14261TIP3    H264199   4.817   0.700  14.308  1.2771 -2.0077  0.6283
14262TIP3   OH264200   0.441   3.797  16.734  0.3738  0.4392  0.9666
14262TIP3    H164201   0.437   3.869  16.672 -0.8540 -0.5695 -0.1730
14262TIP3    H264202   0.420   3.719  16.683  0.4033 -0.5804  2.4268
14263TIP3   OH264203   4.922   6.565   5.984 -0.1472  0.3121 -0.1730
14263TIP3    H164204   4.955   6.652   6.005  0.8938  0.1008 -0.8975
14263TIP3    H264205   4.827   6.574   5.988 -0.0664  1.6193 -0.7799
14264TIP3   OH264206   4.186   2.602  16.845 -0.5189  0.2978  0.0730
14264TIP3    H164207   4.185   2.605  16.941 -1.1209  0.8049  0.0563
14264TIP3    H264208   4.279   2.603  16.822 -0.3759  0.4760  0.6432
14265TIP3   OH264209   3.758   1.556   2.990  0.7418  0.1126 -0.9371
14265TIP3    H164210   3.818   1.587   3.058  0.7109 -1.2886 -0.2275
14265TIP3    H264211   3.808   1.491   2.941  0.0220 -0.5887 -0.7645
14266TIP3   OH264212   4.447   2.697   5.900  0.4954  0.2341 -0.0806
14266TIP3    H164213   4.452   2.637   5.826 -2.8698  0.1304 -0.3587
14266TIP3    H264214   4.419   2.643   5.974 -1.0304  1.1560  0.0472
14267TIP3   OH264215   5.474   5.360   3.345  0.0859 -0.0821 -0.1576
14267TIP3    H164216   5.568   5.344   3.358 -0.3740 -1.7352  1.5275
14267TIP3    H264217   5.458   5.335   3.254  1.1933 -0.2111 -0.3341
14268TIP3   OH264218   1.190   3.031  14.436  0.0896 -0.0037 -0.4954
14268TIP3    H164219   1.096   3.011  14.439  0.1447 -0.1956  0.6392
14268TIP3    H264220   1.231   2.950  14.407 -0.0570 -0.1184 -0.3905
14269TIP3   OH264221   4.732   4.866   4.260 -0.0462  0.1535 -0.0860
14269TIP3    H164222   4.679   4.874   4.181 -2.0613  0.6847  1.2419
14269TIP3    H264223   4.729   4.952   4.300 -1.2842 -0.7466  1.8836
14270TIP3   OH264224   2.319   1.376  10.729 -0.0012  0.5361 -0.5919
14270TIP3    H164225   2.365   1.446  10.776  0.5831  1.3138 -2.2736
14270TIP3    H264226   2.357   1.376  10.642 -1.5754 -0.3877 -1.3174
14271TIP3   OH264227   0.728   2.862   2.284  0.4130  0.1973 -0.1657
14271TIP3    H164228   0.800   2.860   2.346  0.6903  0.1112 -0.4914
14271TIP3    H264229   0.696   2.772   2.281  0.3483  0.2173 -0.0887
14272TIP3   OH264230   1.494   3.403   3.916  0.3248  0.5192 -0.3678
14272TIP3    H164231   1.533   3.483   3.950 -0.7601  0.3226  1.4548
14272TIP3    H264232   1.519   3.336   3.979 -1.8839  0.1650  0.2021
14273TIP3   OH264233   4.153   3.019  12.890 -0.0086  0.6614  0.1758
14273TIP3    H164234   4.199   3.085  12.941 -3.4853  3.2599  0.3833
14273TIP3    H264235   4.112   2.962  12.955  1.1766 -0.3967  0.0347
14274TIP3   OH264236   5.993   2.882   0.265 -0.9667  0.5741 -0.4514
14274TIP3    H164237   5.924   2.871   0.200  0.2039 -1.3348 -1.4823
14274TIP3    H264238   6.074   2.861   0.217  0.0762  0.4865  1.2669
14275TIP3   OH264239   2.138   6.341  15.423  0.0953 -0.2358 -0.1800
14275TIP3    H164240   2.051   6.320  15.389 -0.7368  1.4989  0.7123
14275TIP3    H264241   2.125   6.352  15.518  1.5459 -1.1430  0.1499
14276TIP3   OH264242   4.199   1.459   0.398 -0.3780  0.0656 -0.0913
14276TIP3    H164243   4.252   1.404   0.455  0.4044  2.0678  1.2256
14276TIP3    H264244   4.207   1.419   0.311  0.1337 -1.8519  0.7971
14277TIP3   OH264245   5.153   4.371  13.071 -0.0846  0.2035 -0.7585
14277TIP3    H164246   5.175   4.311  13.142 -0.7646  0.5779 -0.2192
14277TIP3    H264247   5.236   4.391  13.029  0.3483  0.1333  0.0556
14278TIP3   OH264248   1.408   3.675  12.291 -0.2686  0.8141 -0.6532
14278TIP3    H164249   1.419   3.710  12.202  0.8835  1.1509 -0.3939
14278TIP3    H264250   1.469   3.725  12.344 -2.8043  2.4802  0.9052
14279TIP3   OH264251   6.750   6.795   2.867 -0.3797 -0.2221 -1.0466
14279TIP3    H164252   6.833   6.834   2.837  0.3384 -0.9011 -0.0044
14279TIP3    H264253   6.726   6.846   2.944 -1.3956  0.5072 -1.8224
14280TIP3   OH264254   5.268   2.032  14.468 -0.0511 -0.1875  0.6088
14280TIP3    H164255   5.313   1.958  14.508 -1.6215 -1.3802  0.3006
14280TIP3    H264256   5.175   2.015  14.485 -0.5838  0.6451 -1.2199
14281TIP3   OH264257   0.956   2.771   2.459  0.2092  0.0372 -0.5002
14281TIP3    H164258   0.954   2.731   2.372 -0.0500 -0.9446 -0.0580
14281TIP3    H264259   1.046   2.758   2.488  0.8075  1.9773 -1.3230
14282TIP3   OH264260   5.199   1.251   0.095  0.1682 -0.0813  0.1232
14282TIP3    H164261   5.130   1.245   0.162  0.3446  1.1986  0.4447
14282TIP3    H264262   5.152   1.268   0.014  0.1137  1.8938  0.5139
14283TIP3   OH264263   6.345   1.265   4.760 -0.1797 -0.7715  0.0438
14283TIP3    H164264   6.418   1.230   4.709 -0.7868  0.0118 -1.4218
14283TIP3    H264265   6.267   1.241   4.711 -0.6644  2.0653 -0.7738
14284TIP3   OH264266   5.763   1.710  10.890 -0.0881 -0.2066 -0.0524
14284TIP3    H164267   5.673   1.682  10.875 -0.8478  1.9926  0.0116
14284TIP3    H264268   5.777   1.782  10.828  2.1052 -1.3023 -0.9681
14285TIP3   OH264269   5.524   4.271   2.620  0.3578  0.0194  0.0788
14285TIP3    H164270   5.462   4.202   2.643  0.7355  0.1026  1.4175
14285TIP3    H264271   5.602   4.224   2.592 -0.4148 -0.0905 -2.0608
14286TIP3   OH264272   2.742   3.782   2.453 -0.3423 -0.3536  0.1014
14286TIP3    H164273   2.728   3.720   2.382 -0.7214 -0.6459  0.4277
14286TIP3    H264274   2.680   3.853   2.436  0.0746 -0.0626 -0.2582
14287TIP3   OH264275   5.140   6.793  13.424  0.2541  0.0949  0.5856
14287TIP3    H164276   5.091   6.875  13.415  0.1208 -0.0337  0.0929
14287TIP3    H264277   5.231   6.818  13.408  0.0686 -0.0587 -0.8179
14288TIP3   OH264278   2.069   5.836   1.288 -0.3916  0.3378 -0.5562
14288TIP3    H164279   2.094   5.925   1.264 -3.3409  0.9140 -1.9256
14288TIP3    H264280   2.109   5.781   1.221 -0.9329  0.9748 -1.4196
14289TIP3   OH264281   1.218   3.498   2.732  0.3263 -0.2743  0.2105
14289TIP3    H164282   1.165   3.460   2.802 -0.5804 -1.0282 -0.8345
14289TIP3    H264283   1.288   3.434   2.718  0.0028 -0.5607 -0.1398
14290TIP3   OH264284   4.808   6.201   0.441  0.1841  0.2594 -0.1821
14290TIP3    H164285   4.880   6.224   0.382  0.6442 -0.5225  0.0629
14290TIP3    H264286   4.731   6.241   0.401  0.0024 -2.3156 -2.7639
14291TIP3   OH264287   0.091   2.391   2.497 -0.0777 -0.0252 -0.1379
14291TIP3    H164288   0.015   2.335   2.478 -1.6029  1.4536  1.2689
14291TIP3    H264289   0.125   2.358   2.580 -1.3482  1.4220  1.0044
14292TIP3   OH264290   4.497   1.275   4.429 -0.0535  0.4902 -0.2131
14292TIP3    H164291   4.515   1.263   4.523 -2.7791  1.0536  0.4558
14292TIP3    H264292   4.584   1.270   4.388  0.9736 -3.6511  1.8432
14293TIP3   OH264293   5.621   0.025  13.846  0.0700  0.2863  0.0213
14293TIP3    H164294   5.534   0.035  13.884 -0.0007 -0.2569  0.0101
14293TIP3    H264295   5.605   0.004  13.754  0.1333 -2.0820  0.4953
14294TIP3   OH264296   3.639   0.509   4.303  0.3147 -0.4082  0.0099
14294TIP3    H164297   3.556   0.467   4.328 -0.1917  0.1097 -0.7683
14294TIP3    H264298   3.680   0.533   4.386 -0.8625  0.3642  0.3906
14295TIP3   OH264299   1.812   0.172  11.604 -0.1093  0.2503  0.2252
14295TIP3    H164300   1.825   0.261  11.570  2.0013 -0.8397 -2.1304
14295TIP3    H264301   1.893   0.153  11.652  0.4211 -1.1218 -1.1439
14296TIP3   OH264302   4.084   2.924  15.964  0.5372  0.4890  0.5010
14296TIP3    H164303   4.096   2.831  15.986  1.0894  0.6637  0.9800
14296TIP3    H264304   3.999   2.947  16.002 -0.6973 -0.3786 -1.5715
14297TIP3   OH264305   3.165   5.696   1.362  0.6109 -0.0215 -0.4045
14297TIP3    H164306   3.176   5.651   1.446 -3.9516 -0.8677  0.0329
14297TIP3    H264307   3.115   5.774   1.383  0.8912  0.6802 -2.1583
14298TIP3   OH264308   6.727   4.785  15.120  0.6392 -0.6259 -0.1704
14298TIP3    H164309   6.742   4.865  15.170 -1.3950 -0.9882  1.1697
14298TIP3    H264310   6.691   4.814  15.037 -0.3160 -0.1079  0.4029
14299TIP3   OH264311   0.034   5.550  15.532  0.0108 -0.1060  0.3528
14299TIP3    H164312  -0.057   5.568  15.555 -0.1977  0.9827 -1.1686
14299TIP3    H264313   0.086   5.596  15.599 -0.5582  0.0060  0.7191
14300TIP3   OH264314   3.194   4.210  14.575  0.3660  0.7867 -0.9908
14300TIP3    H164315   3.185   4.220  14.480 -1.4774  0.3892 -0.9093
14300TIP3    H264316   3.176   4.297  14.610 -1.2252  0.4615 -0.9324
14301TIP3   OH264317   0.251   1.930  11.720 -0.2093 -0.3171 -0.4874
14301TIP3    H164318   0.197   2.009  11.726 -1.6590 -1.3260  0.3150
14301TIP3    H264319   0.292   1.923  11.805 -1.5717 -1.4078  0.1211
14302TIP3   OH264320   0.007   4.123  15.941 -0.6029 -0.4144  0.6281
14302TIP3    H164321   0.098   4.148  15.928 -0.6581 -0.5181 -0.0134
14302TIP3    H264322  -0.043   4.194  15.900 -0.7715 -1.1833 -0.5692
14303TIP3   OH264323   1.884   4.883  15.123 -0.1926 -0.6721  0.0371
14303TIP3    H164324   1.812   4.879  15.186  0.7907  0.3233  1.2892
14303TIP3    H264325   1.857   4.950  15.060 -0.6090 -0.7047  0.1783
14304TIP3   OH264326   0.266   5.253  16.694 -0.4429  0.2157 -0.8989
14304TIP3    H164327   0.329   5.315  16.731 -1.2897  1.0957 -0.8953
14304TIP3    H264328   0.257   5.185  16.760 -0.1495  0.5444 -0.5193
14305TIP3   OH264329   3.170   4.236   3.791  0.1589 -0.0829  0.0725
14305TIP3    H164330   3.221   4.278   3.722  0.8601  1.1719  1.3026
14305TIP3    H264331   3.139   4.308   3.845 -1.4181 -0.9601  0.3932
14306TIP3   OH264332   0.132   2.814  15.347  0.1529  0.4079  0.0585
14306TIP3    H164333   0.127   2.741  15.408  0.2789 -1.4243 -2.0092
14306TIP3    H264334   0.223   2.841  15.349 -0.3394  2.2401  2.6373
14307TIP3   OH264335   2.477   4.969  12.275 -0.4975 -0.7786  0.6723
14307TIP3    H164336   2.570   4.966  12.253 -0.5998 -1.2491  0.2877
14307TIP3    H264337   2.473   4.944  12.367 -0.1910 -0.1533  0.8624
14308TIP3   OH264338   6.465   3.349  13.528  0.2590 -0.1363 -0.4915
14308TIP3    H164339   6.390   3.297  13.557 -0.9161  1.3350 -0.7810
14308TIP3    H264340   6.489   3.400  13.605 -0.0612  0.5464 -0.8329
14309TIP3   OH264341   2.845   0.032   1.339  0.6925  0.1737  0.4474
14309TIP3    H164342   2.837   0.127   1.333 -2.4240  0.1357  2.1042
14309TIP3    H264343   2.818   0.011   1.428  2.0308 -2.2543  0.3687
14310TIP3   OH264344   2.752   0.593  16.270 -0.1696 -0.1287  0.1400
14310TIP3    H164345   2.799   0.676  16.269 -0.8349  0.2752  1.2507
14310TIP3    H264346   2.680   0.606  16.332 -1.7131 -0.7546 -1.4316
14311TIP3   OH264347   3.219   5.672  14.369  0.7646  0.0047 -0.3502
14311TIP3    H164348   3.212   5.685  14.463  2.2399 -0.8770 -0.0881
14311TIP3    H264349   3.261   5.586  14.359 -1.9750 -1.3007 -1.8654
14312TIP3   OH264350   6.311   5.687   0.891  0.1436  0.1672 -0.8189
14312TIP3    H164351   6.396   5.646   0.878 -0.6966 -1.6954 -0.7529
14312TIP3    H264352   6.254   5.645   0.827 -1.3642 -0.6778  0.9855
14313TIP3   OH264353   4.011   1.123  15.933 -0.0103 -0.2446 -0.2473
14313TIP3    H164354   4.081   1.058  15.934 -0.5804 -0.9533 -2.2711
14313TIP3    H264355   4.057   1.207  15.928  0.7038 -0.6073  0.0482
14314TIP3   OH264356   6.672   4.820  15.799 -0.6177 -0.4129  0.4078
14314TIP3    H164357   6.616   4.881  15.751  0.2133  0.0181 -0.0247
14314TIP3    H264358   6.755   4.822  15.753 -0.4575 -1.5976  0.6177
14315TIP3   OH264359   6.568   4.174   4.431 -0.1127 -1.0830  0.4077
14315TIP3    H164360   6.535   4.086   4.415 -0.9622 -0.4978 -1.3132
14315TIP3    H264361   6.650   4.178   4.382 -0.3643 -0.7549  0.0019
14316TIP3   OH264362   0.522   2.029  14.339  0.6918  0.1758 -0.5811
14316TIP3    H164363   0.552   2.088  14.409 -1.4026  0.7738 -0.1262
14316TIP3    H264364   0.549   2.073  14.258 -0.6795  1.7241 -0.2452
14317TIP3   OH264365   2.353   6.775   0.033  1.0333 -0.1251  0.0937
14317TIP3    H164366   2.382   6.819   0.114 -1.3001 -1.1371  1.5815
14317TIP3    H264367   2.286   6.834  -0.002  0.4810 -0.7472  0.1054
14318TIP3   OH264368   1.411   0.009  11.461 -0.3297 -0.4057 -0.2158
14318TIP3    H164369   1.377  -0.013  11.374 -0.3746  1.6527 -0.7704
14318TIP3    H264370   1.334   0.009  11.518 -0.1988 -2.5100  0.0533
14319TIP3   OH264371   0.141   5.076   1.334 -0.5427 -0.2833 -0.5806
14319TIP3    H164372   0.168   5.013   1.400 -0.1260  0.5565  0.0630
14319TIP3    H264373   0.175   5.041   1.252  0.2788 -0.5469 -0.1344
14320TIP3   OH264374   0.434   3.753   3.279 -0.6636  0.5888  0.8549
14320TIP3    H164375   0.468   3.678   3.327  0.1776  0.0895 -0.4597
14320TIP3    H264376   0.339   3.739   3.275 -0.5323 -0.3422  0.7562
14321TIP3   OH264377   2.759   6.671   2.629  0.2237  0.0603  0.2280
14321TIP3    H164378   2.845   6.691   2.591  0.6033  0.1619  1.1317
14321TIP3    H264379   2.740   6.745   2.686  0.7906 -1.2079  2.1453
14322TIP3   OH264380   0.777   1.229  14.207  0.2584 -0.6951  0.2539
14322TIP3    H164381   0.697   1.194  14.247  0.9677 -2.8308 -0.0530
14322TIP3    H264382   0.796   1.308  14.256 -1.2907 -0.9023  1.2478
14323TIP3   OH264383   3.953   2.391  16.016 -0.1944  0.4275 -0.0718
14323TIP3    H164384   3.908   2.322  16.063  1.0110 -0.3445  0.0015
14323TIP3    H264385   3.927   2.472  16.060 -2.4826  0.1712 -0.8449
14324TIP3   OH264386   0.464   3.074  15.553  0.0624 -0.2758 -0.1443
14324TIP3    H164387   0.496   3.160  15.526  2.5924 -0.7711  0.9934
14324TIP3    H264388   0.539   3.033  15.596 -1.2851 -2.7884 -0.0166
14325TIP3   OH264389   4.089   3.040   1.134  0.0973  0.2152  0.1628
14325TIP3    H164390   4.098   3.119   1.187  0.4723 -0.1971  0.7201
14325TIP3    H264391   4.012   3.057   1.079  0.1046  0.9160  0.3597
14326TIP3   OH264392   2.617   3.308   2.934 -0.3216 -0.0368 -0.2916
14326TIP3    H164393   2.663   3.228   2.908  0.4797 -0.2205  1.5364
14326TIP3    H264394   2.668   3.342   3.007 -2.3723  0.4727  0.9832
14327TIP3   OH264395   2.433   5.027   2.675 -0.4135  0.1972  0.4993
14327TIP3    H164396   2.500   4.962   2.698  1.0968  1.0265 -1.2664
14327TIP3    H264397   2.460   5.058   2.588 -2.5074  1.3746  0.2230
14328TIP3   OH264398   2.575   6.611  14.627  0.5667 -0.2406  0.0988
14328TIP3    H164399   2.484   6.613  14.597  0.4982  2.5905  0.3011
14328TIP3    H264400   2.620   6.559  14.560 -0.7295  0.5790 -1.4915
14329TIP3   OH264401   5.842   4.058  11.913  0.1286 -0.0853 -0.1044
14329TIP3    H164402   5.872   4.075  12.003 -0.3231 -1.1639  0.2782
14329TIP3    H264403   5.911   4.003  11.876  0.0709 -0.0698 -0.2331
14330TIP3   OH264404   4.474   1.671   0.084  0.2875 -0.1308 -0.7545
14330TIP3    H164405   4.410   1.611   0.046  2.6231 -1.9335 -2.1434
14330TIP3    H264406   4.446   1.681   0.175 -1.9475 -0.7749 -1.3015
14331TIP3   OH264407   1.299   0.263   0.608 -0.0315  0.3731  0.1293
14331TIP3    H164408   1.383   0.242   0.649  0.0526  2.0828  0.9237
14331TIP3    H264409   1.236   0.257   0.680 -0.1031  1.9648  0.2461
14332TIP3   OH264410   4.031   4.400  16.399  0.0573  0.8259 -0.1323
14332TIP3    H164411   4.019   4.308  16.376  2.4163  0.4632 -0.1421
14332TIP3    H264412   3.946   4.427  16.433 -0.4423 -1.6267  0.7969
14333TIP3   OH264413   5.277   0.319   3.932  0.5395  0.4189  0.5825
14333TIP3    H164414   5.215   0.268   3.985  1.8795 -0.5670  1.2809
14333TIP3    H264415   5.237   0.405   3.924 -2.2385 -0.9334 -1.4033
14334TIP3   OH264416   2.137   2.104   3.034  0.4591  0.3181  0.1890
14334TIP3    H164417   2.115   2.018   3.070  0.6607  0.1803 -0.0134
14334TIP3    H264418   2.089   2.166   3.088  1.8015  0.2053  1.5680
14335TIP3   OH264419   1.642   6.273  12.714  0.5550 -0.3984  0.1031
14335TIP3    H164420   1.701   6.248  12.643 -0.3953 -1.1298 -0.4512
14335TIP3    H264421   1.633   6.368  12.706  0.5783 -0.4601 -0.6518
14336TIP3   OH264422   2.241   1.942   5.394 -0.3528  0.4429 -0.1137
14336TIP3    H164423   2.326   1.900   5.378  0.3242  2.1534 -1.3977
14336TIP3    H264424   2.207   1.961   5.306 -1.8426  0.2598  0.3936
14337TIP3   OH264425   3.551   6.701  12.889 -0.2042 -0.4847 -0.1799
14337TIP3    H164426   3.549   6.744  12.975 -0.6609  0.6737 -0.7435
14337TIP3    H264427   3.460   6.676  12.873 -0.2681  0.0214 -0.6570
14338TIP3   OH264428   4.293   2.809   0.249 -0.0418 -0.7335 -0.7158
14338TIP3    H164429   4.198   2.805   0.241 -0.3209  1.5432  0.6577
14338TIP3    H264430   4.312   2.786   0.340  0.4850  0.9280 -0.3706
14339TIP3   OH264431   5.867   3.372  13.355 -0.2481 -0.3262  0.6395
14339TIP3    H164432   5.819   3.450  13.326 -2.6395 -1.6201  0.8115
14339TIP3    H264433   5.954   3.381  13.315 -0.5536  2.2258  0.3840
14340TIP3   OH264434   6.292   5.104   0.729  0.0694  0.0765 -0.7783
14340TIP3    H164435   6.281   5.196   0.707 -2.5672  0.1353  0.3515
14340TIP3    H264436   6.326   5.105   0.819  0.1814 -0.0524 -0.8191
14341TIP3   OH264437   5.163   4.750  11.912  0.1956  0.0038  0.5580
14341TIP3    H164438   5.134   4.662  11.889 -0.6536  0.3625  0.2160
14341TIP3    H264439   5.095   4.785  11.969  0.0068  0.7990 -0.1242
14342TIP3   OH264440   6.661   4.222  12.623 -0.4741 -0.2721 -0.0467
14342TIP3    H164441   6.680   4.165  12.548 -1.3423  1.4247 -1.6508
14342TIP3    H264442   6.625   4.301  12.584  0.3229  1.2498  2.1135
14343TIP3   OH264443   4.394   6.642   3.383 -0.3101  0.0608  0.4102
14343TIP3    H164444   4.445   6.588   3.323  2.8328  0.3107  2.6464
14343TIP3    H264445   4.431   6.730   3.374 -1.4398  0.6208  1.0091
14344TIP3   OH264446   0.873   4.827  10.980 -0.1116 -0.5301 -0.0555
14344TIP3    H164447   0.929   4.854  10.907  0.1149 -2.4352 -0.6427
14344TIP3    H264448   0.890   4.891  11.049  2.8719 -1.0504 -0.1827
14345TIP3   OH264449   2.909   2.581   1.593 -0.3116 -0.2262 -0.2132
14345TIP3    H164450   2.926   2.675   1.587  0.2606 -0.2924  0.2709
14345TIP3    H264451   2.929   2.548   1.505 -1.2559  0.2110 -0.6019
14346TIP3   OH264452   1.792   1.854  14.174 -0.4309 -0.1476  0.2707
14346TIP3    H164453   1.825   1.764  14.184 -0.1945  0.1781  2.8674
14346TIP3    H264454   1.698   1.846  14.185 -0.4523 -0.1085  0.1205
14347TIP3   OH264455   4.822   3.291   3.428  0.4652 -0.1703  0.2280
14347TIP3    H164456   4.888   3.295   3.358 -0.9818 -0.2217 -1.2037
14347TIP3    H264457   4.800   3.198   3.435  2.0265 -0.4621  2.2186
14348TIP3   OH264458   6.331   5.905  12.375  0.7599  0.2001 -0.1223
14348TIP3    H164459   6.338   5.876  12.466  0.5265 -1.9863 -0.7644
14348TIP3    H264460   6.422   5.925  12.349  1.0467 -0.8143  0.0772
14349TIP3   OH264461   6.345   3.231  12.671 -0.6339  0.3304 -0.4585
14349TIP3    H164462   6.281   3.232  12.600 -1.4201  1.4791  0.2245
14349TIP3    H264463   6.415   3.289  12.641  0.0045 -0.7557 -1.1155
14350TIP3   OH264464   3.103   6.487  12.686  0.1656 -0.2046 -0.5252
14350TIP3    H164465   3.164   6.419  12.659  0.0950 -0.4340 -0.1210
14350TIP3    H264466   3.018   6.458  12.654 -0.0858 -0.9756  0.7623
14351TIP3   OH264467   2.847   0.503  12.250  0.0595  0.0482  0.0643
14351TIP3    H164468   2.867   0.501  12.156  2.7652  1.2785  0.5096
14351TIP3    H264469   2.863   0.594  12.276 -1.2266 -0.1296  1.6262
14352TIP3   OH264470   2.991   0.819  10.411  0.2402  0.4111 -0.0912
14352TIP3    H164471   2.972   0.866  10.491  0.0664  0.0110  0.1083
14352TIP3    H264472   3.000   0.887  10.344 -1.9189  0.6541 -0.2090
14353TIP3   OH264473   1.343   6.230   1.181 -0.0935  0.7347  0.1667
14353TIP3    H164474   1.437   6.219   1.194  0.4561  1.6641 -2.3297
14353TIP3    H264475   1.333   6.232   1.086 -2.6741  0.5499  0.3800
14354TIP3   OH264476   4.829   2.965   3.752 -0.1794 -0.7138 -0.7892
14354TIP3    H164477   4.904   3.023   3.739 -1.0207  0.0318 -2.7971
14354TIP3    H264478   4.840   2.896   3.686 -1.3049 -0.5150 -1.2095
14355TIP3   OH264479   4.396   6.029   4.131  0.4431 -0.2054 -0.1420
14355TIP3    H164480   4.345   6.108   4.115  1.9398  1.1537  1.3200
14355TIP3    H264481   4.381   5.974   4.055 -0.2685  1.7150 -1.4513
14356TIP3   OH264482   5.285   3.142   5.638 -0.1336  0.1429  0.1578
14356TIP3    H164483   5.217   3.074   5.647 -0.6947  0.5887 -0.5699
14356TIP3    H264484   5.361   3.106   5.683 -0.1204 -1.4015 -1.0195
14357TIP3   OH264485   5.650   5.746   2.406 -0.5627  0.1090  0.4855
14357TIP3    H164486   5.568   5.704   2.431  0.7376 -2.3126  0.9241
14357TIP3    H264487   5.694   5.765   2.488  0.0349 -0.1222  0.2227
14358TIP3   OH264488   5.832   5.602   4.157 -0.0564  0.3294  0.1565
14358TIP3    H164489   5.767   5.639   4.216  0.4596  1.1522  0.2323
14358TIP3    H264490   5.782   5.561   4.088 -0.6557  0.6432  0.4014
14359TIP3   OH264491   3.700   4.075   4.411  0.4331  0.9706  0.1640
14359TIP3    H164492   3.790   4.043   4.419  0.4297  1.1129  0.8286
14359TIP3    H264493   3.649   3.999   4.383  0.8205  0.9779 -0.5757
14360TIP3   OH264494   3.063   1.156  15.668  0.0681  0.3761  0.1995
14360TIP3    H164495   2.999   1.192  15.728  1.7984  2.5663  0.8688
14360TIP3    H264496   3.147   1.187  15.701  1.1305  1.8835 -3.3910
14361TIP3   OH264497   4.742   5.504   5.926 -0.3623  0.1393  0.0356
14361TIP3    H164498   4.773   5.483   5.838 -1.5069 -1.0821 -0.1015
14361TIP3    H264499   4.821   5.531   5.973  0.3344  0.3674 -1.2340
14362TIP3   OH264500   6.263   5.604   3.095 -0.1741  0.3120 -0.2742
14362TIP3    H164501   6.309   5.666   3.039  0.6610 -0.3035 -0.2869
14362TIP3    H264502   6.302   5.616   3.181  0.0517 -0.2457 -0.2944
14363TIP3   OH264503   0.997   0.729   5.449 -0.0369 -0.3342 -0.3936
14363TIP3    H164504   0.919   0.704   5.400 -0.1798  0.9454 -0.8560
14363TIP3    H264505   0.964   0.776   5.525  0.2880  1.0735 -1.0961
14364TIP3   OH264506   5.213   6.017  12.944  0.3905 -0.0824  0.5166
14364TIP3    H164507   5.151   6.067  12.891  1.0306 -0.5663 -0.7552
14364TIP3    H264508   5.188   6.034  13.034 -1.6204 -0.3103  0.0424
14365TIP3   OH264509   3.501   6.552   2.031  0.1721  0.1415  0.6286
14365TIP3    H164510   3.480   6.631   1.981 -1.7149 -1.1830 -0.8385
14365TIP3    H264511   3.536   6.584   2.114 -0.0488  2.4942 -0.1278
14366TIP3   OH264512   2.918   0.926   1.524 -0.0049 -0.3835  0.0499
14366TIP3    H164513   2.861   0.866   1.572  0.2839 -0.8977 -0.2435
14366TIP3    H264514   2.861   0.963   1.456 -0.5130  0.6178  0.9738
14367TIP3   OH264515   1.863   5.088   4.129 -0.1143  0.3117  0.3001
14367TIP3    H164516   1.810   5.050   4.059  0.5277  1.0364 -0.6134
14367TIP3    H264517   1.809   5.157   4.166  0.0800  0.8975 -0.4771
14368TIP3   OH264518   1.714   2.940  11.306 -0.2624  0.0871  0.0307
14368TIP3    H164519   1.741   2.924  11.216  0.5376 -0.1988  0.3060
14368TIP3    H264520   1.625   2.905  11.312 -0.4124  0.3359 -0.7062
14369TIP3   OH264521   1.369   3.233   2.784 -0.3633 -0.0597  0.0972
14369TIP3    H164522   1.389   3.247   2.876  0.3348 -0.1426 -0.0349
14369TIP3    H264523   1.288   3.181   2.785 -0.2562 -0.2277  0.6662
14370TIP3   OH264524   2.614   1.003   2.006  0.1663  0.1284 -0.0357
14370TIP3    H164525   2.528   1.004   1.965  0.2699  0.5126 -0.2463
14370TIP3    H264526   2.676   1.009   1.933  0.3708 -0.0519  0.1194
14371TIP3   OH264527   6.491   6.608   1.036  0.7067  0.1787 -0.3668
14371TIP3    H164528   6.556   6.658   0.988  1.5618  0.8629  1.4079
14371TIP3    H264529   6.519   6.613   1.128 -2.1434  1.0253  0.5714
14372TIP3   OH264530   1.209   0.133   3.232  0.1933  0.1402 -0.2502
14372TIP3    H164531   1.261   0.097   3.160 -0.0951 -0.0732 -0.3556
14372TIP3    H264532   1.273   0.169   3.293  0.4764 -0.3357 -0.2631
14373TIP3   OH264533   1.800   3.708   3.664  0.1691 -0.1044 -0.3179
14373TIP3    H164534   1.754   3.734   3.584 -0.8022 -0.4241  0.1117
14373TIP3    H264535   1.836   3.790   3.699  1.5771 -0.1209 -1.6459
14374TIP3   OH264536   2.032   1.104  16.001  0.0025  0.2941 -0.1827
14374TIP3    H164537   2.079   1.174  15.957  1.0292  1.3101  2.3775
14374TIP3    H264538   1.963   1.148  16.050  2.7913  0.2551  4.3943
14375TIP3   OH264539   0.580   4.971  16.927  0.1015  0.5142  0.0708
14375TIP3    H164540   0.537   5.021  16.996 -1.2045 -1.0343  0.4530
14375TIP3    H264541   0.510   4.918  16.889  1.5433 -1.6390  0.2579
14376TIP3   OH264542   5.029   6.287   0.237  0.4790 -0.7691  0.3786
14376TIP3    H164543   5.104   6.344   0.220 -0.4337 -0.0038 -1.2317
14376TIP3    H264544   5.068   6.204   0.265  1.8867 -0.0861  0.5336
14377TIP3   OH264545   5.099   1.041   2.867  0.4320 -0.5880  0.3304
14377TIP3    H164546   5.078   1.118   2.814 -0.3967 -2.1230 -1.6910
14377TIP3    H264547   5.025   1.034   2.927 -1.2286 -1.6210 -1.6952
14378TIP3   OH264548   0.718   0.456  13.589 -0.4848 -0.0767  0.4878
14378TIP3    H164549   0.666   0.404  13.528  0.3893 -0.2139 -0.1645
14378TIP3    H264550   0.706   0.414  13.674 -3.2846  1.2361  0.8445
14379TIP3   OH264551   1.346   0.922   5.105  0.3981  0.2897 -0.4891
14379TIP3    H164552   1.384   0.999   5.064  2.4520  0.0326  0.7940
14379TIP3    H264553   1.251   0.932   5.092  0.7663  1.7029 -2.5498
14380TIP3   OH264554   3.750   2.629  11.690  0.1475 -0.4461  0.5066
14380TIP3    H164555   3.666   2.639  11.734  0.3150  0.7436  0.5901
14380TIP3    H264556   3.776   2.538  11.708 -1.0634 -0.8043  0.5498
14381TIP3   OH264557   1.111   4.138  15.653 -0.1522 -0.3656 -0.0099
14381TIP3    H164558   1.058   4.059  15.654  0.1331 -0.5575 -0.1015
14381TIP3    H264559   1.117   4.164  15.745 -1.7530  0.5623 -0.1381
14382TIP3   OH264560   2.068   2.291   3.234 -0.4855  0.1533 -0.0864
14382TIP3    H164561   2.143   2.268   3.290 -1.5520  0.0946  1.3716
14382TIP3    H264562   1.997   2.308   3.296 -2.1468 -1.3975 -1.4988
14383TIP3   OH264563   0.141   1.541  15.330 -0.0416 -0.1188  0.2699
14383TIP3    H164564   0.158   1.513  15.241 -1.1895 -1.0433  0.3122
14383TIP3    H264565   0.055   1.584  15.325 -0.8507 -1.5562  1.1684
14384TIP3   OH264566   3.723   1.151   1.719  0.7323  0.7258  0.3349
14384TIP3    H164567   3.651   1.162   1.780 -0.1682  1.3784 -0.8117
14384TIP3    H264568   3.801   1.151   1.774 -0.1519 -0.3478  1.6277
14385TIP3   OH264569   0.352   5.638   0.189 -0.1678 -0.7689 -0.1280
14385TIP3    H164570   0.344   5.714   0.131 -0.2686 -1.3110 -0.8419
14385TIP3    H264571   0.416   5.581   0.146  0.3109 -0.8589  0.6690
14386TIP3   OH264572   1.588   6.281  12.193  0.2418  0.7369 -0.2051
14386TIP3    H164573   1.548   6.337  12.127  0.2055  0.5906 -0.3065
14386TIP3    H264574   1.526   6.281  12.266  0.6890  1.6237  0.1958
14387TIP3   OH264575   0.680   3.678  13.167 -0.0310  0.9920 -0.1916
14387TIP3    H164576   0.592   3.685  13.131 -0.7901  0.6469  1.5093
14387TIP3    H264577   0.684   3.746  13.234  0.4163  0.0068  0.8225
14388TIP3   OH264578   5.562   2.885  16.476  0.2534 -0.1379  0.0390
14388TIP3    H164579   5.477   2.882  16.432 -0.5165  0.9080  1.3961
14388TIP3    H264580   5.543   2.916  16.565  2.1003  0.5868  0.2381
14389TIP3   OH264581   4.919   6.600  16.572 -0.0067  0.6114  0.3497
14389TIP3    H164582   4.888   6.690  16.558  0.8236  0.8792  0.1832
14389TIP3    H264583   5.004   6.597  16.529 -1.0920 -1.0022 -1.8402
14390TIP3   OH264584   4.562   1.471  16.845  0.3433  0.0825 -0.1912
14390TIP3    H164585   4.551   1.492  16.752  1.5242  1.2643 -0.0893
14390TIP3    H264586   4.550   1.554  16.890 -3.5029 -0.9688  1.0980
14391TIP3   OH264587   0.724   6.186  14.210  0.3207 -0.0945  0.8038
14391TIP3    H164588   0.771   6.148  14.136  2.1827 -0.5085  2.1216
14391TIP3    H264589   0.696   6.272  14.180 -1.0777 -1.1458 -1.1409
14392TIP3   OH264590   3.435   2.674   4.921 -0.1513 -0.3913  0.2672
14392TIP3    H164591   3.510   2.718   4.879 -0.8328  0.2112 -0.3500
14392TIP3    H264592   3.433   2.710   5.009 -1.9246  2.5375 -0.7933
14393TIP3   OH264593   4.219   6.763  15.565 -0.4522  0.7948 -0.2751
14393TIP3    H164594   4.197   6.699  15.497 -2.4171  0.1175  0.9260
14393TIP3    H264595   4.232   6.710  15.643  0.7565  1.6601  0.1383
14394TIP3   OH264596   2.039   5.918  13.568  0.3778 -0.0277 -0.1029
14394TIP3    H164597   2.014   5.854  13.635 -2.1197  1.6428  0.7060
14394TIP3    H264598   2.097   5.870  13.509 -0.1055 -2.5502  1.3434
14395TIP3   OH264599   3.424   0.594   2.891  0.4647 -0.0109  0.5183
14395TIP3    H164600   3.385   0.519   2.935  1.1737 -1.7006 -1.5161
14395TIP3    H264601   3.375   0.602   2.809  1.5509  0.5530 -0.1123
14396TIP3   OH264602   1.435   6.156  13.992 -0.1363  0.4760  0.0946
14396TIP3    H164603   1.458   6.212  14.066  1.4040  0.6303 -0.4611
14396TIP3    H264604   1.496   6.182  13.922  0.1374 -1.3763 -0.4122
14397TIP3   OH264605   0.819   0.225  15.214 -0.6884 -0.3865 -0.6316
14397TIP3    H164606   0.903   0.222  15.168  0.0105 -0.1081  0.5829
14397TIP3    H264607   0.802   0.318  15.229 -0.6541 -0.4968  0.1132
14398TIP3   OH264608   3.063   1.440  13.926  0.8604  0.8401  0.6577
14398TIP3    H164609   3.094   1.488  14.003  0.1861  3.6841 -0.7001
14398TIP3    H264610   3.083   1.498  13.852 -0.6510 -0.7115 -1.0689
14399TIP3   OH264611   2.244   4.711   4.973  0.0825 -0.2941  0.4556
14399TIP3    H164612   2.198   4.786   4.935  1.7746 -0.6779 -2.6528
14399TIP3    H264613   2.175   4.653   5.004 -1.5002  0.0810 -2.1182
14400TIP3   OH264614   1.602   3.689   2.663 -0.1684  0.0263 -0.2309
14400TIP3    H164615   1.616   3.638   2.743 -0.1464  1.3299  0.6434
14400TIP3    H264616   1.544   3.761   2.691  0.4430  0.9270 -1.2005
14401TIP3   OH264617   3.247   2.688   6.058  0.0626 -0.0152 -0.1751
14401TIP3    H164618   3.209   2.664   6.143  0.2694  3.8383  1.2201
14401TIP3    H264619   3.178   2.670   5.995 -0.0744 -3.0750  0.6576
14402TIP3   OH264620   6.555   1.778  11.604 -0.3436  0.2202  0.3409
14402TIP3    H164621   6.473   1.757  11.650 -1.3527 -1.2744 -1.9440
14402TIP3    H264622   6.537   1.759  11.512  3.0323 -1.6948 -0.1051
14403TIP3   OH264623   1.188   6.271   3.074  0.6313 -0.3245 -0.3607
14403TIP3    H164624   1.124   6.327   3.118 -0.2360 -1.6191  0.0979
14403TIP3    H264625   1.152   6.183   3.083  0.4861 -0.6912 -3.5927
14404TIP3   OH264626   0.661   6.722   5.625 -0.0293  0.0921 -0.3043
14404TIP3    H164627   0.693   6.778   5.696  0.6651  0.1317 -0.6380
14404TIP3    H264628   0.622   6.647   5.669  1.5227 -0.5000  0.1341
14405TIP3   OH264629   3.507   2.434  11.290  0.3882  0.6583 -0.7723
14405TIP3    H164630   3.587   2.426  11.343 -0.5263 -0.9987  0.4539
14405TIP3    H264631   3.442   2.472  11.350 -0.5099 -0.6968 -0.8612
14406TIP3   OH264632   3.662   6.296   0.235 -0.2680  0.7141  0.4893
14406TIP3    H164633   3.614   6.316   0.316 -2.7846 -2.4561  0.0080
14406TIP3    H264634   3.719   6.222   0.260  0.4049  0.9885 -0.2056
14407TIP3   OH264635   4.099   1.540  16.079  0.0329  0.2099 -0.4487
14407TIP3    H164636   4.072   1.545  16.171 -0.7517 -0.2120 -0.6452
14407TIP3    H264637   4.020   1.563  16.030  0.6671  1.2537 -1.0119
14408TIP3   OH264638   5.012   4.472   5.175  0.5861 -0.0504 -0.6067
14408TIP3    H164639   5.090   4.431   5.212 -0.5490 -0.4785  1.4467
14408TIP3    H264640   4.957   4.492   5.250 -0.9693  0.9402 -1.9406
14409TIP3   OH264641   5.889   5.052  16.814 -0.2102 -0.8214  0.3409
14409TIP3    H164642   5.867   5.014  16.728 -2.7151 -0.7037  0.8405
14409TIP3    H264643   5.813   5.031  16.869  0.0058  1.6192  1.7040
14410TIP3   OH264644   2.668   1.371  11.326 -0.5434  0.2662 -0.1575
14410TIP3    H164645   2.718   1.301  11.368 -2.4651 -1.9038 -1.2253
14410TIP3    H264646   2.729   1.445  11.321  1.6242 -1.3222  0.9844
14411TIP3   OH264647   1.947   1.128  10.564  0.0376 -0.3227 -0.7234
14411TIP3    H164648   1.997   1.209  10.572  1.1138 -0.8039 -2.2864
14411TIP3    H264649   1.935   1.116  10.470 -1.3294 -1.2692 -0.4670
14412TIP3   OH264650   5.361   1.236   6.512  0.7852  0.0099 -0.0199
14412TIP3    H164651   5.389   1.307   6.570  0.8968 -0.1733  0.1506
14412TIP3    H264652   5.314   1.280   6.441 -0.8004  0.1390  1.0460
14413TIP3   OH264653   6.006   4.309  11.517  0.1604 -0.0080  0.6282
14413TIP3    H164654   6.003   4.329  11.610  1.6769  2.2294  0.2835
14413TIP3    H264655   5.915   4.310  11.488 -0.4278 -1.8020  2.2321
14414TIP3   OH264656   6.193   5.600  11.897  0.1230  0.0981 -0.1957
14414TIP3    H164657   6.175   5.694  11.885 -1.1864 -0.0807  0.2206
14414TIP3    H264658   6.116   5.556  11.859  0.5081 -0.7910  0.0385
14415TIP3   OH264659   0.758   6.047   0.438  0.5492  0.1153  0.0262
14415TIP3    H164660   0.713   6.078   0.516 -0.6931 -2.3582  0.4129
14415TIP3    H264661   0.691   5.997   0.391  2.1066 -1.1369 -0.9420
14416TIP3   OH264662   4.596   2.440  12.008 -0.2073  0.0516  0.3867
14416TIP3    H164663   4.543   2.446  12.088 -1.5527 -1.3667 -0.3543
14416TIP3    H264664   4.536   2.404  11.942  1.2933 -0.2061 -0.8856
14417TIP3   OH264665   4.893   5.460   4.589  0.2995 -0.6026 -0.4476
14417TIP3    H164666   4.856   5.372   4.596 -0.6156 -0.2713 -0.9638
14417TIP3    H264667   4.877   5.486   4.498 -0.4166  0.5115 -0.0268
14418TIP3   OH264668   6.249   6.652  12.867 -0.4421 -1.3111 -0.2382
14418TIP3    H164669   6.168   6.702  12.871  0.6388  0.5692 -0.4191
14418TIP3    H264670   6.248   6.610  12.781 -1.4710 -1.7550 -0.0110
14419TIP3   OH264671   4.033   5.223   2.218 -0.9356  1.1930 -0.1320
14419TIP3    H164672   3.995   5.300   2.178  0.5183  1.4669 -1.0759
14419TIP3    H264673   4.128   5.233   2.205 -0.2867  1.4292  3.6329
14420TIP3   OH264674   0.372   6.519   1.520  0.1221 -0.0046 -0.4245
14420TIP3    H164675   0.332   6.591   1.472  2.5591  1.2087 -0.7933
14420TIP3    H264676   0.419   6.561   1.592  0.8361 -1.3093 -0.1021
14421TIP3   OH264677   0.755   3.964   5.143 -0.2483 -0.4202  0.0052
14421TIP3    H164678   0.711   3.881   5.125 -2.8742  0.7043  0.7217
14421TIP3    H264679   0.689   4.017   5.188  2.4506  0.8067  2.8860
14422TIP3   OH264680   4.010   3.975   5.267 -0.6748 -0.4443 -0.0736
14422TIP3    H164681   3.922   3.943   5.287 -0.8535  1.0572  1.8714
14422TIP3    H264682   3.996   4.044   5.203 -0.8277 -0.7061 -0.3239
14423TIP3   OH264683   2.507   5.491   0.320 -0.7319 -0.3542 -0.3824
14423TIP3    H164684   2.416   5.481   0.349 -0.4330 -1.8906  0.1686
14423TIP3    H264685   2.501   5.508   0.226 -1.6027  0.2481 -0.2276
14424TIP3   OH264686   1.670   1.002  13.582  0.8978 -0.4175 -0.0838
14424TIP3    H164687   1.728   0.954  13.523 -0.0297 -1.1436 -0.4349
14424TIP3    H264688   1.604   0.937  13.608 -0.6284  0.7421 -0.8854
14425TIP3   OH264689   0.159   5.281   3.162  0.3367 -0.2075  0.1005
14425TIP3    H164690   0.249   5.269   3.133  0.1114 -0.3314 -0.5645
14425TIP3    H264691   0.115   5.198   3.142 -0.1734  0.2062 -0.5510
14426TIP3   OH264692   6.616   6.610   1.268  0.1869  0.3268  0.4262
14426TIP3    H164693   6.628   6.527   1.314  1.1481  0.3616  0.2495
14426TIP3    H264694   6.650   6.676   1.327 -0.8329  0.6460  0.6833
14427TIP3   OH264695   6.132   0.507  14.034  0.0643 -0.1177  0.2997
14427TIP3    H164696   6.087   0.443  13.980  1.8406 -0.7918 -0.4503
14427TIP3    H264697   6.067   0.534  14.099 -1.3406 -1.1379 -0.6405
14428TIP3   OH264698   1.792   1.721   2.203 -0.1351 -0.0177 -0.1016
14428TIP3    H164699   1.850   1.783   2.159  0.2187 -1.0625 -1.1480
14428TIP3    H264700   1.847   1.645   2.221 -0.0752  0.5864  2.8255
14429TIP3   OH264701   3.345   3.430  12.468  0.4115 -0.2416 -0.0537
14429TIP3    H164702   3.313   3.343  12.445  1.7419 -1.2296  1.6310
14429TIP3    H264703   3.268   3.475  12.504 -0.2033 -0.8313 -0.6168
14430TIP3   OH264704   4.516   3.124   1.605  0.3146  0.3897 -0.5404
14430TIP3    H164705   4.424   3.119   1.631  0.3384 -1.1777 -0.6357
14430TIP3    H264706   4.558   3.174   1.675 -0.4420  0.3079 -0.0078
14431TIP3   OH264707   3.605   2.492   0.993 -0.2764  0.3522  0.1430
14431TIP3    H164708   3.660   2.452   0.926 -0.5535 -0.5059  0.4148
14431TIP3    H264709   3.664   2.551   1.040 -0.2677  1.6356 -1.3655
14432TIP3   OH264710   3.640   0.351   6.498 -0.3413  0.1256 -0.4753
14432TIP3    H164711   3.700   0.278   6.481  0.7084  0.0660  2.8031
14432TIP3    H264712   3.558   0.324   6.457  0.4649 -2.1585 -0.7508
14433TIP3   OH264713   5.067   0.429  14.522 -0.2359 -0.1179  0.4216
14433TIP3    H164714   5.071   0.518  14.488 -2.3225  0.2941  1.0839
14433TIP3    H264715   4.976   0.401  14.507  0.5282 -2.4240 -0.4128
14434TIP3   OH264716   0.478   2.996  16.314  0.2382  0.2783  0.0101
14434TIP3    H164717   0.536   2.927  16.347 -0.6157 -0.3864  0.1373
14434TIP3    H264718   0.405   2.949  16.274  1.2766  0.9875 -3.0390
14435TIP3   OH264719   1.540   1.973   5.966 -0.1077  0.4507  0.5227
14435TIP3    H164720   1.617   1.959   6.021  0.0267  1.7450  0.6879
14435TIP3    H264721   1.525   1.888   5.925  0.3429 -0.3078  1.8399
14436TIP3   OH264722   5.732   6.666  16.949 -0.4713 -0.3478  0.0494
14436TIP3    H164723   5.656   6.710  16.985  0.8351  1.9529  0.2010
14436TIP3    H264724   5.783   6.639  17.026  1.2556  2.6373  0.0891
14437TIP3   OH264725   0.767   5.151  12.386 -0.8838 -0.1690 -0.0152
14437TIP3    H164726   0.759   5.239  12.423 -0.7638  0.4435 -1.3834
14437TIP3    H264727   0.793   5.096  12.460 -1.1520  0.9018  0.9050
14438TIP3   OH264728   5.289   5.775   3.484 -0.1566  0.4104 -0.0601
14438TIP3    H164729   5.317   5.830   3.411 -2.5768  1.0816 -0.5626
14438TIP3    H264730   5.278   5.688   3.447 -1.3821  0.7513 -0.5292
14439TIP3   OH264731   6.422   3.534   1.915  0.6413  0.4189 -0.1037
14439TIP3    H164732   6.355   3.594   1.948 -0.4186  0.1307 -1.6096
14439TIP3    H264733   6.394   3.448   1.945  1.3453  0.4817  0.7831
14440TIP3   OH264734   6.017   4.905   1.412  0.2317 -0.6711 -0.8025
14440TIP3    H164735   6.049   4.926   1.500  3.4429 -2.1223 -1.4604
14440TIP3    H264736   5.922   4.901   1.421  0.4693 -2.6715  3.1007
14441TIP3   OH264737   1.247   5.810  13.006 -0.2690 -0.3394 -0.4867
14441TIP3    H164738   1.301   5.885  13.030 -0.4423 -0.0394 -1.0210
14441TIP3    H264739   1.158   5.846  12.998 -0.0939 -0.2154 -2.4564
14442TIP3   OH264740   4.238   1.841  12.614  0.4753 -0.2133  0.5601
14442TIP3    H164741   4.142   1.842  12.623  0.5693 -0.6921  1.7468
14442TIP3    H264742   4.269   1.899  12.683  1.0765 -0.6588  0.6642
14443TIP3   OH264743   0.894   2.124   1.724 -0.2721 -0.0140 -0.0825
14443TIP3    H164744   0.976   2.157   1.687 -0.6744  4.1232  2.1606
14443TIP3    H264745   0.826   2.155   1.664 -0.4342 -0.0738  0.0694
14444TIP3   OH264746   0.056   4.740   4.136  0.1119 -0.0529  0.2198
14444TIP3    H164747   0.054   4.823   4.089  0.2102  0.1903  0.6360
14444TIP3    H264748   0.103   4.681   4.078 -0.5179  0.0028 -0.3543
14445TIP3   OH264749   5.132   3.727  15.784 -0.0633 -0.1478 -0.1089
14445TIP3    H164750   5.040   3.745  15.803 -0.1082  1.4726 -1.5583
14445TIP3    H264751   5.132   3.638  15.750 -1.2362  0.0744 -0.7743
14446TIP3   OH264752   2.414   4.121  15.938  0.0164 -0.2803 -0.4653
14446TIP3    H164753   2.381   4.211  15.941  0.0246 -0.2744 -0.5508
14446TIP3    H264754   2.461   4.116  15.855  0.5840 -0.1660 -0.1557
14447TIP3   OH264755   6.728   4.520   3.383 -0.4526 -0.3294  0.0503
14447TIP3    H164756   6.803   4.515   3.442  0.0627 -0.4682 -0.6006
14447TIP3    H264757   6.767   4.522   3.295 -1.1188  2.0544 -0.2467
14448TIP3   OH264758   4.993   1.035   3.399  0.1130 -0.0408 -0.5820
14448TIP3    H164759   5.010   1.123   3.431  1.5047 -0.5911  0.3044
14448TIP3    H264760   4.938   1.047   3.322 -1.1821  1.4902  0.5056
14449TIP3   OH264761   3.908   4.925  15.223 -0.1381  0.2354 -0.7355
14449TIP3    H164762   3.896   4.852  15.162  1.0732 -0.8277  0.2512
14449TIP3    H264763   3.992   4.964  15.198  0.3205 -0.1453  0.1499
14450TIP3   OH264764   0.138   3.522  11.164  0.1607 -0.5488  0.7052
14450TIP3    H164765   0.209   3.586  11.169  0.9951 -1.3584 -0.1245
14450TIP3    H264766   0.155   3.462  11.236  0.1816 -0.6062  0.6527
14451TIP3   OH264767   4.573   0.540  15.086  0.4647 -0.1939  0.4344
14451TIP3    H164768   4.529   0.554  15.001 -1.3193  0.2452  1.3717
14451TIP3    H264769   4.501   0.526  15.147  1.7190 -0.2951  1.9310
14452TIP3   OH264770   5.147   0.981  16.833  0.6573  0.3848  0.2176
14452TIP3    H164771   5.130   0.975  16.739 -1.3208  0.7435  0.5024
14452TIP3    H264772   5.233   1.023  16.839  0.3120  1.4535 -1.4318
14453TIP3   OH264773   6.332   6.682  15.158 -0.0882  0.5504 -0.1648
14453TIP3    H164774   6.393   6.730  15.102 -0.2208  0.0890 -0.6983
14453TIP3    H264775   6.272   6.638  15.098 -0.0881 -0.1360  0.3280
14454TIP3   OH264776   5.275   0.964   1.521 -0.5117  0.5907  0.9694
14454TIP3    H164777   5.230   0.998   1.444 -0.4005 -0.5536  0.3686
14454TIP3    H264778   5.361   1.006   1.519 -0.0855 -0.2520 -0.2053
14455TIP3   OH264779   6.330   2.040   4.702 -0.2794  0.3995  0.6859
14455TIP3    H164780   6.282   2.082   4.630 -0.1253  0.9798  0.9111
14455TIP3    H264781   6.301   1.949   4.701 -2.2948  0.9704  1.5602
14456TIP3   OH264782   2.765   3.148  13.558 -0.1198  0.5332  0.0127
14456TIP3    H164783   2.671   3.132  13.559 -0.0464 -0.0098 -0.7542
14456TIP3    H264784   2.797   3.110  13.639 -0.1087 -2.3600 -1.2440
14457TIP3   OH264785   2.528   0.562   4.642  0.3078  0.1334 -0.1840
14457TIP3    H164786   2.439   0.545   4.673 -0.1631  1.3061 -0.8184
14457TIP3    H264787   2.554   0.643   4.687  1.0780 -0.2251  0.0343
14458TIP3   OH264788   5.414   5.899   0.546 -0.4136 -0.8203  0.2464
14458TIP3    H164789   5.422   5.921   0.453  1.1770 -0.6484  0.3991
14458TIP3    H264790   5.350   5.961   0.580 -0.5341 -0.4672 -0.6105
14459TIP3   OH264791   0.740   0.251   4.853  0.1120 -0.0605  0.1722
14459TIP3    H164792   0.738   0.299   4.770  0.1193 -1.0059 -0.3852
14459TIP3    H264793   0.719   0.161   4.829 -0.1294 -0.3008  1.2352
14460TIP3   OH264794   0.661   6.451  14.150 -0.1663 -0.4162  0.0227
14460TIP3    H164795   0.584   6.444  14.206 -0.5396 -1.1936 -0.5675
14460TIP3    H264796   0.636   6.517  14.084 -0.5126 -0.9853 -0.4316
14461TIP3   OH264797   4.422   5.578  16.579 -0.1305 -0.6196  0.0149
14461TIP3    H164798   4.451   5.648  16.637 -1.5840  0.9262 -1.0213
14461TIP3    H264799   4.361   5.527  16.632 -0.5924  0.1121  0.2010
14462TIP3   OH264800   3.872   6.697   3.404  0.5855  0.3074  0.4288
14462TIP3    H164801   3.822   6.627   3.363  0.9317 -0.2453  0.9300
14462TIP3    H264802   3.934   6.651   3.461  0.7134  1.0276  0.8770
14463TIP3   OH264803   3.241   3.746  11.270  0.2016  0.0638  0.6338
14463TIP3    H164804   3.183   3.746  11.194  1.5948 -1.4275 -0.5066
14463TIP3    H264805   3.327   3.721  11.235  0.9946 -0.2213  2.6269
14464TIP3   OH264806   5.741   2.730  14.235  0.2167 -0.0404 -0.3747
14464TIP3    H164807   5.818   2.777  14.267  0.1342 -1.2275  1.7287
14464TIP3    H264808   5.774   2.644  14.209 -0.0720  0.1898 -1.5542
14465TIP3   OH264809   3.101   5.507  13.789  0.1479  0.4554 -0.5104
14465TIP3    H164810   3.145   5.570  13.732  2.1213 -1.7193 -1.5695
14465TIP3    H264811   3.072   5.438  13.730 -1.2408 -0.0313  0.7023
14466TIP3   OH264812   1.969   0.254   5.584  0.3787  0.0857 -0.6691
14466TIP3    H164813   1.978   0.209   5.500 -0.1374 -1.0725 -0.1248
14466TIP3    H264814   1.884   0.225   5.618  0.6621  0.3858  0.3319
14467TIP3   OH264815   0.304   2.888   0.157 -0.6210  0.3635  0.3909
14467TIP3    H164816   0.362   2.941   0.102 -0.6075 -0.3641 -0.3216
14467TIP3    H264817   0.323   2.798   0.131 -2.6206  0.1303 -0.4352
14468TIP3   OH264818   2.382   1.686   5.459 -0.2828  1.2384  0.3746
14468TIP3    H164819   2.415   1.612   5.409 -0.2287  0.8246  1.0156
14468TIP3    H264820   2.433   1.685   5.541 -0.1529  2.0879  0.3155
14469TIP3   OH264821   1.286   0.990   6.000 -0.2631 -0.1318  0.1459
14469TIP3    H164822   1.290   0.905   6.043  0.9690 -0.6419 -0.9228
14469TIP3    H264823   1.369   0.997   5.952 -0.6183  1.3894 -0.3004
14470TIP3   OH264824   1.478   3.153   0.799  0.1317  0.9828 -0.3285
14470TIP3    H164825   1.529   3.124   0.723 -0.3082 -0.7916  0.0285
14470TIP3    H264826   1.400   3.097   0.799  0.3513  0.6098  1.7043
14471TIP3   OH264827   2.788   4.517  16.566 -0.6162 -0.2203 -0.1173
14471TIP3    H164828   2.777   4.437  16.514  1.5987 -0.4327 -0.3728
14471TIP3    H264829   2.807   4.585  16.501  0.2709 -0.0887  0.2707
14472TIP3   OH264830   5.990   0.597   5.535 -0.0597 -0.0607 -0.0827
14472TIP3    H164831   5.999   0.609   5.630  0.6206  3.1944 -0.4399
14472TIP3    H264832   6.014   0.506   5.520  1.0960 -0.3238  2.7238
14473TIP3   OH264833   1.542   6.047   4.942  0.2053 -0.2710 -0.2264
14473TIP3    H164834   1.471   6.002   4.897 -0.4699 -0.7543  1.2689
14473TIP3    H264835   1.621   5.997   4.919 -0.2903 -1.1775  0.0209
14474TIP3   OH264836   5.500   1.675   4.165 -0.8840  0.3318 -0.0646
14474TIP3    H164837   5.422   1.656   4.111 -0.3210 -0.7921 -0.5241
14474TIP3    H264838   5.522   1.590   4.204  1.3578  0.0961 -1.6356
14475TIP3   OH264839   6.440   2.776   4.128  0.6613 -0.7478 -0.1407
14475TIP3    H164840   6.409   2.727   4.205 -0.4482 -0.7643 -0.5776
14475TIP3    H264841   6.523   2.815   4.156 -0.1243 -0.0564  1.3581
14476TIP3   OH264842   6.090   0.053  13.229 -0.2100  0.0375  0.6772
14476TIP3    H164843   6.121  -0.035  13.207  0.1042  0.2804  0.1235
14476TIP3    H264844   6.092   0.101  13.146  0.4509  0.8088  1.1202
14477TIP3   OH264845   3.064   5.298   1.138  0.0349  0.4807  0.2618
14477TIP3    H164846   3.065   5.394   1.133 -1.5315  0.4635 -1.3245
14477TIP3    H264847   3.016   5.278   1.218 -1.3009  1.0505 -0.3710
14478TIP3   OH264848   0.065   0.923   4.968 -0.9710  0.5070  0.0353
14478TIP3    H164849   0.103   1.011   4.974 -0.9655  0.4796  0.4984
14478TIP3    H264850  -0.018   0.936   4.922 -0.7289  0.6752 -0.3603
14479TIP3   OH264851   5.756   3.490  12.636  0.8383  0.2861 -0.9349
14479TIP3    H164852   5.692   3.474  12.705  1.7064  2.0618  0.3746
14479TIP3    H264853   5.759   3.586  12.627  3.9677  0.3773 -0.2127
14480TIP3   OH264854   6.638   5.813  11.154 -0.1037  0.3218  0.0391
14480TIP3    H164855   6.581   5.870  11.205 -0.1439  0.2863  0.0339
14480TIP3    H264856   6.592   5.800  11.071 -0.3790 -0.2038  0.2708
14481TIP3   OH264857   3.266   0.015   2.609 -0.3071 -0.1377  0.5070
14481TIP3    H164858   3.228   0.011   2.521  0.0821  0.2248  0.3197
14481TIP3    H264859   3.353  -0.024   2.599  0.0082  0.5459  0.5813
14482TIP3   OH264860   1.153   2.366  14.421 -0.0730  0.1915 -0.1412
14482TIP3    H164861   1.209   2.393  14.494  0.1889  0.5916 -0.4854
14482TIP3    H264862   1.214   2.334  14.355 -0.4037 -2.2081  0.6048
14483TIP3   OH264863   6.403   3.422   6.213 -0.0677 -0.3230  0.3788
14483TIP3    H164864   6.400   3.515   6.192 -0.7489 -0.3787  0.2222
14483TIP3    H264865   6.317   3.402   6.249 -0.8945 -1.4244 -1.9684
14484TIP3   OH264866   4.362   0.446  13.144 -0.4274  0.4180 -0.2764
14484TIP3    H164867   4.381   0.477  13.232  0.3458 -0.5373 -0.0976
14484TIP3    H264868   4.356   0.526  13.091 -1.0264  1.0075  0.6492
14485TIP3   OH264869   2.607   0.293  16.397 -0.0714 -0.1878  0.4060
14485TIP3    H164870   2.587   0.233  16.325 -0.1388 -0.6053  0.7719
14485TIP3    H264871   2.527   0.296  16.449 -0.0494  0.1793  0.4214
14486TIP3   OH264872   0.873   0.074  14.707  0.2769 -0.4506 -0.5424
14486TIP3    H164873   0.906   0.013  14.773  1.0353  1.2013  0.6994
14486TIP3    H264874   0.913   0.046  14.625  0.3103 -1.8145 -0.0759
14487TIP3   OH264875   0.469   1.598  13.878 -0.0596 -0.0782 -0.3280
14487TIP3    H164876   0.433   1.641  13.800 -2.3325 -1.1440  0.0719
14487TIP3    H264877   0.554   1.565  13.849  0.1517  1.4748 -1.6751
14488TIP3   OH264878   1.078   1.910  14.726  0.3565 -0.0767  0.4354
14488TIP3    H164879   1.066   1.822  14.692 -1.7059 -0.4876  2.0703
14488TIP3    H264880   1.173   1.922  14.727  0.6355 -1.7008 -1.1466
14489TIP3   OH264881   1.702   5.539   5.239 -0.1145  0.3930 -0.3064
14489TIP3    H164882   1.621   5.496   5.268 -0.9007  1.8440 -0.2418
14489TIP3    H264883   1.690   5.631   5.263  1.5872  0.6382 -0.2622
14490TIP3   OH264884   3.063   0.429  14.909 -0.1518  0.3758  0.1685
14490TIP3    H164885   3.154   0.440  14.937 -0.8816  1.8799  2.1791
14490TIP3    H264886   3.044   0.337  14.927  1.2885 -0.3080 -1.4792
14491TIP3   OH264887   4.378   0.490   3.334  0.4273  0.0567 -0.2027
14491TIP3    H164888   4.319   0.415   3.337 -1.7754  1.5092 -2.6791
14491TIP3    H264889   4.435   0.473   3.258 -0.2833  0.9696 -0.9622
14492TIP3   OH264890   2.959   2.987  12.372  0.5224  0.2169  0.6364
14492TIP3    H164891   3.016   2.963  12.299 -1.2275 -0.1212 -0.6830
14492TIP3    H264892   2.978   2.923  12.440  1.7221  0.1310  0.2369
14493TIP3   OH264893   4.340   5.743   1.903  0.3603  0.1019  0.1470
14493TIP3    H164894   4.374   5.654   1.913 -2.4225 -1.5251 -2.9033
14493TIP3    H264895   4.388   5.779   1.829 -1.0504 -0.3895 -1.0590
14494TIP3   OH264896   2.243   4.656   4.189 -0.4886 -0.6615 -0.1838
14494TIP3    H164897   2.188   4.734   4.187 -1.4110 -1.2213  1.3096
14494TIP3    H264898   2.198   4.592   4.133 -1.4831 -1.1623  1.1395
14495TIP3   OH264899   4.362   4.756  12.636 -0.0098 -0.2604 -0.7498
14495TIP3    H164900   4.326   4.679  12.678  0.0047  1.0849  1.9518
14495TIP3    H264901   4.457   4.742  12.638  0.0461  0.2016  0.6102
14496TIP3   OH264902   1.650   3.524   5.852  0.4849 -0.0715  0.8027
14496TIP3    H164903   1.656   3.577   5.931  0.7409  0.5638  0.3680
14496TIP3    H264904   1.688   3.439   5.877  0.3401  0.0425  1.4192
14497TIP3   OH264905   6.363   3.529   2.748  0.0722  0.2238  0.1096
14497TIP3    H164906   6.366   3.496   2.658 -0.1932  1.1053 -0.2349
14497TIP3    H264907   6.391   3.621   2.741  1.4317 -0.0763  1.1313
14498TIP3   OH264908   6.177   4.281   4.948 -0.1688  0.4446  0.6234
14498TIP3    H164909   6.206   4.199   4.909 -1.6519  0.3587 -0.3577
14498TIP3    H264910   6.247   4.304   5.011  1.9381  0.1837 -1.4818
14499TIP3   OH264911   0.226   1.631  16.365 -0.2894 -0.8822  0.4216
14499TIP3    H164912   0.148   1.684  16.377 -0.1331 -0.7813  1.0616
14499TIP3    H264913   0.194   1.544  16.341 -0.5180 -0.2338 -1.8220
14500TIP3   OH264914   0.875   6.644   4.506 -0.0946  0.0435  1.0063
14500TIP3    H164915   0.935   6.584   4.550 -1.8384 -2.1285  0.5969
14500TIP3    H264916   0.792   6.634   4.553 -0.3998  2.4387  1.1272
14501TIP3   OH264917   0.962   4.480  13.011  0.5293  0.4964 -0.0150
14501TIP3    H164918   0.897   4.465  13.079  0.3153 -1.3727 -0.5727
14501TIP3    H264919   0.988   4.571  13.023 -1.2900  0.9488  0.9909
14502TIP3   OH264920   0.856   0.827   0.771 -0.2119  0.1450 -0.2654
14502TIP3    H164921   0.893   0.800   0.687  0.9399 -1.1876  0.6207
14502TIP3    H264922   0.850   0.746   0.822 -2.1282  0.7092  0.5086
14503TIP3   OH264923   3.125   0.131   0.135  0.3840  0.3728  0.3513
14503TIP3    H164924   3.185   0.063   0.165  0.5962  0.2284 -0.3916
14503TIP3    H264925   3.179   0.210   0.128  0.8575 -0.0915 -1.7570
14504TIP3   OH264926   5.456   2.542  16.904 -0.5163 -0.8741  0.7664
14504TIP3    H164927   5.420   2.583  16.982 -0.0768 -0.8455  0.9583
14504TIP3    H264928   5.510   2.470  16.937 -0.4177 -0.9319  0.4885
14505TIP3   OH264929   3.293   1.861   5.947 -0.1039 -0.0462  0.0405
14505TIP3    H164930   3.369   1.892   5.897  1.2682 -1.0593  1.3843
14505TIP3    H264931   3.289   1.920   6.022 -0.4365 -0.2270  0.1667
14506TIP3   OH264932   0.057   6.734  15.714 -0.0496  0.2916  0.2412
14506TIP3    H164933   0.118   6.784  15.768  0.0532 -0.3350  0.7197
14506TIP3    H264934  -0.016   6.794  15.697 -0.7934  0.0499  2.3154
14507TIP3   OH264935   6.288   4.171   4.275 -0.0482 -0.4578  0.5491
14507TIP3    H164936   6.337   4.227   4.335 -0.3366  1.0935 -0.5869
14507TIP3    H264937   6.351   4.105   4.247  0.7285  0.1280  0.8666
14508TIP3   OH264938   4.408   1.319  15.267 -0.3181  0.1073  0.0034
14508TIP3    H164939   4.504   1.321  15.270 -0.3179  1.8870  0.0761
14508TIP3    H264940   4.382   1.289  15.354  0.1841  1.2154  0.5593
14509TIP3   OH264941   6.709   3.576   0.465  0.0337 -0.3585 -0.3047
14509TIP3    H164942   6.793   3.531   0.478 -1.8299 -4.2552 -0.5550
14509TIP3    H264943   6.684   3.606   0.552  1.7005  1.0748 -0.2640
14510TIP3   OH264944   3.965   3.007   4.670  0.4483 -0.2902  0.0081
14510TIP3    H164945   3.898   3.026   4.605 -1.7620 -1.8682  1.6922
14510TIP3    H264946   3.959   3.080   4.733 -0.4884 -0.9469  0.7132
14511TIP3   OH264947   4.862   1.894   4.797 -0.2963 -0.2380 -0.4507
14511TIP3    H164948   4.811   1.959   4.845 -3.7623 -2.5978 -0.5703
14511TIP3    H264949   4.929   1.865   4.859 -1.3742  0.4418  1.0779
14512TIP3   OH264950   0.251   3.589   1.298 -0.1335 -0.0647 -0.1166
14512TIP3    H164951   0.224   3.553   1.383 -0.0871 -3.2170 -1.3082
14512TIP3    H264952   0.176   3.574   1.241 -0.1387  1.9758 -0.7104
14513TIP3   OH264953   1.697   4.057  14.620 -0.2878 -0.3631  0.0392
14513TIP3    H164954   1.706   3.962  14.616  0.9349 -0.2993 -4.8820
14513TIP3    H264955   1.769   4.090  14.565 -1.8343  3.2934 -0.0751
14514TIP3   OH264956   0.580   2.822  17.030 -0.0041  0.2568 -0.0052
14514TIP3    H164957   0.529   2.779  16.961  0.0725 -0.1290  0.1782
14514TIP3    H264958   0.531   2.901  17.051 -0.5313 -0.1168  0.1762
14515TIP3   OH264959   1.602   4.464  14.296  0.5270  0.0406  0.2025
14515TIP3    H164960   1.646   4.384  14.268 -0.1011  0.0262 -0.7648
14515TIP3    H264961   1.645   4.534  14.247  0.1196  0.1320 -0.0297
14516TIP3   OH264962   6.536   3.489   5.353  0.6710 -0.7889 -0.2475
14516TIP3    H164963   6.454   3.519   5.392 -0.3382 -1.8820 -1.4717
14516TIP3    H264964   6.591   3.568   5.350 -0.5827  0.1148 -0.0465
14517TIP3   OH264965   6.229   4.101   4.601 -0.4810 -0.5358  0.0385
14517TIP3    H164966   6.302   4.052   4.562  1.8610  2.5999  0.1003
14517TIP3    H264967   6.244   4.095   4.695 -0.4579 -0.1386  0.0621
14518TIP3   OH264968   4.855   4.330  14.470  0.0571  0.1021  0.6046
14518TIP3    H164969   4.788   4.360  14.532  0.0556  0.2460  0.5319
14518TIP3    H264970   4.854   4.395  14.400  0.5042  0.2788  0.7628
14519TIP3   OH264971   4.604   2.027   5.041 -0.1525 -0.4023 -0.6123
14519TIP3    H164972   4.631   2.066   5.124  1.8618  1.6222 -2.0975
14519TIP3    H264973   4.595   1.934   5.060  0.7556 -0.0702  1.7453
14520TIP3   OH264974   1.617   1.220  11.023  0.6046 -0.4384 -0.4001
14520TIP3    H164975   1.545   1.245  10.966  0.3587  0.7255  0.3865
14520TIP3    H264976   1.619   1.125  11.020 -1.4143 -0.5378  0.0932
14521TIP3   OH264977   0.631   5.249  16.321 -0.2557 -0.4342 -0.4497
14521TIP3    H164978   0.693   5.219  16.254  1.3101  0.9681  0.2811
14521TIP3    H264979   0.687   5.278  16.393 -1.8831 -1.3736  1.2503
14522TIP3   OH264980   2.387   4.114  11.996  0.3715  0.0923  0.3915
14522TIP3    H164981   2.364   4.060  11.921  1.4998  0.0900  0.0243
14522TIP3    H264982   2.466   4.074  12.032 -0.2385  0.0027  1.6902
14523TIP3   OH264983   0.281   4.123   6.769  0.0186  0.8603 -0.2103
14523TIP3    H164984   0.376   4.122   6.782  0.2030  0.1994 -1.4069
14523TIP3    H264985   0.269   4.082   6.683 -1.5783 -2.3393  1.3637
14524TIP3   OH264986   0.628   3.161   0.190  0.1139  0.4815 -0.1420
14524TIP3    H164987   0.584   3.127   0.268  0.2421 -0.5105 -0.4917
14524TIP3    H264988   0.561   3.213   0.145 -0.0090  0.9198  0.5276
14525TIP3   OH264989   4.752   1.234   4.278  0.3502  0.5396  0.2091
14525TIP3    H164990   4.764   1.307   4.339 -3.1685  2.1368 -0.7515
14525TIP3    H264991   4.710   1.273   4.201  0.3858 -2.1613 -1.3292
14526TIP3   OH264992   2.891   5.490   0.375 -0.5079  0.0082  0.0545
14526TIP3    H164993   2.856   5.578   0.363 -0.3431  0.1814  0.8201
14526TIP3    H264994   2.853   5.440   0.302 -0.0953  0.8468 -0.7634
14527TIP3   OH264995   5.254   6.369   4.240 -0.2712  0.0232 -0.3029
14527TIP3    H164996   5.174   6.347   4.193 -0.7347  0.6514  0.1670
14527TIP3    H264997   5.225   6.381   4.331  0.1607  1.3104 -0.3183
14528TIP3   OH264998   0.533   1.080  15.747 -0.2677 -0.1027  0.5948
14528TIP3    H164999   0.614   1.132  15.745 -2.0272  2.8744  0.7985
14528TIP3    H265000   0.463   1.145  15.752 -3.0296 -2.2093 -3.9087
14529TIP3   OH265001   3.219   5.878   1.703  0.6404  0.4837 -0.3116
14529TIP3    H165002   3.205   5.793   1.744  0.7515 -0.5183 -2.2111
14529TIP3    H265003   3.139   5.894   1.653  0.8138  1.2616 -0.3489
14530TIP3   OH265004   3.849   1.032   1.490  0.5674  0.2245 -0.5022
14530TIP3    H165005   3.804   1.038   1.406  0.4997 -1.8668 -0.6695
14530TIP3    H265006   3.783   1.058   1.555 -0.1732 -0.5330 -0.9302
14531TIP3   OH265007   0.332   0.040   1.988 -0.6903  0.4176  0.1723
14531TIP3    H165008   0.406   0.091   2.021 -1.0852  1.3080 -0.3045
14531TIP3    H265009   0.281   0.018   2.066 -0.0819  0.0402  0.4722
14532TIP3   OH265010   1.408   5.095  13.627  0.0138  0.0970  0.3928
14532TIP3    H165011   1.479   5.099  13.691 -0.5642  2.4455  0.9643
14532TIP3    H265012   1.331   5.123  13.675 -1.4011 -2.4061 -0.2182
14533TIP3   OH265013   3.518   0.621  16.678 -0.6337  0.1192 -0.1434
14533TIP3    H165014   3.502   0.608  16.772 -2.2093 -1.0530 -0.5392
14533TIP3    H265015   3.453   0.566  16.635  1.2452 -0.7955 -1.9569
14534TIP3   OH265016   0.328   6.726  15.975 -0.1158  0.4583  0.5807
14534TIP3    H165017   0.271   6.774  15.916 -1.5666  0.1095  1.6519
14534TIP3    H265018   0.400   6.695  15.920 -0.7396  1.2587 -0.7080
14535TIP3   OH265019   2.016   3.851  12.330  0.3279 -0.1952  0.0473
14535TIP3    H165020   2.031   3.906  12.253 -0.7506  1.4180  0.9193
14535TIP3    H265021   1.934   3.805  12.311  0.8137 -0.9169 -0.3475
14536TIP3   OH265022   4.301   0.107  13.077  0.4986 -0.6413  0.2593
14536TIP3    H165023   4.313   0.188  13.027  0.3672 -0.4666  0.5092
14536TIP3    H265024   4.308   0.135  13.168  0.8803 -0.9808  0.3375
14537TIP3   OH265025   2.760   2.111   5.437  0.1947  0.1199  0.3526
14537TIP3    H165026   2.775   2.203   5.458  0.6562  0.1208  0.0411
14537TIP3    H265027   2.786   2.103   5.345 -0.4723 -0.1783  0.1838
14538TIP3   OH265028   6.491   6.288  14.199  0.1346  0.2559 -0.2429
14538TIP3    H165029   6.469   6.265  14.289  0.0422 -0.6500 -0.4844
14538TIP3    H265030   6.573   6.337  14.206  0.8750 -1.0238  0.2310
14539TIP3   OH265031   6.204   1.525  16.687 -0.1867 -0.3374 -0.7645
14539TIP3    H165032   6.235   1.434  16.685 -1.7296 -0.8815 -0.6045
14539TIP3    H265033   6.228   1.559  16.601 -1.3756 -1.5243 -1.6084
14540TIP3   OH265034   4.034   4.322  16.770  0.1953 -0.2401  0.1404
14540TIP3    H165035   3.998   4.236  16.793 -1.0863  0.6652  1.7005
14540TIP3    H265036   4.129   4.312  16.783 -0.1458 -0.7642  2.7834
14541TIP3   OH265037   4.441   1.157   2.491  0.7048  0.0530  0.1213
14541TIP3    H165038   4.494   1.078   2.480 -1.0062 -1.2476  0.7669
14541TIP3    H265039   4.363   1.141   2.439 -1.1766 -0.1882  2.8237
14542TIP3   OH265040   1.041   5.830  13.970 -0.2139  0.4403  0.0482
14542TIP3    H165041   1.031   5.792  13.883  0.7943 -0.7800  0.4363
14542TIP3    H265042   1.029   5.756  14.030 -0.4433  1.1737  0.9404
14543TIP3   OH265043   0.524   0.310   2.779  0.1878  0.2441  0.2214
14543TIP3    H165044   0.596   0.367   2.807  0.7895 -0.2269 -0.3476
14543TIP3    H265045   0.500   0.342   2.692  2.6291 -2.2591 -1.5021
14544TIP3   OH265046   4.800   0.942  16.136 -0.0605 -0.3631 -0.0682
14544TIP3    H165047   4.811   0.872  16.199 -0.3890 -0.8806 -0.5780
14544TIP3    H265048   4.721   0.989  16.165  1.8889  1.8595  2.1834
14545TIP3   OH265049   0.405   6.244  16.057 -0.2256 -0.6360  0.0217
14545TIP3    H165050   0.337   6.188  16.096 -1.3896  1.3041  0.9457
14545TIP3    H265051   0.437   6.296  16.130  1.6446 -0.8590 -0.5983
14546TIP3   OH265052   1.714   2.396  15.957 -0.0502  0.0804  0.0278
14546TIP3    H165053   1.751   2.485  15.959  3.0886 -1.1047  1.0592
14546TIP3    H265054   1.668   2.388  16.041  0.3792  0.4648  0.3060
14547TIP3   OH265055   2.950   2.590  13.340 -0.3645 -0.3864  0.5497
14547TIP3    H165056   3.008   2.663  13.323  0.6409 -1.0670  0.9590
14547TIP3    H265057   2.869   2.630  13.373 -0.3561  0.5974 -0.5934
14548TIP3   OH265058   2.824   3.009   2.378 -0.3671  0.0041  0.2851
14548TIP3    H165059   2.780   3.093   2.372 -2.2808 -0.9182  0.8110
14548TIP3    H265060   2.876   3.014   2.458 -0.0351  0.8517  0.0230
14549TIP3   OH265061   5.713   6.212  12.872  0.2397  0.4220  0.0243
14549TIP3    H165062   5.682   6.227  12.783  2.3630 -4.3669 -1.8689
14549TIP3    H265063   5.647   6.153  12.910  0.8485  0.0241  0.4784
14550TIP3   OH265064   4.157   3.229   3.440 -0.1389 -0.0073  1.1239
14550TIP3    H165065   4.245   3.246   3.407  0.5380 -0.4774  2.5810
14550TIP3    H265066   4.107   3.308   3.420  0.4608  0.0664 -0.1698
14551TIP3   OH265067   5.761   1.659  15.491  0.2696 -0.9269  0.0643
14551TIP3    H165068   5.679   1.631  15.450 -0.4568 -0.5993  1.2258
14551TIP3    H265069   5.762   1.754  15.481 -1.9497 -0.2434  4.1014
14552TIP3   OH265070   5.836   3.004   0.090 -0.0159 -0.1074 -0.0013
14552TIP3    H165071   5.916   3.045   0.056  0.4043  1.0514  2.1640
14552TIP3    H265072   5.785   3.078   0.124 -0.6007 -1.0923  1.3534
14553TIP3   OH265073   6.172   5.190  16.812 -0.7642  0.0137 -0.0028
14553TIP3    H165074   6.171   5.145  16.897  1.0276 -4.8879 -2.1720
14553TIP3    H265075   6.207   5.277  16.831 -2.5443  0.0310  4.4487
14554TIP3   OH265076   5.168   1.429   6.064 -0.3683 -0.0353  0.6340
14554TIP3    H165077   5.236   1.493   6.086  2.7767 -2.1226 -2.0166
14554TIP3    H265078   5.167   1.426   5.969 -2.8975 -1.5198  0.6219
14555TIP3   OH265079   0.697   4.405   2.584 -0.4470 -0.8869 -0.1391
14555TIP3    H165080   0.626   4.445   2.533 -0.7483  0.3606  1.2045
14555TIP3    H265081   0.653   4.362   2.657  0.1525 -0.3943  0.5181
14556TIP3   OH265082   1.555   5.370   5.790 -0.3267  0.1687 -0.1916
14556TIP3    H165083   1.568   5.283   5.754  0.0201 -0.1303  0.6255
14556TIP3    H265084   1.599   5.429   5.728  2.8308 -0.5717  1.1270
14557TIP3   OH265085   0.859   2.276   5.382  0.4475 -0.0299  0.7938
14557TIP3    H165086   0.772   2.237   5.389  1.3514 -1.9950  1.6235
14557TIP3    H265087   0.892   2.247   5.297 -0.8992  3.4992 -1.1715
14558TIP3   OH265088   0.806   3.532   0.269  0.2002  0.4533 -0.1705
14558TIP3    H165089   0.851   3.526   0.184  1.8442  1.6870  0.5631
14558TIP3    H265090   0.713   3.523   0.247  0.7156 -1.6486 -1.8116
14559TIP3   OH265091   1.533   5.871   6.053  0.4730 -0.4101  0.2921
14559TIP3    H165092   1.468   5.824   6.000  1.2216 -0.8029 -0.3016
14559TIP3    H265093   1.551   5.813   6.127  0.9295 -0.7964 -0.1106
14560TIP3   OH265094   5.203   3.329  14.451  0.4650  0.3033  0.7248
14560TIP3    H165095   5.133   3.385  14.484 -2.9433 -2.9818 -0.2638
14560TIP3    H265096   5.216   3.263  14.519 -0.8339 -1.7849 -0.9396
14561TIP3   OH265097   3.148   1.290   4.983 -0.3082 -0.3026  0.3176
14561TIP3    H165098   3.082   1.278   4.915  2.2754  1.6207 -2.7762
14561TIP3    H265099   3.222   1.236   4.955  1.4461  1.8371  0.6326
14562TIP3   OH265100   3.706   0.584  13.549  0.7500  0.4191 -0.1952
14562TIP3    H165101   3.638   0.643  13.582 -1.8067 -1.9576 -0.9210
14562TIP3    H265102   3.766   0.573  13.624 -0.1442  1.8181  0.7866
14563TIP3   OH265103   2.567   1.759  15.803 -0.1649 -0.0135  0.0577
14563TIP3    H165104   2.480   1.797  15.793 -0.1646 -0.1157 -0.3406
14563TIP3    H265105   2.614   1.822  15.858 -0.9199 -0.6483  1.5151
14564TIP3   OH265106   0.370   0.092   5.914  0.5226 -0.1197  0.7360
14564TIP3    H165107   0.307   0.024   5.940 -0.3698  0.6859  0.7298
14564TIP3    H265108   0.438   0.045   5.866  0.7370 -1.2419  2.0713
14565TIP3   OH265109   5.372   0.890  16.606  0.3412 -0.5966 -0.3451
14565TIP3    H165110   5.404   0.963  16.658 -3.4542 -0.5887  2.3676
14565TIP3    H265111   5.290   0.921  16.568  0.7127 -2.1616 -2.6517
14566TIP3   OH265112   0.217   3.967  13.788  0.2300  0.4429  0.3390
14566TIP3    H165113   0.198   3.999  13.876 -0.8718  2.6880 -0.6475
14566TIP3    H265114   0.141   3.914  13.765 -0.0135  0.7994  0.3174
14567TIP3   OH265115   4.290   3.255  12.996 -0.2329  0.0409  0.0247
14567TIP3    H165116   4.372   3.280  12.953  0.6954  0.6246  1.9895
14567TIP3    H265117   4.310   3.262  13.089 -2.7878  1.0604  0.5779
14568TIP3   OH265118   0.524   6.087  11.424 -0.0049  0.0895 -0.9916
14568TIP3    H165119   0.558   6.060  11.510  0.0958  1.4081 -0.5934
14568TIP3    H265120   0.508   6.005  11.378 -2.0827 -0.7846  1.0632
14569TIP3   OH265121   1.041   1.604   3.031 -0.6500 -0.2797  0.0004
14569TIP3    H165122   1.131   1.586   3.004 -0.7022 -0.9379  0.2391
14569TIP3    H265123   1.024   1.692   2.998  0.2372  0.0400  0.3577
14570TIP3   OH265124   6.043   1.170   4.733 -0.6271 -0.0412 -0.2722
14570TIP3    H165125   6.036   1.111   4.808  4.0294 -1.2569 -0.4947
14570TIP3    H265126   5.987   1.131   4.666 -1.4929 -1.3631  1.1629
14571TIP3   OH265127   2.389   3.207   4.292 -0.3834 -0.0059  0.0350
14571TIP3    H165128   2.399   3.277   4.356  1.1769 -0.7911  0.7155
14571TIP3    H265129   2.395   3.250   4.207  0.3731  0.7278  0.4456
14572TIP3   OH265130   4.732   1.698   0.944 -0.6368  0.4151  0.2045
14572TIP3    H165131   4.792   1.756   0.896  0.4944 -1.0221 -0.1808
14572TIP3    H265132   4.649   1.705   0.896  0.5426 -1.2930 -2.3651
14573TIP3   OH265133   4.834   4.424  14.170  0.1224  0.3663 -0.6177
14573TIP3    H165134   4.852   4.340  14.128  0.0347  0.6066 -1.1497
14573TIP3    H265135   4.777   4.470  14.108  0.1791  0.8219 -0.3367
14574TIP3   OH265136   1.462   3.068   2.569 -0.1337  0.1723 -0.0602
14574TIP3    H165137   1.439   3.126   2.642 -0.7674 -1.3747  1.0155
14574TIP3    H265138   1.520   3.002   2.607 -1.4618 -1.3840 -0.6277
14575TIP3   OH265139   6.477   4.588  11.050  0.2579 -0.0011  0.0306
14575TIP3    H165140   6.514   4.657  10.995 -0.9690 -0.3678 -1.3326
14575TIP3    H265141   6.461   4.630  11.134  1.3318  0.8348 -0.1631
14576TIP3   OH265142   1.589   6.599  10.909  0.9960  0.1624  0.0693
14576TIP3    H165143   1.606   6.570  10.999  2.3982  0.6470 -0.0222
14576TIP3    H265144   1.618   6.690  10.907  1.7917 -0.0964 -1.1033
14577TIP3   OH265145   3.266   6.013  13.500 -0.0349  0.1250  0.1138
14577TIP3    H165146   3.192   6.022  13.561 -0.0383 -0.6339  0.2239
14577TIP3    H265147   3.280   6.102  13.467 -1.5129  0.1618 -0.5045
14578TIP3   OH265148   4.081   0.136   1.104 -0.2335  0.0944 -0.5311
14578TIP3    H165149   4.098   0.049   1.068  5.6385  1.1525 -1.2859
14578TIP3    H265150   4.071   0.192   1.027 -0.8335  0.5328 -0.1384
14579TIP3   OH265151   5.335   3.694   1.364  0.3193  0.1970  0.0831
14579TIP3    H165152   5.304   3.744   1.440 -3.5099 -2.0338  0.2288
14579TIP3    H265153   5.311   3.748   1.288  0.6763  0.7181  0.3347
14580TIP3   OH265154   3.455   1.205   2.637  0.1897 -0.6127  0.1749
14580TIP3    H165155   3.405   1.261   2.695  1.6056  0.3862  0.4989
14580TIP3    H265156   3.425   1.228   2.549  0.4911  0.4064  0.3281
14581TIP3   OH265157   0.958   6.740   3.682 -0.3363  0.0837 -0.5309
14581TIP3    H165158   0.972   6.818   3.627  1.3216 -0.2556 -0.6469
14581TIP3    H265159   1.036   6.736   3.737 -1.1678 -0.5856  0.6416
14582TIP3   OH265160   4.471   6.065  11.329 -0.5201  0.2556  0.0177
14582TIP3    H165161   4.398   6.109  11.285 -2.1606 -2.3568 -0.0981
14582TIP3    H265162   4.519   6.021  11.259  0.9411  1.5343  0.1598
14583TIP3   OH265163   3.749   2.487   4.827  0.4430 -0.9758  0.0367
14583TIP3    H165164   3.686   2.418   4.847 -1.0898  0.1354 -0.7556
14583TIP3    H265165   3.759   2.483   4.732  0.2013 -0.0317 -0.0397
14584TIP3   OH265166   1.325   5.765   3.500  0.5967  0.3191 -0.3387
14584TIP3    H165167   1.388   5.760   3.572  1.4048 -0.5783 -1.0761
14584TIP3    H265168   1.254   5.707   3.528  0.8580  0.0583 -0.1975
14585TIP3   OH265169   2.578   4.323   4.070  0.0286 -0.1278 -0.1926
14585TIP3    H165170   2.540   4.248   4.025 -0.1098 -0.5964  0.6756
14585TIP3    H265171   2.506   4.386   4.076  0.1005  0.0123 -0.7842
14586TIP3   OH265172   4.323   4.312   3.717 -0.3396  0.6388 -0.0069
14586TIP3    H165173   4.232   4.334   3.734 -0.4712  1.3052 -1.4549
14586TIP3    H265174   4.347   4.364   3.641  1.3818  0.7761  0.5824
14587TIP3   OH265175   3.017   4.260  15.213  0.3579 -0.3400  0.2387
14587TIP3    H165176   3.080   4.244  15.142 -1.4269 -1.4524 -1.1679
14587TIP3    H265177   2.946   4.308  15.172 -0.0983  0.2096  1.6175
14588TIP3   OH265178   1.379   5.280  11.643  0.3175 -0.3406  0.8796
14588TIP3    H165179   1.364   5.187  11.630 -3.0932  0.2366 -0.2545
14588TIP3    H265180   1.389   5.316  11.554 -3.9236  0.9760  0.6953
14589TIP3   OH265181   4.738   4.578  13.810 -0.0172  0.4790 -0.0621
14589TIP3    H165182   4.673   4.541  13.870  0.5345 -1.2670 -0.4776
14589TIP3    H265183   4.781   4.647  13.860 -1.1806  0.6635  0.7164
14590TIP3   OH265184   1.672   1.986   1.453 -0.0522 -0.4193  0.4939
14590TIP3    H165185   1.620   2.026   1.383 -0.0236 -0.2919  0.5436
14590TIP3    H265186   1.682   1.895   1.428  0.7856 -0.1592 -0.1613
14591TIP3   OH265187   1.812   4.522   3.995  0.3762 -0.0647  0.1873
14591TIP3    H165188   1.768   4.546   3.913  1.2867  0.8253 -0.0543
14591TIP3    H265189   1.781   4.434   4.013  0.1579 -0.2829 -1.1190
14592TIP3   OH265190   0.458   2.199   3.724  0.3858 -0.0292 -0.3088
14592TIP3    H165191   0.394   2.262   3.692 -0.8860 -1.0017  0.2166
14592TIP3    H265192   0.521   2.251   3.774  0.2814  1.0096 -1.2264
14593TIP3   OH265193   5.965   3.041  12.181 -0.1853 -0.3740  0.1369
14593TIP3    H165194   6.054   3.071  12.199 -0.9173  1.0602  1.6024
14593TIP3    H265195   5.971   3.000  12.095  1.9638 -0.6888  0.3588
14594TIP3   OH265196   2.457   4.652  15.083  0.3096 -0.2321 -0.8106
14594TIP3    H165197   2.534   4.607  15.050  2.4883  1.3579  1.7658
14594TIP3    H265198   2.443   4.617  15.170  1.2827  2.8919  0.7679
14595TIP3   OH265199   5.769   5.546   1.692 -0.0762 -0.2450 -0.3519
14595TIP3    H165200   5.847   5.577   1.738  0.6955 -1.5894 -0.7003
14595TIP3    H265201   5.790   5.456   1.668 -2.6061 -1.4497  1.5190
14596TIP3   OH265202   0.183   2.402  13.174  0.0292  0.0380 -0.7520
14596TIP3    H165203   0.232   2.325  13.145  0.5024 -0.2448  0.7366
14596TIP3    H265204   0.208   2.471  13.113 -1.2197 -1.2055 -2.7987
14597TIP3   OH265205   4.505   6.067   5.214  0.3504  0.0338  0.3205
14597TIP3    H165206   4.415   6.085   5.240  0.2303 -1.8937  1.4194
14597TIP3    H265207   4.500   5.988   5.161  1.4635 -0.6867  1.2303
14598TIP3   OH265208   5.175   0.033  13.833 -0.1182  0.3335 -0.2721
14598TIP3    H165209   5.086   0.029  13.869  0.5209  1.5559  1.6234
14598TIP3    H265210   5.228  -0.017  13.895  0.9182  1.8790  0.1456
14599TIP3   OH265211   4.259   3.437  14.152 -0.1052  0.1279 -0.0283
14599TIP3    H165212   4.196   3.482  14.096 -0.0399  0.6665  0.3249
14599TIP3    H265213   4.206   3.388  14.215 -0.1769 -0.3654 -0.4697
14600TIP3   OH265214   6.297   6.199   4.677  0.0759  0.3848  0.7155
14600TIP3    H165215   6.250   6.145   4.740  1.0580 -0.2799  0.9064
14600TIP3    H265216   6.370   6.236   4.728  0.0966  0.9385  0.2943
14601TIP3   OH265217   0.910   6.532   5.573  0.5232  0.5221  0.1783
14601TIP3    H165218   0.899   6.579   5.656  0.6202 -1.4449  1.3527
14601TIP3    H265219   0.821   6.526   5.537 -0.2516 -2.2610  2.2684
14602TIP3   OH265220   4.416   0.950  12.341 -0.2103  0.1338 -0.1561
14602TIP3    H165221   4.352   0.981  12.405 -1.4880 -0.9189 -0.8543
14602TIP3    H265222   4.498   0.991  12.366 -1.0086  0.9543  1.2206
14603TIP3   OH265223   5.280   3.765   3.330  0.3526  0.6274  0.1846
14603TIP3    H165224   5.267   3.715   3.250 -1.2071  0.5249  0.4660
14603TIP3    H265225   5.206   3.826   3.333 -1.1458 -1.0962  2.7688
14604TIP3   OH265226   4.867   0.181   2.949  0.6405  0.0564 -0.0854
14604TIP3    H165227   4.943   0.240   2.951  3.2546 -3.0466  1.4327
14604TIP3    H265228   4.858   0.159   2.856  1.0066  1.1301 -0.4010
14605TIP3   OH265229   2.802   3.875  11.517 -0.0624 -0.5345 -0.2702
14605TIP3    H165230   2.841   3.788  11.506  2.1243  0.2833  0.4912
14605TIP3    H265231   2.814   3.917  11.431  0.2890 -0.4753 -0.1962
14606TIP3   OH265232   4.214   1.827   3.519  0.3309  0.1084  0.4571
14606TIP3    H165233   4.300   1.810   3.483  0.1314 -0.9616  0.4690
14606TIP3    H265234   4.196   1.918   3.496  0.2773 -0.4669 -2.0217
14607TIP3   OH265235   6.103   4.366  16.779  0.3722 -0.3680  0.5218
14607TIP3    H165236   6.116   4.449  16.732 -3.3175 -0.7826 -1.6390
14607TIP3    H265237   6.181   4.314  16.758  0.9170  1.1329 -1.4810
14608TIP3   OH265238   0.610   0.824   4.907  0.1146  0.4903  0.8067
14608TIP3    H165239   0.675   0.755   4.894 -0.5965  0.3733 -3.3969
14608TIP3    H265240   0.532   0.779   4.937  0.4849 -0.0775  0.9409
14609TIP3   OH265241   0.154   1.190  13.856  0.4411 -0.2750 -0.3491
14609TIP3    H165242   0.125   1.169  13.945  0.1505 -0.3602 -0.4631
14609TIP3    H265243   0.212   1.118  13.832  1.5365  0.3851  0.2476
14610TIP3   OH265244   1.986   5.886   0.857 -0.4361 -0.1307  0.1698
14610TIP3    H165245   2.079   5.906   0.867 -0.6326  0.3133  1.2754
14610TIP3    H265246   1.959   5.938   0.781  0.1974 -0.2254 -0.1296
14611TIP3   OH265247   0.872   6.573   3.479 -0.5453 -0.3702 -0.3413
14611TIP3    H165248   0.835   6.631   3.546 -0.9591 -1.8213  0.7573
14611TIP3    H265249   0.963   6.602   3.469 -0.5730  0.0786  0.6150
14612TIP3   OH265250   0.073   0.179   2.257 -0.4709 -0.2031  0.2402
14612TIP3    H165251   0.043   0.120   2.326  0.0275  0.1731  0.7940
14612TIP3    H265252   0.025   0.260   2.272  0.0054  0.0455  0.4686
14613TIP3   OH265253   4.798   3.886  13.052 -0.4749 -0.1498 -0.0667
14613TIP3    H165254   4.784   3.800  13.093  1.0819  0.0710  1.0475
14613TIP3    H265255   4.890   3.883  13.024 -0.9259  0.5008 -1.6879
14614TIP3   OH265256   0.873   5.865  14.817  0.6858  0.1674  0.2159
14614TIP3    H165257   0.880   5.928  14.745 -0.8866  0.2823  0.1233
14614TIP3    H265258   0.810   5.800  14.786  0.3807 -0.0669  1.2837
14615TIP3   OH265259   0.238   4.567   4.023  0.3531  0.0195  0.1829
14615TIP3    H165260   0.273   4.632   3.963 -1.0100  1.1317  0.5344
14615TIP3    H265261   0.293   4.490   4.010  1.0425  0.7306 -1.3730
14616TIP3   OH265262   3.373   4.392  13.484 -0.7193 -0.1230 -0.4268
14616TIP3    H165263   3.318   4.394  13.563 -1.7716 -0.1197 -1.1319
14616TIP3    H265264   3.387   4.299  13.467  2.0168 -0.1390  1.4025
14617TIP3   OH265265   4.417   1.425  16.181  0.7522  0.0191  0.5401
14617TIP3    H165266   4.351   1.410  16.248 -0.8246  0.1041 -0.9152
14617TIP3    H265267   4.390   1.369  16.108  0.9154  1.8341 -0.9813
14618TIP3   OH265268   2.473   4.801   1.205 -0.0342  0.2321  0.0015
14618TIP3    H165269   2.553   4.836   1.245  0.8493 -1.1779 -0.4724
14618TIP3    H265270   2.418   4.776   1.279  0.6140 -0.2234  0.3304
14619TIP3   OH265271   1.895   4.882   1.383 -0.0902 -0.3073  0.6509
14619TIP3    H165272   1.893   4.972   1.350 -1.3825 -0.7820 -0.6328
14619TIP3    H265273   1.922   4.829   1.308 -3.5701 -1.4745  0.0374
14620TIP3   OH265274   4.134   1.333  15.169 -0.4302 -0.2833 -0.1404
14620TIP3    H165275   4.223   1.340  15.204 -0.5992  3.2715 -0.0988
14620TIP3    H265276   4.146   1.326  15.074 -0.0922 -0.3553 -0.0953
14621TIP3   OH265277   2.882   6.577  14.223  0.4520 -0.1470 -0.5875
14621TIP3    H165278   2.893   6.567  14.318 -0.7704 -0.8556 -0.4951
14621TIP3    H265279   2.787   6.576  14.210  0.5738  0.9012 -1.7388
14622TIP3   OH265280   1.087   2.429  15.145 -0.4845  0.4409 -0.0655
14622TIP3    H165281   1.112   2.517  15.117  1.5595 -0.2183 -0.4807
14622TIP3    H265282   1.152   2.406  15.211 -0.2418 -1.2160 -0.8331
14623TIP3   OH265283   4.084   5.601   5.336 -0.0086 -0.1911  0.6505
14623TIP3    H165284   4.142   5.623   5.409  1.1196  1.5666 -0.7050
14623TIP3    H265285   3.996   5.614   5.371  0.5295  1.5610  1.4550
14624TIP3   OH265286   2.851   5.347  14.597 -0.1218  0.2761  0.5264
14624TIP3    H165287   2.766   5.320  14.564 -0.3063 -2.6842  3.0045
14624TIP3    H265288   2.914   5.314  14.533 -0.6931  0.4682 -0.1525
14625TIP3   OH265289   1.082   1.428   1.941 -0.5745 -0.2343  0.2261
14625TIP3    H165290   1.046   1.495   1.883  0.9729  0.2230 -0.2466
14625TIP3    H265291   1.124   1.365   1.883  2.7827  1.2601  0.7763
14626TIP3   OH265292   5.907   0.702  13.345  0.0421  0.0573  0.2491
14626TIP3    H165293   5.822   0.668  13.317 -0.5046  0.9679  0.7276
14626TIP3    H265294   5.889   0.793  13.370  1.0630  0.1205  0.8148
14627TIP3   OH265295   0.693   4.781  14.040 -0.1967  0.3242  0.3192
14627TIP3    H165296   0.782   4.770  14.073  0.1542  0.8267 -0.4263
14627TIP3    H265297   0.696   4.745  13.951 -0.6950  0.4932  0.2332
14628TIP3   OH265298   4.936   4.848  16.316  0.0694 -0.5167 -0.3684
14628TIP3    H165299   4.867   4.853  16.383  0.0354  1.1713 -0.4868
14628TIP3    H265300   4.933   4.933  16.272  2.0667 -0.4891 -0.5361
14629TIP3   OH265301   1.417   4.201  13.963 -0.3355  0.3213 -0.7105
14629TIP3    H165302   1.445   4.116  13.929 -0.9732  0.1738 -0.8849
14629TIP3    H265303   1.323   4.205  13.944 -0.7281  0.2458  0.9790
14630TIP3   OH265304   3.199   3.652  14.829 -0.0365  0.0469 -0.1723
14630TIP3    H165305   3.196   3.572  14.777  0.3618  0.1120 -0.2939
14630TIP3    H265306   3.291   3.663  14.852 -0.2737 -0.2885  1.0268
14631TIP3   OH265307   2.592   5.475   4.775  0.1615 -0.7064  0.3644
14631TIP3    H165308   2.508   5.505   4.740  0.0424 -0.9042  0.4723
14631TIP3    H265309   2.591   5.503   4.866  2.2686  3.5900 -0.6840
14632TIP3   OH265310   1.455   1.914  12.432 -0.3278 -0.2547 -0.2981
14632TIP3    H165311   1.515   1.839  12.435 -0.4835 -0.4748 -1.6981
14632TIP3    H265312   1.377   1.884  12.478  0.3511 -0.2249  0.9014
14633TIP3   OH265313   0.332   5.830  15.974 -0.5507 -0.4223  0.5957
14633TIP3    H165314   0.404   5.851  16.034 -1.5793  0.0467  1.7135
14633TIP3    H265315   0.329   5.904  15.914 -0.4242 -0.2054  0.8539
14634TIP3   OH265316   5.137   3.995   0.445 -0.1566  0.1620 -0.2368
14634TIP3    H165317   5.196   3.934   0.489 -1.4310  0.6929  2.4646
14634TIP3    H265318   5.183   4.079   0.446 -0.3075  0.2418  0.4353
14635TIP3   OH265319   4.694   3.744  12.274  0.0674 -0.6796  0.5633
14635TIP3    H165320   4.656   3.662  12.241 -0.4277 -0.3682  0.3461
14635TIP3    H265321   4.728   3.787  12.196 -0.0533 -0.4820  0.6197
14636TIP3   OH265322   3.745   4.856   3.835  0.3237  0.3924  0.0622
14636TIP3    H165323   3.702   4.916   3.896 -0.7865 -0.1917 -0.1118
14636TIP3    H265324   3.768   4.780   3.889  0.1769  0.2644 -0.0533
14637TIP3   OH265325   5.384   1.308  12.438  0.3882  0.1652  0.1381
14637TIP3    H165326   5.360   1.268  12.522 -0.3833 -0.1787 -0.2353
14637TIP3    H265327   5.437   1.383  12.462 -1.0131  0.9233  1.0130
14638TIP3   OH265328   4.816   1.370   1.327 -0.0258 -0.1353 -0.2526
14638TIP3    H165329   4.834   1.423   1.249 -1.1361  1.0908  0.2874
14638TIP3    H265330   4.730   1.330   1.309  0.1868 -0.6818 -0.0827
14639TIP3   OH265331   6.165   6.627   2.804  0.0896 -0.5032  0.0323
14639TIP3    H165332   6.161   6.583   2.719  2.5650  0.9427 -0.9491
14639TIP3    H265333   6.209   6.710   2.786 -1.0017  0.7192  2.4448
14640TIP3   OH265334   0.409   2.220  11.282  0.2111  1.0317  0.3215
14640TIP3    H165335   0.364   2.290  11.234  1.2202  2.3549  1.2426
14640TIP3    H265336   0.338   2.169  11.319 -0.5620  1.3205 -0.6832
14641TIP3   OH265337   6.349   3.260   3.941 -0.2716  0.3133 -0.6650
14641TIP3    H165338   6.367   3.277   4.034  0.7583  0.8683 -0.9510
14641TIP3    H265339   6.319   3.169   3.938 -1.1392  0.5513  0.3132
14642TIP3   OH265340   3.911   3.987   4.827  0.3156  0.1874 -0.1219
14642TIP3    H165341   3.954   4.070   4.805  0.6992 -0.4914 -2.0674
14642TIP3    H265342   3.977   3.920   4.810 -0.4866 -0.6339 -0.0628
14643TIP3   OH265343   0.453   3.315   5.890 -0.4100 -0.3702 -0.3474
14643TIP3    H165344   0.516   3.349   5.954  0.8831  0.2438 -1.8858
14643TIP3    H265345   0.420   3.234   5.930 -0.3603  0.4538  1.4890
14644TIP3   OH265346   1.509   2.598  15.693  0.2657 -0.0004 -0.2612
14644TIP3    H165347   1.479   2.584  15.783  2.8986 -2.4278  0.3900
14644TIP3    H265348   1.433   2.576  15.639 -0.9199 -0.0080  1.3261
14645TIP3   OH265349   4.062   5.787   4.148  0.0476  0.3810  0.2841
14645TIP3    H165350   4.135   5.754   4.096 -0.8306 -3.8325  1.3714
14645TIP3    H265351   4.095   5.785   4.238 -0.3465  1.9032  0.4897
14646TIP3   OH265352   5.957   2.224  14.076 -0.1234  0.2716  0.2225
14646TIP3    H165353   6.048   2.228  14.104 -0.5040 -0.9147  1.7888
14646TIP3    H265354   5.907   2.216  14.157 -1.6103  0.7083 -0.6157
14647TIP3   OH265355   4.389   3.998   6.039 -0.1883  0.2878 -0.1171
14647TIP3    H165356   4.460   4.057   6.064 -0.0879 -0.0565  0.4321
14647TIP3    H265357   4.318   4.055   6.013 -0.1236  0.6590  0.4999
14648TIP3   OH265358   6.448   5.528  16.306 -0.7772 -0.6686 -0.0762
14648TIP3    H165359   6.468   5.573  16.388  0.7657  0.5442 -1.0534
14648TIP3    H265360   6.354   5.513  16.309 -0.6004 -1.7669  2.4306
14649TIP3   OH265361   1.997   4.949   3.100  0.2212  0.0860  0.1484
14649TIP3    H165362   1.983   5.003   3.178 -0.4944  1.0096 -0.5916
14649TIP3    H265363   2.091   4.929   3.102  0.4154  0.9829  0.6883
14650TIP3   OH265364   1.429   4.855  14.701  0.3758 -0.1260 -0.3561
14650TIP3    H165365   1.495   4.876  14.634 -0.1985 -1.6423 -1.4651
14650TIP3    H265366   1.389   4.774  14.670  0.0769 -0.8865  1.8595
14651TIP3   OH265367   5.975   1.659   2.337  0.3320 -0.4300  0.7389
14651TIP3    H165368   5.994   1.694   2.249 -2.4663  0.0132  0.2241
14651TIP3    H265369   5.995   1.732   2.396 -0.3871  0.2421  0.1732
14652TIP3   OH265370   3.354   1.994  14.591 -0.3497  0.2857 -0.5995
14652TIP3    H165371   3.426   2.057  14.593  0.6093 -0.7454  1.8150
14652TIP3    H265372   3.283   2.036  14.639 -0.0138 -0.1113  0.2611
14653TIP3   OH265373   5.931   1.642  11.910 -0.3419 -0.0303  0.3676
14653TIP3    H165374   5.912   1.660  11.818 -0.3007 -1.1915  0.1179
14653TIP3    H265375   6.026   1.633  11.913 -0.1071  2.0439  0.9285
14654TIP3   OH265376   5.251   2.661   2.600  0.5789  0.2520 -0.2286
14654TIP3    H165377   5.254   2.756   2.607 -0.4483  0.2740  0.0947
14654TIP3    H265378   5.158   2.640   2.596  0.7815 -0.7640  0.0605
14655TIP3   OH265379   5.462   1.559   1.655  0.0048  0.1092  0.0436
14655TIP3    H165380   5.369   1.543   1.673  0.4259 -1.0037  1.3995
14655TIP3    H265381   5.464   1.645   1.614 -1.5588  0.4836  0.6906
14656TIP3   OH265382   5.771   2.912  11.937  0.1433  0.2443  0.3442
14656TIP3    H165383   5.864   2.912  11.914  0.3278  2.3571  0.8113
14656TIP3    H265384   5.730   2.855  11.873  1.6547 -0.0213 -0.4289
14657TIP3   OH265385   4.427   0.171   4.272 -0.0431 -0.0488 -0.1202
14657TIP3    H165386   4.423   0.086   4.316 -0.2503  0.4258  0.8054
14657TIP3    H265387   4.480   0.155   4.194  0.9426 -0.7503  0.6647
14658TIP3   OH265388   3.525   6.230  12.408  0.1173 -0.1523 -0.6512
14658TIP3    H165389   3.551   6.141  12.382  1.5699  0.6170 -2.0255
14658TIP3    H265390   3.600   6.264  12.457 -1.4036 -0.4899  2.0544
14659TIP3   OH265391   3.133   0.774   0.418 -0.3003 -0.2309  0.4763
14659TIP3    H165392   3.193   0.700   0.429 -0.4732 -0.5279 -0.5000
14659TIP3    H265393   3.070   0.745   0.353  0.2218  1.1205 -0.6957
14660TIP3   OH265394   3.149   2.797   5.134 -0.2567 -0.1029 -0.1377
14660TIP3    H165395   3.108   2.809   5.219  0.7108 -1.6116  0.5713
14660TIP3    H265396   3.152   2.702   5.121 -1.2655  0.0920 -2.3012
14661TIP3   OH265397   3.260   0.394  13.651  0.1778  0.2515 -0.2002
14661TIP3    H165398   3.324   0.347  13.598  0.2734  0.5707 -0.3681
14661TIP3    H265399   3.294   0.388  13.741  0.5804  0.6403 -0.3221
14662TIP3   OH265400   0.522   3.070   0.427  0.0094  0.3109 -0.7568
14662TIP3    H165401   0.595   3.098   0.482 -0.9171  0.0709  0.6463
14662TIP3    H265402   0.444   3.083   0.482 -0.8301 -1.1665 -1.5379
14663TIP3   OH265403   2.719   4.879  12.196  0.1452  0.0584  0.0316
14663TIP3    H165404   2.656   4.807  12.196  0.4912 -0.2624 -1.2487
14663TIP3    H265405   2.795   4.844  12.242 -0.3312  0.2278  0.9958
14664TIP3   OH265406   6.424   0.808  15.281  0.5785  0.1392  0.1006
14664TIP3    H165407   6.417   0.830  15.188  0.3631  2.4414  0.5837
14664TIP3    H265408   6.505   0.758  15.288  3.2210  3.8400 -0.8113
14665TIP3   OH265409   4.953   1.918   2.867  0.3270  0.7481 -0.0172
14665TIP3    H165410   4.895   1.946   2.796  0.4547  0.5000 -0.2229
14665TIP3    H265411   4.895   1.879   2.932  0.0581  2.1833  0.6293
14666TIP3   OH265412   0.180   4.127  14.260 -0.1369  0.4389  0.3887
14666TIP3    H165413   0.245   4.056  14.262  0.3638  0.9086  1.5972
14666TIP3    H265414   0.178   4.154  14.168 -0.7056 -1.4546 -0.2013
14667TIP3   OH265415   4.753   5.625   1.327  0.6371  0.5748 -0.3691
14667TIP3    H165416   4.726   5.579   1.406  0.6993  1.1360 -0.0108
14667TIP3    H265417   4.672   5.659   1.290  0.6174  0.3874 -0.4982
14668TIP3   OH265418   2.070   1.243   1.075  0.8816 -0.5314 -0.3510
14668TIP3    H165419   2.129   1.315   1.097  1.9448 -1.4444 -0.1240
14668TIP3    H265420   1.996   1.253   1.135 -0.3785  1.9644 -2.1344
14669TIP3   OH265421   3.300   2.059  13.443 -0.2356 -0.2657  0.1176
14669TIP3    H165422   3.261   2.039  13.358  0.8563 -0.9240 -0.2422
14669TIP3    H265423   3.377   2.111  13.422  0.5258 -1.1580  0.6407
14670TIP3   OH265424   4.017   4.307   5.409 -0.4681  0.3670 -0.1797
14670TIP3    H165425   4.001   4.260   5.327 -1.2843  0.1151  0.1145
14670TIP3    H265426   4.015   4.399   5.385 -0.3862  0.2891 -0.4919
14671TIP3   OH265427   4.024   1.047  14.720 -0.7764  0.3540  0.2995
14671TIP3    H165428   3.930   1.029  14.726 -0.6650 -0.1595  0.5607
14671TIP3    H265429   4.065   0.974  14.765 -0.2224  0.2573 -0.3532
14672TIP3   OH265430   1.910   5.326   3.116 -0.0501 -0.2435  0.1540
14672TIP3    H165431   1.977   5.259   3.128  0.5829  0.5770  1.4568
14672TIP3    H265432   1.953   5.393   3.063  0.2378  0.3406  1.0936
14673TIP3   OH265433   5.603   4.946  14.223  0.5826  0.2451 -0.0372
14673TIP3    H165434   5.635   4.863  14.258  2.2290  1.1237  0.6214
14673TIP3    H265435   5.581   4.998  14.300  2.2161  1.4215 -0.3264
14674TIP3   OH265436   4.048   2.876  13.120  0.1133 -0.4162  0.6697
14674TIP3    H165437   3.997   2.956  13.134  1.5361  0.8471 -1.0451
14674TIP3    H265438   4.128   2.890  13.171  0.4744 -0.6323  0.1632
14675TIP3   OH265439   3.582   6.413  14.187  0.2507 -0.5232 -0.0874
14675TIP3    H165440   3.494   6.378  14.205  1.3149 -1.7992  3.4693
14675TIP3    H265441   3.626   6.344  14.138  0.1523 -1.2414  0.7959
14676TIP3   OH265442   1.809   1.831  13.516  0.6854 -0.4567  0.0231
14676TIP3    H165443   1.848   1.916  13.535  1.3940 -0.8100  0.1861
14676TIP3    H265444   1.879   1.783  13.470 -0.0156 -0.6263 -0.9030
14677TIP3   OH265445   2.697   2.225   1.918  0.0466  0.9174 -0.7959
14677TIP3    H165446   2.630   2.294   1.913  0.0217  0.8455 -1.7774
14677TIP3    H265447   2.670   2.162   1.851 -0.0205 -0.1386  0.1967
14678TIP3   OH265448   3.796   1.448  12.465 -0.0669  0.4812  0.3264
14678TIP3    H165449   3.770   1.420  12.377 -0.0527 -0.3318  0.5683
14678TIP3    H265450   3.788   1.368  12.518 -1.4598  1.2750  1.3669
14679TIP3   OH265451   4.897   3.041  15.854  0.5159  0.5953 -0.6937
14679TIP3    H165452   4.890   3.120  15.908  0.6145  1.3065 -1.6718
14679TIP3    H265453   4.919   2.971  15.915 -1.8658  0.8505  0.5774
14680TIP3   OH265454   6.093   0.964  11.925 -0.3198 -0.4035  0.3118
14680TIP3    H165455   6.127   1.050  11.951 -1.9091  0.9858 -1.8629
14680TIP3    H265456   6.171   0.915  11.898  0.6074  0.3330  1.4983
14681TIP3   OH265457   4.345   0.378  16.689  0.0327  0.0319 -0.5311
14681TIP3    H165458   4.335   0.359  16.596 -1.0851 -2.4329  0.0061
14681TIP3    H265459   4.256   0.402  16.718  0.2165  0.0220  0.0510
14682TIP3   OH265460   0.874   4.677  11.340  0.2119 -0.0422 -0.0679
14682TIP3    H165461   0.949   4.669  11.281  1.4111 -1.2311  1.5410
14682TIP3    H265462   0.902   4.740  11.407 -0.3435 -0.2397  0.3632
14683TIP3   OH265463   0.872   5.815   3.738 -0.2957  0.4579 -0.2242
14683TIP3    H165464   0.943   5.756   3.763 -0.7928 -0.0596 -0.0237
14683TIP3    H265465   0.891   5.839   3.648  1.0730  1.6948  0.3596
14684TIP3   OH265466   4.804   5.805  17.030  0.2249 -0.1663  0.1510
14684TIP3    H165467   4.724   5.856  17.042 -1.1647 -2.3544  0.7010
14684TIP3    H265468   4.854   5.818  17.111 -0.3463 -0.1052  0.4949
14685TIP3   OH265469   6.370   5.553   3.903 -0.3932 -0.1255  0.4547
14685TIP3    H165470   6.322   5.483   3.858 -1.5423  0.2017  1.1213
14685TIP3    H265471   6.402   5.513   3.983 -0.3629 -0.0982  0.4564
14686TIP3   OH265472   3.519   0.009  12.432  0.3131 -0.2985 -0.2380
14686TIP3    H165473   3.479  -0.059  12.487  0.6563 -0.7038 -0.4895
14686TIP3    H265474   3.543  -0.036  12.351 -0.5429  0.3692 -0.8987
14687TIP3   OH265475   1.178   0.137  13.995 -0.1392 -0.0508  0.0288
14687TIP3    H165476   1.171   0.179  14.080  1.4252  0.9235 -0.2856
14687TIP3    H265477   1.270   0.144  13.972 -0.6891  0.6988 -2.2241
14688TIP3   OH265478   3.796   6.718  11.532 -0.2290  0.0241  0.2875
14688TIP3    H165479   3.796   6.791  11.594 -0.0507  0.8274 -0.6278
14688TIP3    H265480   3.869   6.737  11.473 -0.9379 -0.2444 -0.6972
14689TIP3   OH265481   3.846   2.920  10.113  0.1343 -0.7998  0.6642
14689TIP3    H165482   3.847   2.974  10.034  0.6394 -0.2039  1.0723
14689TIP3    H265483   3.812   2.978  10.181 -0.7803 -1.4571  0.7917
14690TIP3   OH265484   5.625   0.230   2.865  0.5651  0.5364  0.1782
14690TIP3    H165485   5.637   0.137   2.882 -2.2917  0.5188  2.8156
14690TIP3    H265486   5.633   0.272   2.951 -0.5701  2.4216 -0.5693
14691TIP3   OH265487   0.197   3.752   3.876  0.3242 -0.2248  0.3968
14691TIP3    H165488   0.167   3.688   3.811 -1.2238 -0.6441  1.4713
14691TIP3    H265489   0.126   3.757   3.940  1.0728  1.4443  1.1670
14692TIP3   OH265490   4.265   5.797  14.639  0.0874 -0.0041 -0.1341
14692TIP3    H165491   4.181   5.838  14.660  0.7398  1.8024 -0.8925
14692TIP3    H265492   4.320   5.813  14.715  0.2173  0.1409 -0.2593
14693TIP3   OH265493   0.347   6.439  10.764 -0.0868  0.2263  0.4113
14693TIP3    H165494   0.402   6.390  10.702  0.5393  1.1908  0.1711
14693TIP3    H265495   0.403   6.512  10.792 -0.7233  0.3622  1.3471
14694TIP3   OH265496   2.293   3.801  11.006 -0.0465 -0.1966 -0.1979
14694TIP3    H165497   2.295   3.771  10.915 -0.7162 -1.2188  0.1011
14694TIP3    H265498   2.261   3.725  11.055 -1.1152  0.8015  0.7070
14695TIP3   OH265499   1.584   5.065  13.847  0.3477 -0.3400  0.2321
14695TIP3    H165500   1.584   5.069  13.942  2.1481 -0.5757  0.2672
14695TIP3    H265501   1.673   5.090  13.821  0.0349 -0.7415 -1.3590
14696TIP3   OH265502   0.469   1.995  16.272 -0.6035  0.2711  0.4087
14696TIP3    H165503   0.433   1.910  16.246  0.6539  0.1849 -1.1581
14696TIP3    H265504   0.509   2.030  16.193 -0.9880  2.2978  1.0500
14697TIP3   OH265505   2.453   1.483   6.367  0.1583  0.3484  0.3804
14697TIP3    H165506   2.520   1.496   6.300  0.2905  1.5748  0.7186
14697TIP3    H265507   2.402   1.565   6.366 -1.1148 -0.4068  0.3836
14698TIP3   OH265508   6.175   4.876  11.732  0.2262  0.6616 -0.2944
14698TIP3    H165509   6.190   4.945  11.797  1.4444  1.5441 -1.4509
14698TIP3    H265510   6.127   4.808  11.779 -0.2102  1.9053  1.1244
14699TIP3   OH265511   6.803   4.334  10.194 -0.1122 -0.5686 -0.1549
14699TIP3    H165512   6.784   4.303  10.106 -1.3314 -0.8795  0.1868
14699TIP3    H265513   6.826   4.255  10.243 -0.4938 -0.5507  0.0571
14700TIP3   OH265514   3.656   4.387  16.308  0.3889  0.4887  0.0472
14700TIP3    H165515   3.698   4.468  16.336  2.0140  0.6121 -2.4045
14700TIP3    H265516   3.617   4.409  16.223 -1.5022 -0.6335  0.5823
14701TIP3   OH265517   1.835   2.228   5.341  0.2183  0.0427  0.2754
14701TIP3    H165518   1.900   2.285   5.383  0.5586  0.4256 -0.7542
14701TIP3    H265519   1.862   2.139   5.364  1.0002  0.2058 -0.0034
14702TIP3   OH265520   5.157   2.742   6.017 -0.2240  0.6382  0.2348
14702TIP3    H165521   5.175   2.685   6.091  0.6416 -0.4335 -0.7557
14702TIP3    H265522   5.068   2.773   6.031 -0.0014  0.6125  1.8012
14703TIP3   OH265523   0.893   5.845  16.835  0.3315 -0.2398  0.2333
14703TIP3    H165524   0.957   5.890  16.890 -0.5600  1.8915 -0.3359
14703TIP3    H265525   0.812   5.897  16.845 -0.8078 -1.8088 -0.4244
14704TIP3   OH265526   1.826   1.012   3.355  0.3038  0.3947 -0.0050
14704TIP3    H165527   1.916   1.038   3.332  0.0174  2.7224  1.2109
14704TIP3    H265528   1.829   0.995   3.449 -0.6227  1.0262  0.1507
14705TIP3   OH265529   3.971   3.038  11.755  0.4443  0.3962  0.0433
14705TIP3    H165530   4.008   3.125  11.767 -1.4054  1.3176 -0.5280
14705TIP3    H265531   4.035   2.979  11.794  1.7786  1.9959  0.3818
14706TIP3   OH265532   2.367   2.975  12.569 -0.1347  0.1933 -0.6675
14706TIP3    H165533   2.351   2.944  12.479  1.4133  1.2860 -1.3477
14706TIP3    H265534   2.414   2.903  12.611  0.7123  0.3812 -1.2857
14707TIP3   OH265535   0.317   6.584  15.571 -0.2013 -0.1540  0.1611
14707TIP3    H165536   0.385   6.517  15.573 -0.4594 -0.3949  0.9311
14707TIP3    H265537   0.333   6.638  15.648  1.3507  2.0551 -1.5547
14708TIP3   OH265538   2.741   0.263   5.152 -0.1349  0.5836 -0.4474
14708TIP3    H165539   2.655   0.243   5.188  0.0887 -1.6662 -1.0352
14708TIP3    H265540   2.792   0.294   5.227 -0.3854 -1.7170  0.7554
14709TIP3   OH265541   5.117   1.170   6.175 -0.2315  0.9905  0.0373
14709TIP3    H165542   5.037   1.210   6.209 -1.5813 -0.1350 -1.5803
14709TIP3    H265543   5.158   1.239   6.122 -0.1591  1.5536  0.8135
14710TIP3   OH265544   3.459   6.474  12.065  0.5312 -0.3983  0.4975
14710TIP3    H165545   3.550   6.451  12.044  0.7257 -0.0497  0.9566
14710TIP3    H265546   3.413   6.465  11.981  0.6982 -1.9506  0.5330
14711TIP3   OH265547   5.202   4.933   0.155  0.0261 -0.5343  0.0609
14711TIP3    H165548   5.180   5.000   0.090 -0.9489 -1.1529 -0.2788
14711TIP3    H265549   5.119   4.888   0.171  1.1097 -3.4325 -1.7619
14712TIP3   OH265550   0.711   5.917  15.827 -0.2761  0.0557 -0.2724
14712TIP3    H165551   0.802   5.901  15.849 -1.0436 -2.0265  1.7715
14712TIP3    H265552   0.687   5.994  15.877  0.5750  1.2877 -1.6651
14713TIP3   OH265553   2.825   4.471  15.752  0.3109  0.3467  0.3429
14713TIP3    H165554   2.752   4.474  15.813 -0.7347 -3.7160 -0.4008
14713TIP3    H265555   2.785   4.488  15.666  0.6288  0.0700  0.1398
14714TIP3   OH265556   2.676   5.395  14.215 -0.0382  0.1461  0.8223
14714TIP3    H165557   2.743   5.464  14.217  2.1029 -1.8068  1.1749
14714TIP3    H265558   2.629   5.410  14.133 -0.2442  2.5241  1.3078
14715TIP3   OH265559   6.306   2.155   6.352 -0.5092 -0.2161 -0.1133
14715TIP3    H165560   6.254   2.235   6.362 -0.5099 -0.2387  0.0732
14715TIP3    H265561   6.242   2.087   6.331 -0.8653 -0.6815  2.1756
14716TIP3   OH265562   3.599   2.928  15.881 -0.1397  0.2291  0.4487
14716TIP3    H165563   3.640   2.907  15.964  1.4408  1.6793  0.0745
14716TIP3    H265564   3.585   3.022  15.883  2.1239  0.7297 -1.7921
14717TIP3   OH265565   3.475   2.377   2.219 -0.2654 -0.1214  0.1363
14717TIP3    H165566   3.477   2.343   2.129  1.1456 -1.1052  0.5024
14717TIP3    H265567   3.563   2.359   2.253 -0.3865  1.3556  1.3144
14718TIP3   OH265568   2.227   5.656  13.799 -0.0340  0.6656  0.3788
14718TIP3    H165569   2.145   5.700  13.776 -0.6381 -1.0487 -0.9387
14718TIP3    H265570   2.212   5.622  13.887 -1.1653 -0.5405 -0.2583
14719TIP3   OH265571   1.405   6.133   5.882 -0.4985 -0.5129 -0.0558
14719TIP3    H165572   1.422   6.040   5.874  1.9758 -0.0587 -0.9943
14719TIP3    H265573   1.322   6.139   5.929 -1.8697 -3.1859 -1.9135
14720TIP3   OH265574   3.431   2.329   4.254  0.1966  0.2259  0.7507
14720TIP3    H165575   3.360   2.277   4.217  1.3940 -0.1744 -1.1335
14720TIP3    H265576   3.459   2.280   4.332 -0.4643 -0.5257  0.5280
14721TIP3   OH265577   0.733   6.551  12.032  0.2772  0.5652 -0.6809
14721TIP3    H165578   0.772   6.471  11.995  2.0310  1.0097  0.0719
14721TIP3    H265579   0.762   6.552  12.123 -0.8995  1.3552 -0.2927
14722TIP3   OH265580   3.440   6.151   2.630 -0.2117  0.5219  0.0684
14722TIP3    H165581   3.508   6.093   2.595  0.0026  0.4201  0.6322
14722TIP3    H265582   3.485   6.234   2.645 -0.5301  0.8510 -0.7815
14723TIP3   OH265583   5.123   6.414  16.185  0.0174 -0.1890  0.0313
14723TIP3    H165584   5.049   6.354  16.194 -0.2590  0.0508 -0.5535
14723TIP3    H265585   5.156   6.425  16.274 -1.7071  1.0081  0.5839
14724TIP3   OH265586   4.759   2.161  11.560  0.3808 -0.2012 -0.0968
14724TIP3    H165587   4.664   2.162  11.544 -0.1888 -0.7384  2.6713
14724TIP3    H265588   4.783   2.253  11.568 -0.1595 -0.0902  0.3305
14725TIP3   OH265589   1.657   5.867  15.685 -0.4749  0.1092  0.2538
14725TIP3    H165590   1.660   5.773  15.666 -0.1442  0.0274  0.7018
14725TIP3    H265591   1.673   5.873  15.779 -0.8465  0.5913  0.2923
14726TIP3   OH265592   3.970   4.747   4.297 -0.3087  0.1212 -0.4352
14726TIP3    H165593   4.030   4.677   4.323 -2.5978 -1.3040  1.4335
14726TIP3    H265594   3.968   4.805   4.373 -3.3271 -1.4009  0.7965
14727TIP3   OH265595   2.405   6.647  16.410  0.1275  0.0661 -0.3533
14727TIP3    H165596   2.429   6.677  16.322  0.4648 -0.8986 -0.6038
14727TIP3    H265597   2.436   6.556  16.414 -3.6886 -1.4130 -0.8168
14728TIP3   OH265598   6.079   5.414   1.376 -0.3757  0.1161  0.5164
14728TIP3    H165599   6.149   5.429   1.312 -1.2607 -0.0539 -0.5314
14728TIP3    H265600   6.105   5.465   1.453  1.3627 -0.7125  0.5133
14729TIP3   OH265601   0.267   3.247   5.677  0.0479 -0.0924 -0.5660
14729TIP3    H165602   0.332   3.310   5.706 -1.5495  1.2290  0.3584
14729TIP3    H265603   0.216   3.228   5.756 -0.1834 -1.7362 -1.0686
14730TIP3   OH265604   0.633   4.298   6.574  0.3163 -0.3993  0.5017
14730TIP3    H165605   0.604   4.227   6.630  0.4381  0.0212  1.1085
14730TIP3    H265606   0.630   4.376   6.630  0.9675 -0.0655  0.0847
14731TIP3   OH265607   1.281   1.717   6.065 -0.0705  0.4167  0.9263
14731TIP3    H165608   1.200   1.665   6.064  0.1344  0.0972  0.9245
14731TIP3    H265609   1.272   1.775   5.989 -0.4008  0.5424  1.0580
14732TIP3   OH265610   3.772   1.827   1.331  0.0809  0.2833  0.1526
14732TIP3    H165611   3.766   1.904   1.387 -0.6265  0.6222 -0.3705
14732TIP3    H265612   3.731   1.854   1.249 -0.3700 -0.7140  0.0353
14733TIP3   OH265613   4.787   0.734  14.790 -0.0463  0.3872  0.3787
14733TIP3    H165614   4.743   0.653  14.815 -0.0169  0.5097  0.8332
14733TIP3    H265615   4.722   0.781  14.736  0.4687 -0.6007 -1.1676
14734TIP3   OH265616   2.338   2.504  11.773 -0.4474  0.0699  0.6658
14734TIP3    H165617   2.312   2.583  11.727  1.0924 -0.0602 -0.5379
14734TIP3    H265618   2.315   2.432  11.713  2.1884 -0.0618 -0.3232
14735TIP3   OH265619   3.333   1.451   3.231  0.2322  0.1180 -0.3598
14735TIP3    H165620   3.406   1.501   3.194 -0.2417  0.9841 -0.1550
14735TIP3    H265621   3.324   1.486   3.320  0.9859 -1.5259  0.4027
14736TIP3   OH265622   3.644   1.456   1.886 -0.2419 -0.5653  0.3053
14736TIP3    H165623   3.553   1.428   1.885 -0.3174 -0.3163 -0.4408
14736TIP3    H265624   3.652   1.510   1.965 -0.9661  0.1394 -0.0915
14737TIP3   OH265625   3.340   4.693   2.371  0.0221  0.3833 -0.4637
14737TIP3    H165626   3.427   4.711   2.336  0.9663  0.7130  1.8678
14737TIP3    H265627   3.349   4.609   2.416 -0.1519  1.5139  1.8274
14738TIP3   OH265628   3.881   6.078  11.957  0.6096  0.2004 -0.2037
14738TIP3    H165629   3.852   6.128  12.034  0.5131 -0.6320  0.3147
14738TIP3    H265630   3.880   6.141  11.886 -2.4709  0.2840 -0.2218
14739TIP3   OH265631   0.210   4.184  15.472 -0.4621  0.1106  0.5088
14739TIP3    H165632   0.300   4.201  15.444 -0.7776  0.2740 -0.4248
14739TIP3    H265633   0.156   4.209  15.398 -1.2523 -0.4564  0.8724
14740TIP3   OH265634   6.468   5.034   2.646  0.4165  0.1511  0.3872
14740TIP3    H165635   6.474   5.123   2.612  0.8104 -0.6443 -1.8201
14740TIP3    H265636   6.558   5.004   2.651  0.2379 -0.4376  0.1855
14741TIP3   OH265637   4.287   4.484   2.822  0.4758 -0.7414  0.0822
14741TIP3    H165638   4.303   4.414   2.759  0.6852  0.4483 -1.2211
14741TIP3    H265639   4.199   4.466   2.856  0.3421 -1.3752 -0.5669
14742TIP3   OH265640   1.468   1.150  15.987  0.1744  0.2207  0.9764
14742TIP3    H165641   1.530   1.177  15.919 -1.1285  1.2130  0.1159
14742TIP3    H265642   1.444   1.060  15.963 -0.3161  0.5816  0.0645
14743TIP3   OH265643   0.861   6.402   2.952 -0.0037  0.1609 -0.4200
14743TIP3    H165644   0.778   6.377   2.993  1.0666 -0.0426  1.7257
14743TIP3    H265645   0.910   6.446   3.021  1.7747  0.0959 -1.5778
14744TIP3   OH265646   6.337   5.316   1.877  0.6070 -0.1931  0.7069
14744TIP3    H165647   6.330   5.297   1.783  0.1120  0.0529  0.6900
14744TIP3    H265648   6.246   5.327   1.906  0.7745  4.1850  0.2965
14745TIP3   OH265649   6.631   1.213  15.328  0.2326 -0.2017 -0.3149
14745TIP3    H165650   6.711   1.159  15.333  0.7307  0.6511  1.7561
14745TIP3    H265651   6.648   1.272  15.254  2.1672  0.8638  0.8807
14746TIP3   OH265652   3.918   5.255  11.312  0.0704 -0.1112 -0.2805
14746TIP3    H165653   3.928   5.314  11.388  0.3106  0.4123 -0.7127
14746TIP3    H265654   3.829   5.273  11.281  0.4774  0.7500 -0.9996
14747TIP3   OH265655   0.929   0.425   1.898 -0.1836  0.0999  0.0363
14747TIP3    H165656   1.022   0.447   1.901 -0.3136  0.6420  0.3037
14747TIP3    H265657   0.896   0.450   1.985 -0.4230 -0.8212  0.2243
14748TIP3   OH265658   6.131   4.346  14.958 -0.2681 -0.7532  0.5730
14748TIP3    H165659   6.099   4.342  15.048 -2.8761  2.9456  0.0523
14748TIP3    H265660   6.214   4.393  14.964 -1.1966  0.9355  1.0585
14749TIP3   OH265661   4.149   4.326   2.529  0.3595 -0.8760 -0.0812
14749TIP3    H165662   4.230   4.369   2.499  0.1819 -0.0577  0.5659
14749TIP3    H265663   4.171   4.289   2.614 -0.1012 -0.1135  0.3845
14750TIP3   OH265664   0.563   6.158  14.487 -0.1861  0.3593  0.1210
14750TIP3    H165665   0.538   6.195  14.572 -0.0532 -0.4795  0.5333
14750TIP3    H265666   0.651   6.192  14.471  0.6685 -1.1219  1.3364
14751TIP3   OH265667   1.556   5.338  12.039  0.4276 -0.2250  0.4034
14751TIP3    H165668   1.592   5.353  12.127 -1.6553 -0.7815  1.4167
14751TIP3    H265669   1.622   5.286  11.994  1.2663 -0.4727  1.8714
14752TIP3   OH265670   6.581   5.831  13.155 -0.2195 -0.3523 -0.3797
14752TIP3    H165671   6.631   5.912  13.163 -1.5331  0.4869 -0.3531
14752TIP3    H265672   6.634   5.775  13.100  0.9115  0.3643 -0.0528
14753TIP3   OH265673   1.129   4.994   4.933  0.6419  0.8993 -0.4303
14753TIP3    H165674   1.061   5.061   4.942 -1.2926 -1.1702  1.4486
14753TIP3    H265675   1.098   4.938   4.862  2.3597  1.9908 -2.1433
14754TIP3   OH265676   3.704   6.040  10.889 -0.7094  0.5796  0.1775
14754TIP3    H165677   3.756   5.967  10.855 -0.8573  0.7348 -0.3948
14754TIP3    H265678   3.678   6.012  10.977  0.6857  0.6773  0.6405
14755TIP3   OH265679   2.008   2.354   2.124 -0.4580 -0.5060 -0.0693
14755TIP3    H165680   1.973   2.442   2.110  2.9380  0.5826 -3.5661
14755TIP3    H265681   2.043   2.355   2.213 -1.3098  1.3347  0.2879
14756TIP3   OH265682   1.849   5.899   1.604  0.1709  0.1764 -0.1458
14756TIP3    H165683   1.823   5.987   1.577  0.3525 -0.1010 -1.2516
14756TIP3    H265684   1.840   5.900   1.700 -0.5164  1.1675 -0.2066
14757TIP3   OH265685   6.413   1.583  13.729 -0.2645  0.6462 -0.3895
14757TIP3    H165686   6.434   1.677  13.732  1.2025  0.5603 -3.5465
14757TIP3    H265687   6.320   1.580  13.709 -0.4698  1.3965  0.4093
14758TIP3   OH265688   3.679   4.009   3.981 -0.1248 -0.0915 -0.5564
14758TIP3    H165689   3.601   4.048   4.021  0.3809  1.7171 -1.2367
14758TIP3    H265690   3.653   3.991   3.890  0.1708  0.2883 -0.7169
14759TIP3   OH265691   3.148   2.570  11.810  0.6259 -0.2132  0.2705
14759TIP3    H165692   3.215   2.624  11.768 -0.1123  0.2630 -0.3113
14759TIP3    H265693   3.186   2.482  11.812  1.6942  0.2437  0.9199
14760TIP3   OH265694   1.055   0.232   0.144  0.1572  0.0903  0.1197
14760TIP3    H165695   1.120   0.219   0.075  1.1455 -0.0266  1.0547
14760TIP3    H265696   1.048   0.147   0.187 -1.2003 -0.1169 -0.4405
14761TIP3   OH265697   3.254   1.599  16.175 -0.1706  0.0848 -0.1477
14761TIP3    H165698   3.235   1.691  16.162 -1.2887 -0.0190  0.5734
14761TIP3    H265699   3.320   1.597  16.245 -0.4590  0.3210  0.1294
14762TIP3   OH265700   5.694   2.315   0.585  0.6008  0.1423 -0.1310
14762TIP3    H165701   5.722   2.231   0.622  1.7456  0.7799  0.5144
14762TIP3    H265702   5.760   2.334   0.517 -0.2700  0.0122 -1.0350
14763TIP3   OH265703   3.427   2.056   3.789  0.7555 -0.6535  0.1950
14763TIP3    H165704   3.408   2.006   3.868 -1.4710  0.2814  0.3065
14763TIP3    H265705   3.484   2.128   3.819 -0.0728 -0.3040  0.9605
14764TIP3   OH265706   0.629   5.939  14.270  0.1807 -0.0279 -0.4863
14764TIP3    H165707   0.596   6.029  14.270 -0.2034 -0.0347  2.9143
14764TIP3    H265708   0.710   5.942  14.321  1.0500 -1.3917 -1.6842
14765TIP3   OH265709   4.888   4.393   3.952 -0.0103  0.0107  0.2425
14765TIP3    H165710   4.963   4.376   4.009 -1.1507  0.9218  2.0865
14765TIP3    H265711   4.870   4.486   3.963 -1.3110 -0.1633 -0.3155
14766TIP3   OH265712   5.501   0.658  12.945  0.0107 -0.0079 -0.1680
14766TIP3    H165713   5.462   0.719  13.008  0.0310  0.1851 -0.3448
14766TIP3    H265714   5.440   0.584  12.944 -1.5440  1.2103 -2.0773
14767TIP3   OH265715   4.841   1.918  11.687 -0.4712 -0.1310  0.1340
14767TIP3    H165716   4.867   1.983  11.752 -2.7150 -0.0738  1.0552
14767TIP3    H265717   4.790   1.968  11.622  0.4128 -0.4609 -0.8385
14768TIP3   OH265718   3.627   3.613  11.970  0.4924 -1.1236  0.6054
14768TIP3    H165719   3.556   3.556  12.000  0.3917 -0.9325  0.7326
14768TIP3    H265720   3.693   3.552  11.936  1.4242 -1.4958  2.9063
14769TIP3   OH265721   6.627   4.313  11.051 -0.8248  0.3002  0.1964
14769TIP3    H165722   6.602   4.247  11.115  0.0518  0.1556  0.4028
14769TIP3    H265723   6.557   4.377  11.053 -0.8782  0.2138  1.1819
14770TIP3   OH265724   0.545   1.744   2.826  0.4621 -0.2224 -0.3471
14770TIP3    H165725   0.604   1.756   2.751 -0.5558  1.3934 -0.9495
14770TIP3    H265726   0.465   1.792   2.802  0.2717  0.7585  1.9526
14771TIP3   OH265727   1.642   0.356  17.076 -0.0391 -0.0763  0.4311
14771TIP3    H165728   1.684   0.420  17.019  2.3402 -0.8781  1.1457
14771TIP3    H265729   1.619   0.406  17.155  0.4962  0.2045  0.4155
14772TIP3   OH265730   2.878   3.796   1.286  0.3354 -0.2564 -0.5968
14772TIP3    H165731   2.884   3.892   1.288  1.5105 -0.3274 -0.1292
14772TIP3    H265732   2.935   3.770   1.214 -0.1230 -0.6089 -0.8392
14773TIP3   OH265733   0.987   5.395   0.014  0.5561  0.0007 -0.0997
14773TIP3    H165734   0.916   5.400   0.078 -1.6387 -0.5284 -2.3557
14773TIP3    H265735   0.981   5.307  -0.023 -0.0977  1.1190 -2.9435
14774TIP3   OH265736   5.970   5.981  13.119 -0.1945 -0.0137 -0.1817
14774TIP3    H165737   5.879   5.960  13.139  0.0789 -0.3687  0.7641
14774TIP3    H265738   6.017   5.899  13.137  0.1296 -0.2853 -2.0885
14775TIP3   OH265739   0.585   0.545   1.893  0.2440 -0.0243 -0.2752
14775TIP3    H165740   0.592   0.575   1.802 -0.5859 -0.4047 -0.4822
14775TIP3    H265741   0.521   0.474   1.889 -0.8111  0.8196  0.8001
14776TIP3   OH265742   6.059   5.482  12.691 -0.2632  0.0130 -0.3574
14776TIP3    H165743   6.072   5.418  12.761 -1.4598 -0.7956 -0.8450
14776TIP3    H265744   6.033   5.430  12.615  1.4054  0.8291 -1.5640
14777TIP3   OH265745   3.924   6.728  15.814  0.6349  0.0916 -0.7229
14777TIP3    H165746   3.978   6.795  15.773  1.0069 -0.3152 -0.9088
14777TIP3    H265747   3.927   6.654  15.754  0.1258 -0.0509 -0.5826
14778TIP3   OH265748   5.591   4.875  11.242 -0.0979  0.4806 -0.3750
14778TIP3    H165749   5.548   4.859  11.326 -0.1577  2.0293 -0.0692
14778TIP3    H265750   5.632   4.792  11.219 -1.1034 -0.3135  0.5781
14779TIP3   OH265751   6.627   3.238   0.296  0.0431 -0.4155  0.0059
14779TIP3    H165752   6.711   3.192   0.291  0.4302  0.2037  0.6020
14779TIP3    H265753   6.642   3.321   0.250 -0.9707 -1.2850 -2.0484
14780TIP3   OH265754   2.426   6.416  14.845  0.0183  0.0571  0.1873
14780TIP3    H165755   2.434   6.505  14.879 -0.1646  0.2198 -0.1830
14780TIP3    H265756   2.365   6.424  14.771 -0.6242 -0.5089  0.6466
14781TIP3   OH265757   1.385   0.111   2.113 -0.3328 -0.9562 -0.5164
14781TIP3    H165758   1.365   0.019   2.125 -2.1580 -0.6529 -1.0541
14781TIP3    H265759   1.358   0.131   2.023 -0.0637  0.1389 -0.3726
14782TIP3   OH265760   0.034   1.831   4.545 -0.2082  0.3296 -0.4804
14782TIP3    H165761   0.037   1.743   4.507  1.2702 -0.0848  0.5085
14782TIP3    H265762   0.112   1.836   4.601 -1.1804  1.6677  0.8386
14783TIP3   OH265763   5.259   3.082   3.866 -0.6977 -0.5573  0.5622
14783TIP3    H165764   5.298   2.999   3.890 -0.0412 -0.0025  1.4657
14783TIP3    H265765   5.258   3.133   3.947 -0.7785  0.4340 -0.0431
14784TIP3   OH265766   5.373   5.670  14.227 -0.0014  0.1161  0.3002
14784TIP3    H165767   5.445   5.634  14.176  0.1373  1.6786 -0.6545
14784TIP3    H265768   5.399   5.656  14.318  1.0235 -0.2466 -0.0360
14785TIP3   OH265769   6.311   1.612   6.393  0.3583 -0.0959  0.6345
14785TIP3    H165770   6.349   1.567   6.469  2.7448 -0.6880 -0.8122
14785TIP3    H265771   6.378   1.675   6.367 -1.2702  1.5373  0.1907
14786TIP3   OH265772   6.724   5.916   2.366 -0.1055 -0.1352 -0.5682
14786TIP3    H165773   6.775   5.838   2.384  0.3950  0.1151 -0.8523
14786TIP3    H265774   6.780   5.989   2.395 -0.7890  0.0972  0.2004
14787TIP3   OH265775   1.902   6.344  11.913 -0.0314 -0.1677 -0.3710
14787TIP3    H165776   1.954   6.314  11.839  1.2075 -0.7195  0.6751
14787TIP3    H265777   1.965   6.392  11.968 -0.6609 -0.6451  0.8088
14788TIP3   OH265778   1.555   6.384  11.308  0.2012 -0.2071 -0.8338
14788TIP3    H165779   1.555   6.346  11.396  1.5114  0.5032 -0.5097
14788TIP3    H265780   1.489   6.454  11.312  0.6485  0.1863 -0.2497
14789TIP3   OH265781   2.356   2.977   1.979  0.5220  0.2546  0.0021
14789TIP3    H165782   2.429   2.931   1.938 -0.7804 -1.3885 -0.5683
14789TIP3    H265783   2.283   2.917   1.973 -0.7043  1.5317  1.2924
14790TIP3   OH265784   1.495   1.967  13.825  0.3204 -0.2875  0.0670
14790TIP3    H165785   1.509   1.877  13.796 -0.0960 -0.4050  0.2365
14790TIP3    H265786   1.463   1.960  13.915  3.1065  0.1069  1.2238
14791TIP3   OH265787   2.780   4.123  15.297  0.4339 -0.1501  0.1308
14791TIP3    H165788   2.737   4.181  15.235  0.4070  1.0812  1.2699
14791TIP3    H265789   2.853   4.174  15.331 -0.6092 -0.0770  2.4549
14792TIP3   OH265790   6.452   0.363  12.849  0.1844  0.7312 -0.6318
14792TIP3    H165791   6.433   0.446  12.805 -2.6579  0.2279 -0.5561
14792TIP3    H265792   6.498   0.388  12.929 -1.0571  2.3346 -0.3609
14793TIP3   OH265793   0.708   6.553  12.547 -0.1306 -0.1144  0.3682
14793TIP3    H165794   0.795   6.577  12.579 -0.5122 -1.1734  2.3671
14793TIP3    H265795   0.649   6.575  12.618 -1.3786 -0.4138 -0.5383
14794TIP3   OH265796   1.349   2.853  16.077 -0.0928 -0.7114 -0.1091
14794TIP3    H165797   1.332   2.826  15.987 -0.8634 -1.6112  0.2914
14794TIP3    H265798   1.347   2.772  16.127  0.1528 -0.1990  0.7481
14795TIP3   OH265799   2.028   2.830   5.770  0.2667 -0.1154  0.2043
14795TIP3    H165800   2.021   2.765   5.700  0.4122 -0.0702  0.1492
14795TIP3    H265801   2.096   2.796   5.828  1.4877  0.7732 -0.6580
14796TIP3   OH265802   3.891   4.581   6.289  0.2632 -0.5485 -0.9753
14796TIP3    H165803   3.937   4.522   6.348 -1.1527  0.7160  1.5487
14796TIP3    H265804   3.921   4.668   6.314  0.7354  0.0087 -3.2167
14797TIP3   OH265805   4.032   4.684  14.076 -0.6203  0.3170 -0.0672
14797TIP3    H165806   4.044   4.607  14.131 -0.2871 -0.3411 -1.0252
14797TIP3    H265807   4.120   4.706  14.046 -0.9882 -0.7380 -2.1400
14798TIP3   OH265808   1.924   1.552   4.288 -0.2190 -0.0610 -0.6286
14798TIP3    H165809   1.935   1.599   4.205  2.1732  0.1977 -0.2263
14798TIP3    H265810   1.831   1.529   4.290 -0.4401  0.3110 -3.1662
14799TIP3   OH265811   5.923   2.876   0.773 -0.2091  0.3315 -0.1017
14799TIP3    H165812   5.990   2.906   0.711 -0.7173  2.1308  0.1711
14799TIP3    H265813   5.841   2.888   0.726 -0.5019  0.3862  0.4187
14800TIP3   OH265814   1.039   5.949  11.558  0.0038 -0.1879  0.2684
14800TIP3    H165815   1.047   5.981  11.468  2.1336 -0.6395  0.2497
14800TIP3    H265816   0.954   5.981  11.587 -0.3794  0.6560 -1.6270
14801TIP3   OH265817   0.284   4.128  11.518 -0.2146 -0.0900  0.2414
14801TIP3    H165818   0.342   4.156  11.447 -2.8581 -0.5212 -2.3060
14801TIP3    H265819   0.340   4.077  11.576  2.4029  1.4611 -0.7214
14802TIP3   OH265820   1.101   2.506   2.254 -0.1605  0.2056  0.2141
14802TIP3    H165821   1.162   2.441   2.220  0.5387  0.0918  1.5846
14802TIP3    H265822   1.015   2.466   2.246 -0.3605  1.0651 -3.4038
14803TIP3   OH265823   5.522   3.738   3.810 -0.2138  0.3688  0.3161
14803TIP3    H165824   5.543   3.786   3.890  0.3118  0.7473 -0.0428
14803TIP3    H265825   5.519   3.646   3.837  3.1741  0.0737  0.2272
14804TIP3   OH265826   0.455   3.988  11.671 -0.0157 -0.4281 -0.0471
14804TIP3    H165827   0.440   3.919  11.606  0.0270 -1.7059  1.2460
14804TIP3    H265828   0.550   3.998  11.675  0.0291 -1.0122  0.4677
14805TIP3   OH265829   0.675   3.315   6.296  0.4569  0.0271  0.2214
14805TIP3    H165830   0.732   3.373   6.346 -0.4154  0.4093  0.7898
14805TIP3    H265831   0.698   3.227   6.327  0.5276  0.1968  0.6617
14806TIP3   OH265832   6.347   0.296   1.766 -0.0424 -0.2450  0.3510
14806TIP3    H165833   6.296   0.300   1.686 -1.0321  0.9657  1.0116
14806TIP3    H265834   6.282   0.291   1.836  0.7303  0.8560  1.1878
14807TIP3   OH265835   2.052   0.474   5.731 -0.2918  0.4003  0.4903
14807TIP3    H165836   2.139   0.496   5.700 -0.3375  0.0091  0.0783
14807TIP3    H265837   2.017   0.414   5.665 -0.8442  0.5009  0.6862
14808TIP3   OH265838   0.119   6.435  14.708  0.0808 -0.0254 -0.2004
14808TIP3    H165839   0.198   6.430  14.762  0.9686 -0.7796 -1.4737
14808TIP3    H265840   0.140   6.380  14.631 -1.4128  0.3452 -0.9144
14809TIP3   OH265841   2.391   1.942  14.608 -0.5085 -0.1045  0.0311
14809TIP3    H165842   2.427   1.984  14.687 -1.6403 -0.2994  0.6740
14809TIP3    H265843   2.299   1.924  14.630 -0.6877 -0.7056 -1.1236
14810TIP3   OH265844   5.903   3.707  13.469  0.0371 -0.1325  0.0303
14810TIP3    H165845   5.812   3.688  13.492  0.0268 -0.7455 -0.5026
14810TIP3    H265846   5.955   3.647  13.523  0.1613  0.5345  0.6790
14811TIP3   OH265847   3.221   2.486  16.040  0.4764  0.1213  0.7828
14811TIP3    H165848   3.253   2.451  15.957  1.5989 -1.4285  1.8094
14811TIP3    H265849   3.133   2.449  16.050  1.1149 -1.3669  1.1912
14812TIP3   OH265850   0.325   5.749  16.414  0.5707  0.2057  0.0789
14812TIP3    H165851   0.267   5.774  16.342 -0.6446 -0.9648  0.5897
14812TIP3    H265852   0.279   5.780  16.493  1.3893  0.5861  0.4131
14813TIP3   OH265853   1.064   1.073  11.531 -0.4888  0.3638  0.6897
14813TIP3    H165854   1.052   1.155  11.484  1.6331  1.2690  1.6005
14813TIP3    H265855   1.019   1.086  11.614 -2.0598 -0.2949 -0.0018
14814TIP3   OH265856   1.199   3.729   6.088  0.0888 -0.1206 -0.1011
14814TIP3    H165857   1.226   3.796   6.150 -0.1646  1.9664 -2.1168
14814TIP3    H265858   1.133   3.678   6.134  0.8219  0.5175  1.7386
14815TIP3   OH265859   1.102   4.531  16.415  0.1907 -0.1529 -0.1074
14815TIP3    H165860   1.018   4.565  16.382  0.3115 -1.5787 -2.0272
14815TIP3    H265861   1.165   4.601  16.395 -0.5219  1.0684  1.6345
14816TIP3   OH265862   1.426   0.012   3.424 -0.1232 -0.1488 -0.5464
14816TIP3    H165863   1.483   0.069   3.475 -1.9657  0.2802  1.1853
14816TIP3    H265864   1.405  -0.060   3.484 -0.7169 -0.7313 -1.4227
14817TIP3   OH265865   3.256   3.370  12.040 -0.5251  0.5028  0.0414
14817TIP3    H165866   3.306   3.424  12.101 -0.6607 -0.2202  0.8176
14817TIP3    H265867   3.165   3.398  12.052 -0.5390  0.4301  0.1149
14818TIP3   OH265868   4.536   2.762  12.247  0.0231  0.0877 -0.2061
14818TIP3    H165869   4.451   2.748  12.206  0.7147  1.0638 -2.1109
14818TIP3    H265870   4.531   2.715  12.330 -1.6635 -1.5633 -1.1646
14819TIP3   OH265871   0.605   3.300   1.375 -0.1827  0.2504  0.2870
14819TIP3    H165872   0.658   3.241   1.427 -0.5719  0.6404  1.1578
14819TIP3    H265873   0.602   3.260   1.288  2.3950  0.7588 -0.1079
14820TIP3   OH265874   2.159   0.489  16.946 -0.6101  0.2917  0.2557
14820TIP3    H165875   2.105   0.424  16.990 -0.8264  0.8788  0.8778
14820TIP3    H265876   2.104   0.521  16.874  0.6674 -2.5107 -2.1616
14821TIP3   OH265877   4.820   3.953  15.863  0.1435  0.0579 -0.8555
14821TIP3    H165878   4.792   4.045  15.867  0.1896  0.0701 -0.8159
14821TIP3    H265879   4.897   3.949  15.920 -1.2144 -0.5080  1.0435
14822TIP3   OH265880   5.041   0.793  15.270  0.2059  0.1892  0.1763
14822TIP3    H165881   5.099   0.813  15.344  1.2956 -0.1320 -0.5574
14822TIP3    H265882   5.089   0.825  15.194 -0.6005 -0.0957 -0.4580
14823TIP3   OH265883   2.921   4.572   0.346 -0.3982  0.0220 -0.0043
14823TIP3    H165884   2.857   4.504   0.326  0.7018 -0.4508 -2.1840
14823TIP3    H265885   2.873   4.636   0.398 -2.5039 -0.5297 -1.1861
14824TIP3   OH265886   1.060   4.890  12.812 -0.3957 -0.5018  0.6727
14824TIP3    H165887   1.076   4.903  12.719 -3.7672  4.1185  0.4033
14824TIP3    H265888   1.138   4.925  12.855 -0.0377  0.0998 -0.4195
14825TIP3   OH265889   3.322   0.777   4.539  0.3098  0.2570 -0.0694
14825TIP3    H165890   3.377   0.781   4.617 -0.8540 -0.0230  0.7918
14825TIP3    H265891   3.383   0.780   4.466  1.4197  0.6177  0.8498
14826TIP3   OH265892   4.173   5.712   4.702 -0.0023 -0.3303 -0.1189
14826TIP3    H165893   4.156   5.795   4.748  0.5587 -0.1656 -0.2046
14826TIP3    H265894   4.254   5.680   4.740 -1.0207 -1.6520  1.0429
14827TIP3   OH265895   5.977   5.226   3.841 -0.4302  0.4113 -0.4047
14827TIP3    H165896   5.957   5.199   3.751 -0.5812 -0.9157  0.0153
14827TIP3    H265897   5.908   5.186   3.893  0.3253  0.2094  0.4473
14828TIP3   OH265898   5.945   0.387   3.497 -0.0883 -0.2087  0.1167
14828TIP3    H165899   6.019   0.439   3.529 -1.2781  1.2296  0.6398
14828TIP3    H265900   5.917   0.432   3.417 -0.4554 -0.7052 -0.0412
14829TIP3   OH265901   2.504   5.031  13.688 -0.4380 -0.3436 -0.3248
14829TIP3    H165902   2.502   4.947  13.733  0.3521 -0.2859 -0.1794
14829TIP3    H265903   2.568   5.083  13.736 -0.6834  0.2347 -0.6090
14830TIP3   OH265904   6.634   1.536   5.092  0.5379 -0.6509  0.3869
14830TIP3    H165905   6.697   1.584   5.146  0.2538  0.2422 -0.0498
14830TIP3    H265906   6.655   1.562   5.002 -1.2614  0.7213  0.3024
14831TIP3   OH265907   1.953   0.570   1.815 -0.0547 -0.2008 -0.8022
14831TIP3    H165908   1.973   0.643   1.756  1.7409 -0.3549 -0.4303
14831TIP3    H265909   2.038   0.530   1.833 -0.6973 -0.8299  1.0216
14832TIP3   OH265910   3.057   5.401   5.827 -0.0361 -0.4396  0.3107
14832TIP3    H165911   3.129   5.418   5.888  0.1089 -0.0959  0.0427
14832TIP3    H265912   2.984   5.450   5.863 -0.5038 -1.7681  1.2761
14833TIP3   OH265913   0.140   0.623  14.175 -0.6853 -0.1384  0.5238
14833TIP3    H165914   0.090   0.704  14.172  1.0765  1.0390  1.5927
14833TIP3    H265915   0.224   0.647  14.214  0.2015 -2.3175  0.1195
14834TIP3   OH265916   4.470   2.474   2.879  0.4959 -0.1462 -0.0048
14834TIP3    H165917   4.539   2.408   2.880  0.5025 -0.1391  1.2101
14834TIP3    H265918   4.462   2.498   2.787  1.4972 -0.7848 -0.2795
14835TIP3   OH265919   3.435   5.585  11.774 -0.5070  0.2622  0.0884
14835TIP3    H165920   3.516   5.629  11.750 -0.5064  0.3677  0.2837
14835TIP3    H265921   3.409   5.539  11.694 -0.1168  0.0130  0.1006
14836TIP3   OH265922   5.224   5.583  13.500  0.2804 -0.3510 -0.0682
14836TIP3    H165923   5.159   5.540  13.444  0.9695 -1.5615  0.0172
14836TIP3    H265924   5.192   5.568  13.590  0.6316 -0.9221 -0.0273
14837TIP3   OH265925   6.526   0.489   0.428  0.3538  0.0877  0.2024
14837TIP3    H165926   6.614   0.452   0.438  1.0710  1.8031  0.6282
14837TIP3    H265927   6.533   0.546   0.352 -0.3819  0.2711  0.2689
14838TIP3   OH265928   3.217   6.797  16.296 -0.4193 -0.1916  0.4263
14838TIP3    H165929   3.283   6.789  16.227  1.6833  0.3000  2.2953
14838TIP3    H265930   3.178   6.710  16.303 -0.3860 -0.3490 -1.0594
14839TIP3   OH265931   4.196   0.203   2.630  0.3713 -0.4309  0.0371
14839TIP3    H165932   4.267   0.170   2.575  0.3249 -0.8337  0.2154
14839TIP3    H265933   4.229   0.286   2.665  1.0187 -0.9358  0.6460
14840TIP3   OH265934   5.691   3.491   0.058  0.4271 -0.7512 -0.5154
14840TIP3    H165935   5.740   3.461  -0.019  2.9682  1.7896 -0.0492
14840TIP3    H265936   5.647   3.571   0.029 -1.4866 -1.6114 -0.1844
14841TIP3   OH265937   1.283   0.465  16.766 -0.5785  0.3739  0.0676
14841TIP3    H165938   1.338   0.429  16.836 -0.1548  0.8307 -0.0258
14841TIP3    H265939   1.344   0.510  16.708 -0.8362 -0.5470 -0.9619
14842TIP3   OH265940   3.121   5.461   0.805  0.8977  0.2021  0.0736
14842TIP3    H165941   3.108   5.478   0.712 -2.2359  0.8382  0.5450
14842TIP3    H265942   3.142   5.546   0.843  2.3965 -0.0919 -0.0100
14843TIP3   OH265943   1.225   0.545   3.570 -0.1236 -0.1003  0.5003
14843TIP3    H165944   1.232   0.640   3.559  1.3440 -0.2100  0.2226
14843TIP3    H265945   1.131   0.529   3.583 -0.2748  1.4967  1.7407
14844TIP3   OH265946   2.947   5.793  14.351  0.0876 -0.2592  0.5323
14844TIP3    H165947   3.030   5.747  14.355  0.5245  0.5915  1.9228
14844TIP3    H265948   2.968   5.883  14.376 -0.8662  0.5436 -1.3928
14845TIP3   OH265949   5.573   5.467   1.995  0.1358  0.5562 -0.2719
14845TIP3    H165950   5.636   5.492   2.063  0.4804 -2.3180  0.6020
14845TIP3    H265951   5.606   5.383   1.962 -1.7645  0.3349 -1.7795
14846TIP3   OH265952   1.280   3.671  14.778  0.2736  0.0161  0.2042
14846TIP3    H165953   1.342   3.732  14.817  2.1633 -0.6574 -1.5823
14846TIP3    H265954   1.240   3.720  14.706  0.6441 -0.3520 -0.2570
14847TIP3   OH265955   5.907   4.832   4.890  0.0857  0.7671  0.2167
14847TIP3    H165956   5.824   4.877   4.905  0.2184  1.2607 -0.4834
14847TIP3    H265957   5.974   4.895   4.917  0.3490  1.8119 -2.5058
14848TIP3   OH265958   3.489   6.607  16.401  0.4765  0.1431  0.0178
14848TIP3    H165959   3.508   6.685  16.350  2.8346 -1.6997 -2.1837
14848TIP3    H265960   3.445   6.548  16.340  1.5398 -1.3785  0.6689
14849TIP3   OH265961   0.343   6.181   0.425  0.1929 -0.3076  0.0011
14849TIP3    H165962   0.273   6.240   0.454  0.8800 -0.1487  1.4026
14849TIP3    H265963   0.340   6.108   0.487  1.3699 -0.2140  0.1906
14850TIP3   OH265964   5.093   2.007  12.933  0.0067  0.2014 -0.4246
14850TIP3    H165965   5.140   1.978  13.011  2.7927 -0.2841 -2.1652
14850TIP3    H265966   5.146   2.080  12.899 -0.7687 -0.0212 -2.2072
14851TIP3   OH265967   5.308   5.408  12.674 -0.1268 -0.7331  0.5048
14851TIP3    H165968   5.366   5.483  12.687 -0.7940 -0.2484  0.7212
14851TIP3    H265969   5.224   5.446  12.650 -0.1010 -1.4562 -0.8534
14852TIP3   OH265970   3.185   6.746   3.180  0.3439  0.1816 -0.1167
14852TIP3    H165971   3.212   6.795   3.258  1.0520  0.1813 -0.3569
14852TIP3    H265972   3.170   6.814   3.113  0.3007  0.1429 -0.1462
14853TIP3   OH265973   1.137   4.549  13.280 -0.1344 -0.3740  0.7842
14853TIP3    H165974   1.205   4.518  13.219  1.0273 -0.3904  2.0278
14853TIP3    H265975   1.159   4.641  13.295  0.3641 -0.6749  2.0922
14854TIP3   OH265976   4.873   3.257   6.312 -0.0903 -0.4030  0.0959
14854TIP3    H165977   4.853   3.337   6.264  1.9792 -0.3226 -0.7529
14854TIP3    H265978   4.791   3.208   6.314 -1.3376  1.6065  0.4466
14855TIP3   OH265979   0.775   0.441  14.392  0.0246  0.2168  0.2619
14855TIP3    H165980   0.828   0.480  14.322  0.5784 -0.8424  0.0680
14855TIP3    H265981   0.802   0.349  14.394 -1.3734 -0.2004  0.5864
14856TIP3   OH265982   1.993   3.400   5.751 -0.1446 -0.2898 -0.0711
14856TIP3    H165983   2.043   3.336   5.802 -0.7751 -1.3222 -0.6951
14856TIP3    H265984   1.916   3.351   5.721 -1.7906  1.3957  1.2557
14857TIP3   OH265985   1.988   5.678   0.275 -0.7943 -0.1967  0.0372
14857TIP3    H165986   1.981   5.642   0.186 -2.0924  0.4597 -0.1583
14857TIP3    H265987   2.001   5.772   0.262  0.7341 -0.3213  0.5482
14858TIP3   OH265988   6.793   4.439  13.723  0.0791  0.4982  0.5035
14858TIP3    H165989   6.777   4.433  13.629 -0.5891  1.4336  0.5352
14858TIP3    H265990   6.751   4.361  13.760  0.1504  0.2459  0.0544
14859TIP3   OH265991   1.210   1.114   4.422  0.6672  0.5587  0.0834
14859TIP3    H165992   1.231   1.073   4.339  0.5435 -0.0567  0.3521
14859TIP3    H265993   1.288   1.103   4.476  0.5406  0.4433  0.2451
14860TIP3   OH265994   3.846   2.261  13.755  0.7952  0.4961 -0.3096
14860TIP3    H165995   3.897   2.278  13.676  0.6711  1.9696 -0.1079
14860TIP3    H265996   3.882   2.321  13.820  2.4545 -2.2541  1.5130
14861TIP3   OH265997   0.188   2.382  11.774  0.2006  0.1394  0.1308
14861TIP3    H165998   0.212   2.374  11.866 -0.5118  0.1163  0.3154
14861TIP3    H265999   0.215   2.470  11.749  1.4671 -0.2583  0.0402
14862TIP3   OH266000   4.860   0.820   4.554  0.4544 -0.0499 -0.6136
14862TIP3    H166001   4.915   0.851   4.626 -1.3760  0.3939  0.6661
14862TIP3    H266002   4.921   0.774   4.496  2.4141  1.6440 -0.0362
14863TIP3   OH266003   1.503   2.474   3.054 -0.1849  0.2746 -0.1185
14863TIP3    H166004   1.550   2.555   3.036 -2.2785  1.1848 -1.8892
14863TIP3    H266005   1.424   2.501   3.102  0.2680 -1.0325  1.4767
14864TIP3   OH266006   6.469   5.646  14.849 -0.5013  0.2355 -0.0132
14864TIP3    H166007   6.401   5.610  14.792  0.3281 -0.2558 -0.7137
14864TIP3    H266008   6.421   5.681  14.924 -1.4387 -1.1002  0.0361
14865TIP3   OH266009   6.391   4.802  11.526  0.5671 -0.4743 -0.5897
14865TIP3    H166010   6.395   4.756  11.610 -0.5756 -0.3336 -0.4425
14865TIP3    H266011   6.479   4.839  11.515  1.3200 -2.0982 -0.3916
14866TIP3   OH266012   1.962   4.166  13.026 -0.5464 -0.2157  0.1628
14866TIP3    H166013   1.957   4.117  13.107 -0.4700 -1.7231 -0.7090
14866TIP3    H266014   1.995   4.253  13.052  1.1362 -1.1960  1.5031
14867TIP3   OH266015   2.825   0.954  12.552  0.8199 -0.0485 -0.4118
14867TIP3    H166016   2.796   1.000  12.631 -1.0327 -1.2740 -0.2951
14867TIP3    H266017   2.753   0.965  12.490  1.1111 -1.2285 -0.9979
14868TIP3   OH266018   2.509   6.093   4.972 -0.0408  0.3399  0.0505
14868TIP3    H166019   2.432   6.038   4.984  0.4156 -0.0270  1.7161
14868TIP3    H266020   2.537   6.078   4.882 -0.8311 -0.9701  0.0048
14869TIP3   OH266021   5.638   5.135   0.158 -0.2409  0.3944  0.0504
14869TIP3    H166022   5.723   5.092   0.166  0.6587  1.9652 -0.6388
14869TIP3    H266023   5.649   5.218   0.203 -1.8907  0.0388  1.2065
14870TIP3   OH266024   1.389   2.921  10.415  0.7500  0.1435 -0.0574
14870TIP3    H166025   1.313   2.960  10.457 -0.7014 -0.7519 -1.7024
14870TIP3    H266026   1.376   2.936  10.322  2.0750 -0.9159 -0.4605
14871TIP3   OH266027   5.095   6.432   0.451 -0.3305 -0.3734 -0.3262
14871TIP3    H166028   5.035   6.399   0.384 -0.0355  0.3309 -0.9598
14871TIP3    H266029   5.182   6.422   0.412 -0.1530  0.0181 -0.0423
14872TIP3   OH266030   2.501   1.251   1.691 -0.5585  0.4377  0.3572
14872TIP3    H166031   2.589   1.250   1.729 -0.4187 -1.1908  0.0944
14872TIP3    H266032   2.442   1.252   1.767 -0.2927  0.3049  0.5700
14873TIP3   OH266033   6.252   3.543   4.671  0.6889 -0.2458 -0.8606
14873TIP3    H166034   6.214   3.458   4.691 -1.0572  0.7104  0.1459
14873TIP3    H266035   6.196   3.580   4.603  0.8225  0.5112 -0.5732
14874TIP3   OH266036   2.424   1.926   4.884  0.0336 -0.0187 -0.1696
14874TIP3    H166037   2.397   2.018   4.894 -0.1881 -0.0652 -0.3272
14874TIP3    H266038   2.472   1.923   4.801  3.2265  0.6755  1.4913
14875TIP3   OH266039   6.410   6.554  12.051 -0.1979  0.1760  0.5026
14875TIP3    H166040   6.330   6.520  12.091 -1.5260 -0.9466 -2.7698
14875TIP3    H266041   6.386   6.640  12.018 -0.0003 -0.0927 -0.3517
14876TIP3   OH266042   2.112   5.261   0.815  0.4632 -0.1115  0.4056
14876TIP3    H166043   2.070   5.282   0.731 -0.6805  2.3205  1.4848
14876TIP3    H266044   2.063   5.186   0.848 -1.7774  1.3849  0.6793
14877TIP3   OH266045   0.111   0.841  10.695 -0.0474  0.4598  0.3973
14877TIP3    H166046   0.063   0.914  10.655  0.2366  0.3101 -0.2228
14877TIP3    H266047   0.197   0.843  10.654  0.0921  0.0074  0.6594
14878TIP3   OH266048   1.396   6.119   4.191  0.3717  0.6272  0.4133
14878TIP3    H166049   1.492   6.119   4.195  0.3602  1.8766  1.1754
14878TIP3    H266050   1.370   6.044   4.246  0.9094 -0.4409 -0.7409
14879TIP3   OH266051   0.265   1.806   1.181  0.1173 -0.3163  0.4113
14879TIP3    H166052   0.184   1.842   1.216 -0.3363 -1.0602  0.1316
14879TIP3    H266053   0.308   1.881   1.139 -0.1322  0.2109  1.0687
14880TIP3   OH266054   0.303   3.038   4.781  0.0850 -0.3694 -0.4312
14880TIP3    H166055   0.250   3.113   4.810  1.4850  0.3237  0.5212
14880TIP3    H266056   0.296   3.038   4.686 -1.5426 -0.2714 -0.3329
14881TIP3   OH266057   0.895   1.712  12.782 -0.0500  0.0077  0.2314
14881TIP3    H166058   0.958   1.694  12.852 -1.0969 -0.1878  1.1508
14881TIP3    H266059   0.917   1.800  12.752 -0.3983  0.6247  1.7099
14882TIP3   OH266060   0.025   1.645   5.227 -0.0987 -0.2828 -0.5794
14882TIP3    H166061   0.081   1.722   5.216  0.5267 -0.8579 -1.5275
14882TIP3    H266062   0.086   1.571   5.231 -0.6993 -0.7505  0.2503
14883TIP3   OH266063   6.736   4.158   0.144 -0.3445 -0.6426 -0.0248
14883TIP3    H166064   6.733   4.220   0.071  0.5056 -1.8094 -1.0871
14883TIP3    H266065   6.776   4.079   0.107 -1.5891 -1.9128  1.2365
14884TIP3   OH266066   3.260   2.637   0.870 -0.0510  0.0320 -0.4715
14884TIP3    H166067   3.203   2.707   0.839  0.6834  0.3102 -1.2289
14884TIP3    H266068   3.290   2.594   0.790  3.8653  2.2840 -0.4380
14885TIP3   OH266069   2.131   4.142   4.695 -0.4329 -0.6304  0.3252
14885TIP3    H166070   2.190   4.145   4.619 -0.5743  0.4493  0.2413
14885TIP3    H266071   2.183   4.177   4.767 -0.2303 -1.8603  0.7871
14886TIP3   OH266072   6.025   1.931   4.756  0.5881  0.1300 -0.4028
14886TIP3    H166073   6.065   1.854   4.796  1.9727  0.6453 -0.7450
14886TIP3    H266074   6.096   1.994   4.747 -0.7343  1.9324  0.9544
14887TIP3   OH266075   6.075   1.610   0.094 -0.0501  0.0858 -0.5738
14887TIP3    H166076   6.036   1.692   0.126  0.4260  0.3466 -0.6570
14887TIP3    H266077   6.111   1.633   0.008  3.7665  0.9289  1.0382
14888TIP3   OH266078   3.036   4.240   3.461 -0.2571 -0.3126  0.6424
14888TIP3    H166079   2.965   4.272   3.405  0.5838  1.7194  0.6541
14888TIP3    H266080   3.072   4.165   3.414 -3.2065 -2.2938  1.2621
14889TIP3   OH266081   5.284   6.311  16.704  0.1007  0.2361 -0.2026
14889TIP3    H166082   5.241   6.231  16.675  0.9035 -0.2542 -0.0658
14889TIP3    H266083   5.323   6.348  16.625 -2.6588  2.0611 -0.8571
14890TIP3   OH266084   1.074   2.609  12.326 -0.8379  0.6189 -0.6712
14890TIP3    H166085   1.052   2.609  12.419  0.1592 -2.1543 -0.3625
14890TIP3    H266086   1.145   2.673  12.318 -1.2085  1.1874  0.3582
14891TIP3   OH266087   2.366   3.602   3.931 -0.0197 -0.3467  0.3859
14891TIP3    H166088   2.299   3.590   3.998 -1.3843 -1.0367 -1.0489
14891TIP3    H266089   2.320   3.640   3.857  1.3167 -0.2167 -0.4057
14892TIP3   OH266090   3.855   5.687  14.220  0.0925  0.4952  0.1632
14892TIP3    H166091   3.922   5.619  14.224  0.3385  0.7937  1.5159
14892TIP3    H266092   3.903   5.767  14.198 -0.3045  0.1409 -2.2830
14893TIP3   OH266093   0.401   4.613  13.924 -0.3235  0.0153  0.1572
14893TIP3    H166094   0.433   4.570  14.004  0.1076 -1.2003 -0.6367
14893TIP3    H266095   0.413   4.706  13.941  1.4495 -0.2874  0.8256
14894TIP3   OH266096   0.463   2.253   0.248 -0.2082 -0.1774  0.2713
14894TIP3    H166097   0.431   2.336   0.282 -1.1017 -0.6714  0.6514
14894TIP3    H266098   0.437   2.188   0.314  0.4666 -0.7658 -0.0258
14895TIP3   OH266099   2.659   5.321  12.721 -0.0661 -0.0693 -0.2262
14895TIP3    H166100   2.642   5.387  12.654 -0.8082 -0.0220  0.0006
14895TIP3    H266101   2.600   5.249  12.699 -1.5009  0.5930  1.2843
14896TIP3   OH266102   5.226   6.317  14.807 -0.1902  0.0019  0.6392
14896TIP3    H166103   5.293   6.384  14.821  1.0558 -1.4066  1.6796
14896TIP3    H266104   5.254   6.271  14.728 -0.3448 -0.1164  0.6516
14897TIP3   OH266105   6.670   1.878   4.034 -0.3900 -0.1033  0.0840
14897TIP3    H166106   6.766   1.870   4.036 -0.0588  2.9329  0.1334
14897TIP3    H266107   6.649   1.882   3.940 -0.0584  2.2964  0.0520
14898TIP3   OH266108   3.158   2.982   5.614  0.1925 -0.2905  0.1881
14898TIP3    H166109   3.114   2.963   5.531  0.1537  0.8469 -0.0739
14898TIP3    H266110   3.243   2.940   5.605  0.4334  0.3390 -0.7108
14899TIP3   OH266111   1.976   4.538  15.954  0.1242 -0.4861 -0.3722
14899TIP3    H166112   1.911   4.588  15.904 -0.0652  1.8014  1.9290
14899TIP3    H266113   2.016   4.479  15.890 -2.5082 -0.2683 -2.3893
14900TIP3   OH266114   5.093   1.634  15.057  0.3318  0.5257  0.3933
14900TIP3    H166115   5.075   1.724  15.027 -1.5262  0.1748  0.3436
14900TIP3    H266116   5.107   1.642  15.151 -1.1218  0.7355  0.6127
14901TIP3   OH266117   0.900   1.938  17.064  0.1422 -0.7654  0.4846
14901TIP3    H166118   0.806   1.920  17.057 -0.3619  1.6222 -0.0006
14901TIP3    H266119   0.940   1.853  17.083 -1.8578 -2.2743 -1.5048
14902TIP3   OH266120   3.816   5.301  13.123 -0.5980  0.2085  0.0927
14902TIP3    H166121   3.845   5.219  13.083 -0.6399  0.6165 -0.7946
14902TIP3    H266122   3.745   5.332  13.066 -1.4746  0.2042  1.1548
14903TIP3   OH266123   0.460   5.878   5.851  0.0435  0.4331  0.0140
14903TIP3    H166124   0.414   5.808   5.897  0.3938  0.3879  0.2970
14903TIP3    H266125   0.416   5.958   5.879  0.8122  0.4882  1.1218
14904TIP3   OH266126   1.812   6.752   1.387  0.0586  0.2457 -0.6820
14904TIP3    H166127   1.795   6.669   1.342 -3.0701  0.3012  0.1522
14904TIP3    H266128   1.765   6.744   1.470  0.4760  2.5154 -0.1750
14905TIP3   OH266129   5.738   6.508  14.400  0.9438  0.0617 -0.1698
14905TIP3    H166130   5.765   6.470  14.484  0.1817 -1.1663 -0.4631
14905TIP3    H266131   5.817   6.550  14.367  0.9248  1.8353  1.8058
14906TIP3   OH266132   1.762   2.166  11.198  0.2001  0.0759  0.1943
14906TIP3    H166133   1.774   2.160  11.103  2.4883  2.3542  0.2318
14906TIP3    H266134   1.746   2.075  11.225  1.2018 -0.9069 -2.1791
14907TIP3   OH266135   4.479   3.132  13.984  0.1837  0.1626  0.0270
14907TIP3    H166136   4.421   3.086  14.045  1.7109  0.2521  1.6219
14907TIP3    H266137   4.564   3.133  14.027  1.2869  0.5036 -1.9995
14908TIP3   OH266138   2.961   4.893   0.460 -0.0694  0.5307 -0.6493
14908TIP3    H166139   2.931   4.896   0.551  0.5353  0.4755 -0.4452
14908TIP3    H266140   2.881   4.898   0.409 -0.5596 -1.0372 -0.1033
14909TIP3   OH266141   1.986   6.664  11.835  0.1823  0.6398 -0.2180
14909TIP3    H166142   1.919   6.690  11.773 -1.0557  1.7544  1.4961
14909TIP3    H266143   2.028   6.587  11.795 -0.4079  1.4207 -2.4527
14910TIP3   OH266144   5.030   1.472  16.879  0.2416 -0.4645  0.1294
14910TIP3    H166145   5.017   1.515  16.794 -2.2990 -0.9847  0.1754
14910TIP3    H266146   4.967   1.515  16.937  2.9712  0.9768  2.2867
14911TIP3   OH266147   5.997   5.313  12.910  0.3208 -0.0222  0.1767
14911TIP3    H166148   5.961   5.234  12.950 -1.4088  0.3811 -0.4712
14911TIP3    H266149   6.035   5.363  12.982 -1.0903 -0.1623  1.0483
14912TIP3   OH266150   5.772   3.327  14.244 -0.2702  0.2917 -0.3257
14912TIP3    H166151   5.703   3.322  14.311 -0.8843  2.4614 -0.7048
14912TIP3    H266152   5.736   3.387  14.178  1.5806  0.6588 -1.0494
14913TIP3   OH266153   1.039   0.798  15.289  0.2982  0.0417 -0.2482
14913TIP3    H166154   1.028   0.890  15.264 -1.0216 -0.0146  0.0607
14913TIP3    H266155   1.114   0.799  15.349  0.2388  0.9358 -0.1690
14914TIP3   OH266156   5.329   5.468  11.761 -0.3164 -0.5967  0.2526
14914TIP3    H166157   5.276   5.396  11.795  1.0827 -1.4397  0.7096
14914TIP3    H266158   5.296   5.545  11.807 -0.7348 -1.1922  0.9807
14915TIP3   OH266159   4.605   0.123   2.133  0.3964 -0.3094 -0.3075
14915TIP3    H166160   4.587   0.031   2.154 -2.8925 -0.0513 -1.3795
14915TIP3    H266161   4.598   0.169   2.217 -1.5291 -0.6670 -0.2208
14916TIP3   OH266162   3.985   1.091   4.331 -0.1457 -0.2587  0.7844
14916TIP3    H166163   3.966   1.073   4.423  1.8948  1.1968  1.5593
14916TIP3    H266164   3.933   1.170   4.311 -0.6837 -0.6461  0.6376
14917TIP3   OH266165   1.840   5.568  12.545  0.0361 -0.3020  0.0604
14917TIP3    H166166   1.888   5.609  12.473  0.1130 -1.4590 -0.5808
14917TIP3    H266167   1.763   5.623  12.557  1.1179  1.1479  0.5915
14918TIP3   OH266168   4.182   4.086   4.679 -0.3698  0.1071  0.7081
14918TIP3    H166169   4.177   3.991   4.679  2.2711 -0.1043  0.6886
14918TIP3    H266170   4.253   4.106   4.741  0.6313  1.9037 -0.9028
14919TIP3   OH266171   6.116   3.573   1.154 -0.0173 -0.2242 -0.0814
14919TIP3    H166172   6.110   3.485   1.116  1.9590 -0.3358 -0.2390
14919TIP3    H266173   6.079   3.564   1.242  0.5186 -1.3424  0.0563
14920TIP3   OH266174   3.270   3.879  15.964  0.1477 -0.5648 -0.1242
14920TIP3    H166175   3.254   3.794  15.924 -2.4331  0.4750 -1.5540
14920TIP3    H266176   3.187   3.926  15.956  1.4703  2.1231  0.5352
14921TIP3   OH266177   5.507   5.242  16.998  0.0589 -0.2560 -0.4230
14921TIP3    H166178   5.566   5.312  16.968  0.0018  0.8254  1.8386
14921TIP3    H266179   5.543   5.214  17.082 -2.9707  0.9730  1.4448
14922TIP3   OH266180   5.373   4.543  13.860  0.2242  0.2809  0.3498
14922TIP3    H166181   5.421   4.480  13.806  1.0927  0.4207  0.9232
14922TIP3    H266182   5.362   4.620  13.804 -2.5422 -0.9949 -1.0301
14923TIP3   OH266183   4.669   1.212  12.878  0.0041 -0.0655  0.0100
14923TIP3    H166184   4.648   1.285  12.820 -1.6928 -1.2183 -0.8942
14923TIP3    H266185   4.604   1.217  12.948 -1.2615 -1.6841 -0.9908
14924TIP3   OH266186   3.935   4.476  10.694 -0.0918 -0.2280  0.1103
14924TIP3    H166187   4.025   4.464  10.663 -0.0395 -0.7290  0.4385
14924TIP3    H266188   3.881   4.460  10.618  0.1585  2.6111 -0.7793
14925TIP3   OH266189   2.207   2.021  13.534  0.5506  0.0313 -0.0548
14925TIP3    H166190   2.266   1.959  13.492  1.5713  1.5344 -0.9240
14925TIP3    H266191   2.234   2.022  13.626 -0.9096 -2.3753  0.5044
14926TIP3   OH266192   4.140   3.763   1.880  0.1197 -0.3924 -0.3982
14926TIP3    H166193   4.158   3.842   1.829  0.6508  0.4589  1.0664
14926TIP3    H266194   4.067   3.721   1.834 -1.0637  1.6361 -0.4723
14927TIP3   OH266195   1.290   0.671   0.785 -0.5719 -0.2080 -0.2982
14927TIP3    H166196   1.358   0.737   0.770 -1.4900  0.5666 -1.3092
14927TIP3    H266197   1.269   0.639   0.697 -3.3739  1.5382 -0.3838
14928TIP3   OH266198   0.855   2.170  15.397  0.3725 -0.0762 -0.3175
14928TIP3    H166199   0.790   2.101  15.406 -0.0051  0.2522 -0.4936
14928TIP3    H266200   0.806   2.245  15.363  0.3187  0.9423  1.8011
14929TIP3   OH266201   5.037   4.818   0.440 -0.3932  0.2730 -0.0249
14929TIP3    H166202   5.022   4.852   0.352  0.4166 -2.4866 -1.3317
14929TIP3    H266203   5.014   4.891   0.498  2.2350  3.4269 -2.5509
14930TIP3   OH266204   5.138   0.088   0.992  0.9528 -0.0134  0.2466
14930TIP3    H166205   5.120   0.138   0.913  3.6762  0.8675  0.0701
14930TIP3    H266206   5.100   0.002   0.975 -1.7835  1.2343 -0.4030
14931TIP3   OH266207   2.267   1.985   1.454  0.0003 -0.5638 -0.0459
14931TIP3    H166208   2.256   1.902   1.408 -1.3205 -1.1807  1.2859
14931TIP3    H266209   2.296   1.959   1.542 -2.4185  0.1868  1.0429
14932TIP3   OH266210   0.521   1.900  11.625 -0.8394  0.5363  0.3585
14932TIP3    H166211   0.429   1.925  11.635 -0.2874  2.0892  2.2002
14932TIP3    H266212   0.549   1.941  11.544 -1.5780  0.6190  0.1352
14933TIP3   OH266213   4.713   4.946  12.540  0.3368 -0.6510 -0.5036
14933TIP3    H166214   4.640   5.005  12.518  0.4776 -0.2642  0.0474
14933TIP3    H266215   4.671   4.871  12.581  0.2549 -0.3440 -0.0118
14934TIP3   OH266216   3.978   3.248  10.115 -0.0301 -0.4577 -0.3794
14934TIP3    H166217   3.952   3.258  10.207 -1.7075 -0.2051 -0.8567
14934TIP3    H266218   4.065   3.209  10.120  0.2982  0.3623  1.3342
14935TIP3   OH266219   1.932   5.006   2.643 -0.1796 -0.3605  0.3268
14935TIP3    H166220   1.994   4.976   2.710  0.3393 -1.6122 -0.6813
14935TIP3    H266221   1.984   5.063   2.586 -0.2622 -0.4160  0.1961
14936TIP3   OH266222   0.562   4.726   0.176  0.2804  0.2365 -0.4642
14936TIP3    H166223   0.642   4.688   0.212 -0.3142  0.2383  0.9432
14936TIP3    H266224   0.505   4.650   0.161  0.1709  0.3240 -0.4855
14937TIP3   OH266225   2.910   2.320   0.014 -0.3276 -0.2709 -0.5447
14937TIP3    H166226   2.995   2.299  -0.026 -0.7549 -1.1759 -1.0113
14937TIP3    H266227   2.930   2.388   0.078  0.7995 -0.6432 -0.4732
14938TIP3   OH266228   6.618   5.576   5.147  0.6394 -0.0344  0.0357
14938TIP3    H166229   6.634   5.563   5.241  1.2054 -0.0994 -0.0649
14938TIP3    H266230   6.541   5.633   5.143 -0.7328 -1.7650  0.5123
14939TIP3   OH266231   4.074   6.252  13.060 -0.5185  0.0259 -0.4290
14939TIP3    H166232   4.018   6.311  13.110  0.8564  1.2328 -0.2342
14939TIP3    H266233   4.132   6.213  13.126  0.2987  0.4583 -0.8901
14940TIP3   OH266234   3.683   1.952   4.028  0.5547  0.3764 -1.0076
14940TIP3    H166235   3.635   2.034   4.017 -0.2193  0.4655  2.2505
14940TIP3    H266236   3.774   1.979   4.038  0.0593  1.2160  2.3951
14941TIP3   OH266237   2.735   1.430   2.083  0.4145 -0.1528 -0.4242
14941TIP3    H166238   2.765   1.340   2.091  1.1271  0.0827 -0.4503
14941TIP3    H266239   2.769   1.474   2.161  1.3599  0.4551 -1.1600
14942TIP3   OH266240   0.242   3.847  14.613 -0.6143 -0.1702  0.5514
14942TIP3    H166241   0.258   3.940  14.597 -2.2904  0.1916  0.7083
14942TIP3    H266242   0.317   3.817  14.663  0.0079  1.0735  0.3883
14943TIP3   OH266243   0.660   0.416   5.065  0.3346 -0.2390  0.1643
14943TIP3    H166244   0.672   0.360   4.988 -3.0948 -1.5989  0.4279
14943TIP3    H266245   0.594   0.480   5.038  1.6862  1.5905  0.9660
14944TIP3   OH266246   4.253   5.247   0.591 -0.6751  0.1250  0.9713
14944TIP3    H166247   4.278   5.190   0.663 -0.3260  1.0112  1.5690
14944TIP3    H266248   4.309   5.324   0.601 -0.5647  0.2303 -0.2926
14945TIP3   OH266249   2.271   5.916  11.059 -0.2764 -0.0566  0.2608
14945TIP3    H166250   2.228   5.951  10.981  0.0779 -0.3244 -0.0521
14945TIP3    H266251   2.287   5.824  11.039  0.5239  0.0613  0.3456
14946TIP3   OH266252   3.161   1.721   5.695  0.5353 -0.1960 -0.1694
14946TIP3    H166253   3.160   1.699   5.601  0.4136  0.8564 -0.4264
14946TIP3    H266254   3.189   1.640   5.738 -0.9584 -1.2022 -0.9835
14947TIP3   OH266255   0.703   6.518   1.858  0.3634 -0.0609 -0.0065
14947TIP3    H166256   0.759   6.540   1.784 -0.9670 -2.4614 -1.8930
14947TIP3    H266257   0.627   6.474   1.819 -1.6590  0.8033  2.6130
14948TIP3   OH266258   4.635   6.554   5.477 -0.5372 -0.3552 -0.1626
14948TIP3    H166259   4.567   6.548   5.544 -1.8533 -1.3359 -1.5235
14948TIP3    H266260   4.658   6.463   5.458 -0.3657 -0.0958 -1.2183
14949TIP3   OH266261   6.318   3.238   2.543  0.0465 -0.2131  0.9000
14949TIP3    H166262   6.339   3.322   2.503 -0.7331 -0.2556  0.3924
14949TIP3    H266263   6.358   3.173   2.486 -1.8918 -0.3296 -0.4297
14950TIP3   OH266264   2.737   2.758   1.281  0.7662 -0.1436  0.1019
14950TIP3    H166265   2.809   2.731   1.225 -0.5831 -0.4455 -1.5527
14950TIP3    H266266   2.674   2.686   1.276  1.1609 -0.8759  3.1940
14951TIP3   OH266267   1.573   2.841   3.445 -0.4360 -0.2051 -0.1422
14951TIP3    H166268   1.528   2.882   3.519  1.2261 -1.0618  1.4136
14951TIP3    H266269   1.504   2.826   3.380 -2.2771 -0.8233  1.8430
14952TIP3   OH266270   3.698   2.897   5.185 -0.8274 -0.2978 -0.4119
14952TIP3    H166271   3.617   2.857   5.154 -1.7147  1.7430 -0.8493
14952TIP3    H266272   3.748   2.914   5.105 -0.3019 -0.7948 -0.2002
14953TIP3   OH266273   2.248   0.625  12.008  0.4983 -0.1669  0.5649
14953TIP3    H166274   2.221   0.715  12.023  0.8330  0.2530 -1.1763
14953TIP3    H266275   2.274   0.622  11.916 -0.1714 -2.2008  0.3784
14954TIP3   OH266276   4.029   3.168  12.711  0.1300 -0.4704  0.1855
14954TIP3    H166277   4.086   3.108  12.759  3.1012 -0.2679 -2.6765
14954TIP3    H266278   4.028   3.133  12.622 -1.4070  1.5228 -0.6608
14955TIP3   OH266279   0.091   0.940  14.672 -0.6410 -0.4748 -0.1968
14955TIP3    H166280   0.132   0.872  14.619 -0.2108  0.6215 -1.3301
14955TIP3    H266281   0.052   0.893  14.746  2.6934 -1.6159  1.0317
14956TIP3   OH266282   6.727   0.780   0.575  0.0069 -0.0274  0.0331
14956TIP3    H166283   6.805   0.832   0.596  1.4230 -1.7925 -0.6016
14956TIP3    H266284   6.734   0.702   0.629 -2.0402  0.3478  0.9125
14957TIP3   OH266285   4.755   4.556  13.002 -0.5857 -0.1223  0.7238
14957TIP3    H166286   4.831   4.578  12.949 -2.2161 -0.6038 -2.0329
14957TIP3    H266287   4.761   4.462  13.016  0.1267  0.0864  1.9500
14958TIP3   OH266288   4.241   3.217  10.430  0.0872  0.2155  0.5678
14958TIP3    H166289   4.255   3.209  10.335 -1.8023 -1.2663  0.3381
14958TIP3    H266290   4.299   3.288  10.457  0.3506  0.9932 -1.7706
14959TIP3   OH266291   5.679   1.333   4.001 -0.0817 -0.7137  0.5091
14959TIP3    H166292   5.732   1.281   4.062 -0.1782 -0.6652  0.6361
14959TIP3    H266293   5.639   1.269   3.942 -0.5078 -0.8182  0.9055
14960TIP3   OH266294   3.767   5.449  12.044 -0.5357  0.1181  0.2333
14960TIP3    H166295   3.702   5.515  12.067 -1.2770 -1.2347  2.3192
14960TIP3    H266296   3.821   5.441  12.123 -1.3668 -2.7360  0.6041
14961TIP3   OH266297   6.529   3.842   3.081 -0.1589 -0.4623 -0.2396
14961TIP3    H166298   6.590   3.842   3.008  0.2008  2.9599 -0.1173
14961TIP3    H266299   6.448   3.878   3.045 -0.4543 -0.1537  0.7039
14962TIP3   OH266300   4.101   4.280  15.691 -0.4559  0.2709 -0.0371
14962TIP3    H166301   4.057   4.199  15.666  0.8241 -0.7603  0.9150
14962TIP3    H266302   4.111   4.328  15.609 -3.4510  0.6693 -0.2879
14963TIP3   OH266303   4.479   1.086   5.995 -0.5568  0.2941  0.8391
14963TIP3    H166304   4.449   1.048   5.912 -0.0968 -0.6671  1.1024
14963TIP3    H266305   4.439   1.173   5.997  2.5197  2.0533 -2.2821
14964TIP3   OH266306   0.391   4.205  13.661 -0.2391  0.0200  0.1468
14964TIP3    H166307   0.351   4.290  13.679 -0.2959 -0.3557  2.0985
14964TIP3    H266308   0.451   4.221  13.588  0.3351  1.9213  0.9704
14965TIP3   OH266309   0.409   2.766   4.305 -0.1284  0.2260  0.4531
14965TIP3    H166310   0.498   2.776   4.270  0.6831  0.5604  2.4566
14965TIP3    H266311   0.393   2.671   4.302  0.7067  0.0559  0.9343
14966TIP3   OH266312   3.431   6.077   0.414 -0.1692 -0.0612  0.3135
14966TIP3    H166313   3.440   5.985   0.389 -0.9957 -0.1818  0.4432
14966TIP3    H266314   3.495   6.089   0.484  0.2250 -0.4277  0.0227
14967TIP3   OH266315   4.919   2.865   6.146  0.5932  0.2033 -0.1898
14967TIP3    H166316   4.922   2.928   6.218  1.8982  0.0007 -0.0428
14967TIP3    H266317   4.828   2.833   6.146  0.0437  1.6904  0.0556
14968TIP3   OH266318   6.563   1.252   2.291  0.8731  0.2154  0.3030
14968TIP3    H166319   6.478   1.251   2.247  1.5832 -0.4318 -1.0962
14968TIP3    H266320   6.542   1.263   2.384 -0.8357 -1.8660  0.2145
14969TIP3   OH266321   1.287   0.113   1.136  0.1832 -0.0108  0.0349
14969TIP3    H166322   1.219   0.056   1.100  0.9053  0.6381 -2.5983
14969TIP3    H266323   1.351   0.052   1.174 -0.4508 -0.7822 -0.0937
14970TIP3   OH266324   0.455   0.184   0.637 -0.0954  0.5803  0.7594
14970TIP3    H166325   0.377   0.128   0.636  0.4293 -0.1811 -0.3674
14970TIP3    H266326   0.479   0.192   0.544 -0.1480  2.7012  0.8944
14971TIP3   OH266327   4.052   2.127  15.731  0.0171 -0.4055 -0.1292
14971TIP3    H166328   4.000   2.203  15.704  0.4002  0.7391  2.0683
14971TIP3    H266329   3.991   2.054  15.727 -2.1533  0.9979  3.0302
14972TIP3   OH266330   0.628   3.139  14.924  0.4834 -0.5008  0.5452
14972TIP3    H166331   0.565   3.069  14.909 -1.0578  0.7447  0.9803
14972TIP3    H266332   0.698   3.098  14.975 -0.4062 -1.7035  0.8412
14973TIP3   OH266333   0.038   1.221   3.919  0.3582  0.0318  0.0362
14973TIP3    H166334   0.024   1.221   3.824 -0.6983  0.2394  0.1827
14973TIP3    H266335   0.045   1.313   3.942 -2.3926  0.2013  0.5444
14974TIP3   OH266336   4.638   2.903  16.654  0.1621 -1.0719 -0.2017
14974TIP3    H166337   4.692   2.970  16.696 -2.9017  2.5421 -1.4176
14974TIP3    H266338   4.657   2.912  16.560 -3.5348  1.7199 -0.9148
14975TIP3   OH266339   6.067   0.996   2.256 -0.1301 -0.1550 -0.4715
14975TIP3    H166340   6.120   0.924   2.223  0.5572  0.9751 -1.9397
14975TIP3    H266341   5.988   0.995   2.202 -0.3459 -0.1181 -0.1614
14976TIP3   OH266342   3.156   2.057  13.195  0.1665  0.0933  0.4739
14976TIP3    H166343   3.216   2.040  13.123  1.2026  3.0976  0.4998
14976TIP3    H266344   3.105   2.133  13.167 -1.3681 -0.3830  1.8000
14977TIP3   OH266345   5.881   4.227   1.020 -0.0206  0.1157  0.1739
14977TIP3    H166346   5.882   4.315   0.982  2.8844  0.6426  1.1940
14977TIP3    H266347   5.891   4.168   0.945 -1.0329  0.6691 -0.4212
14978TIP3   OH266348   3.064   2.726   2.528 -0.2019 -0.0523 -0.1487
14978TIP3    H166349   3.121   2.669   2.580 -0.8771  1.2651  2.1658
14978TIP3    H266350   3.019   2.780   2.592 -0.1785  2.5876 -2.1899
14979TIP3   OH266351   2.343   0.148   0.484  0.1626  0.0182  0.2630
14979TIP3    H166352   2.252   0.123   0.472 -0.1477  1.4977 -0.7072
14979TIP3    H266353   2.384   0.073   0.527 -0.8005 -1.8977 -2.0301
14980TIP3   OH266354   1.086   1.160   6.047  0.2520 -0.0924 -0.1895
14980TIP3    H166355   1.164   1.108   6.028 -0.3985 -0.3837 -2.3065
14980TIP3    H266356   1.069   1.145   6.140  1.7216 -1.3924 -0.0901
14981TIP3   OH266357   6.725   6.674   5.755 -0.4585 -0.0724 -0.0250
14981TIP3    H166358   6.686   6.589   5.777 -0.0558  0.1497  1.7223
14981TIP3    H266359   6.716   6.726   5.835  0.0800  1.2395 -0.7885
14982TIP3   OH266360   2.750   5.786   4.882 -0.1893 -0.1681  0.3055
14982TIP3    H166361   2.665   5.763   4.920 -0.8212 -0.9442 -1.4896
14982TIP3    H266362   2.806   5.710   4.902  0.0157  0.2132  1.2262
14983TIP3   OH266363   6.510   4.274  13.398 -0.5906  0.3865 -0.4788
14983TIP3    H166364   6.605   4.269  13.405 -0.4492  2.5730 -0.2452
14983TIP3    H266365   6.494   4.283  13.304 -0.6529 -0.7283 -0.5948
14984TIP3   OH266366   6.007   0.388  14.380 -0.1049 -0.1804  0.0409
14984TIP3    H166367   6.100   0.398  14.396  0.1169 -0.2981 -1.0714
14984TIP3    H266368   6.000   0.372  14.285 -1.3178  0.7508 -0.0569
14985TIP3   OH266369   3.967   1.382   2.870  0.2261  0.0385 -0.5072
14985TIP3    H166370   4.019   1.335   2.804 -0.6676 -0.2225 -1.0399
14985TIP3    H266371   4.004   1.470   2.871  0.6858 -0.1457 -0.8708
14986TIP3   OH266372   5.641   2.836  16.893 -0.1367  0.0269 -0.1005
14986TIP3    H166373   5.582   2.878  16.831  1.0484  1.2047 -0.4645
14986TIP3    H266374   5.676   2.760  16.845 -2.6858 -1.8328  0.7439
14987TIP3   OH266375   6.240   1.189  11.949 -0.7026  0.5436 -0.4698
14987TIP3    H166376   6.295   1.196  11.872  1.2877  0.3026  0.8653
14987TIP3    H266377   6.263   1.265  12.002 -0.6166 -0.2966  0.7302
14988TIP3   OH266378   3.635   5.104   2.160 -0.5094  0.2142  0.4377
14988TIP3    H166379   3.659   5.088   2.251  1.7206 -0.8467 -0.2658
14988TIP3    H266380   3.716   5.135   2.119 -1.5392  0.9668 -1.1378
14989TIP3   OH266381   2.450   5.240  16.953 -0.6064 -0.3173 -0.3560
14989TIP3    H166382   2.382   5.184  16.914 -0.6065  0.2644 -1.2153
14989TIP3    H266383   2.519   5.243  16.887  0.2166 -0.7843  0.4475
14990TIP3   OH266384   4.299   1.698  15.979 -0.6279 -0.5237  0.3583
14990TIP3    H166385   4.244   1.772  15.956 -0.5620 -1.4772 -3.6699
14990TIP3    H266386   4.237   1.630  16.008 -1.1476 -0.2486 -0.0885
14991TIP3   OH266387   2.323   5.409  12.187 -0.2371  0.0999 -0.0271
14991TIP3    H166388   2.287   5.482  12.137 -1.2716 -1.7116 -2.1071
14991TIP3    H266389   2.413   5.402  12.157  0.1194  0.9909  0.7903
14992TIP3   OH266390   3.828   0.278  10.957  0.3208  0.1244 -0.1057
14992TIP3    H166391   3.757   0.341  10.963 -1.0476 -1.3305 -0.5460
14992TIP3    H266392   3.848   0.273  10.863 -0.6831 -1.2323 -0.2793
14993TIP3   OH266393   6.024   1.580  12.437  1.1802  0.1137  0.5947
14993TIP3    H166394   6.095   1.629  12.478  1.1649  0.8989 -0.2857
14993TIP3    H266395   6.068   1.508  12.391  1.5890  1.3781 -1.0991
14994TIP3   OH266396   4.612   4.531   2.659 -0.2529  0.2507 -0.2741
14994TIP3    H166397   4.676   4.495   2.598 -0.9824  1.5213 -1.8540
14994TIP3    H266398   4.664   4.566   2.731  0.6191 -1.2648 -0.1218
14995TIP3   OH266399   1.387   2.898  14.658  0.0855  0.5056  0.1379
14995TIP3    H166400   1.381   2.875  14.565  0.9203  2.0008 -0.3216
14995TIP3    H266401   1.297   2.895  14.690 -0.1144 -0.9300 -0.4613
14996TIP3   OH266402   5.676   4.100  11.220  0.4498  0.5622  0.1569
14996TIP3    H166403   5.762   4.059  11.208  0.4299  0.5688 -0.0194
14996TIP3    H266404   5.639   4.102  11.131  0.8162  1.7821  0.0207
14997TIP3   OH266405   2.001   5.553  16.728 -0.3357  0.5263  0.0997
14997TIP3    H166406   1.961   5.483  16.675  0.0913 -0.0230  0.4871
14997TIP3    H266407   1.927   5.593  16.773 -0.5308 -0.0908  0.3486
14998TIP3   OH266408   5.345   4.660   2.307  0.0694 -0.3455  0.8759
14998TIP3    H166409   5.291   4.702   2.240 -0.3185  2.1543  2.6421
14998TIP3    H266410   5.398   4.596   2.258 -0.8046  0.7302 -1.6516
14999TIP3   OH266411   6.446   6.718  11.253  0.7755  0.2883 -0.3566
14999TIP3    H166412   6.455   6.629  11.219  3.7932 -0.4365  1.8569
14999TIP3    H266413   6.499   6.772  11.195  2.2090 -0.1325  0.5174
15000TIP3   OH266414   2.395   1.130  13.104 -0.1524 -0.1543 -0.1223
15000TIP3    H166415   2.349   1.096  13.181 -2.4549  2.0832 -0.3808
15000TIP3    H266416   2.361   1.079  13.031 -0.3442 -0.1968 -0.0045
15001TIP3   OH266417   2.414   1.403   0.236  0.8712  0.0742 -0.3677
15001TIP3    H166418   2.357   1.474   0.208  1.3212  1.0908  1.1595
15001TIP3    H266419   2.380   1.325   0.191 -1.6744  0.6336  0.4233
15002TIP3   OH266420   4.715   5.085   3.197  0.1132  0.3354 -0.5555
15002TIP3    H166421   4.683   5.065   3.285 -1.0184  0.2088 -0.9908
15002TIP3    H266422   4.652   5.147   3.161  0.6779  0.5438 -1.2181
15003TIP3   OH266423   3.553   0.496   3.410 -0.1072  0.7781  0.4793
15003TIP3    H166424   3.587   0.442   3.481 -1.2157  0.3859  0.7370
15003TIP3    H266425   3.623   0.557   3.390  1.1713 -0.7078  0.2302
15004TIP3   OH266426   6.001   4.084  16.070  0.4205 -0.2392  0.2668
15004TIP3    H166427   6.044   4.008  16.033  0.3375  0.1693 -0.6802
15004TIP3    H266428   5.933   4.048  16.127  1.5082 -0.8781  1.1948
15005TIP3   OH266429   4.654   0.405   0.215  0.5816 -0.6324 -0.1186
15005TIP3    H166430   4.602   0.443   0.285 -1.3097 -0.9962 -1.2510
15005TIP3    H266431   4.730   0.463   0.206 -1.5403  2.2164 -0.9297
15006TIP3   OH266432   2.847   4.330   2.532  0.9128  0.6004  0.3839
15006TIP3    H166433   2.870   4.334   2.625  0.3585  1.8297  0.4832
15006TIP3    H266434   2.754   4.352   2.528  0.5811 -0.7939 -0.3545
15007TIP3   OH266435   3.664   4.752   5.165  0.2005 -0.0589 -0.0601
15007TIP3    H166436   3.609   4.685   5.124  0.5812 -0.4631  0.0818
15007TIP3    H266437   3.753   4.730   5.136  0.3236  0.3927 -0.0202
15008TIP3   OH266438   4.503   5.415   4.011  0.6862  0.7790 -0.5617
15008TIP3    H166439   4.462   5.329   4.000  1.6155  0.2379 -0.0154
15008TIP3    H266440   4.489   5.460   3.928 -1.3788  0.8124 -0.2517
15009TIP3   OH266441   2.196   1.027  12.592 -0.7089 -0.2817  0.3947
15009TIP3    H166442   2.163   1.000  12.506  0.1624 -0.5501  0.1247
15009TIP3    H266443   2.143   1.102  12.616  0.4706  1.2453 -1.4384
15010TIP3   OH266444   0.852   5.260  13.732 -0.3329 -0.5685  0.1145
15010TIP3    H166445   0.880   5.286  13.645 -1.2495 -0.2967 -0.1125
15010TIP3    H266446   0.756   5.264  13.729 -0.3684  0.3145  1.3850
15011TIP3   OH266447   5.341   4.759   3.374  0.5683 -0.3496  0.1542
15011TIP3    H166448   5.303   4.846   3.364  0.0230 -0.6967 -0.9465
15011TIP3    H266449   5.352   4.748   3.468 -0.5423  0.4062  0.3840
15012TIP3   OH266450   4.672   0.362   5.400 -0.2474  0.0066  0.2320
15012TIP3    H166451   4.581   0.336   5.416 -0.5393  1.0058  0.2243
15012TIP3    H266452   4.668   0.456   5.386  0.9943  0.3331  1.8444
15013TIP3   OH266453   6.272   3.642  12.428  0.3862 -0.7721  0.5421
15013TIP3    H166454   6.280   3.605  12.340  0.5701 -0.2637  0.3382
15013TIP3    H266455   6.194   3.696  12.424  1.1741  0.3960  0.2509
15014TIP3   OH266456   5.028   1.759   5.943  0.1830  0.6195 -0.2597
15014TIP3    H166457   4.949   1.801   5.910 -0.1927 -1.4522 -2.2364
15014TIP3    H266458   5.016   1.754   6.038 -2.1510  0.1513 -0.5407
15015TIP3   OH266459   6.037   0.585   0.159 -0.6431 -0.4483 -0.0398
15015TIP3    H166460   6.008   0.658   0.104  0.2141  0.7942  1.0910
15015TIP3    H266461   5.973   0.582   0.230  0.2971  0.4133  0.8860
15016TIP3   OH266462   6.340   1.853  13.175  0.6750 -0.8521  0.1374
15016TIP3    H166463   6.328   1.772  13.126 -0.0340  0.4264 -1.9268
15016TIP3    H266464   6.251   1.880  13.199  0.8742 -0.5133  0.5070
15017TIP3   OH266465   4.323   5.098   6.184 -0.3817  0.2715  0.7451
15017TIP3    H166466   4.378   5.041   6.130  0.7488  1.1999  0.8669
15017TIP3    H266467   4.235   5.063   6.174  0.3791 -2.0814  1.6032
15018TIP3   OH266468   4.415   3.005  11.644  0.1933 -0.3049  0.3620
15018TIP3    H166469   4.423   2.959  11.728 -0.9462  1.3837  1.4582
15018TIP3    H266470   4.335   2.970  11.605 -0.5100  0.4967  1.0539
15019TIP3   OH266471   6.294   0.377   3.084  0.2031 -0.3609  0.4188
15019TIP3    H166472   6.376   0.357   3.128  1.2557  1.6630 -0.4577
15019TIP3    H266473   6.260   0.454   3.130 -0.8356 -0.7611  0.3329
15020TIP3   OH266474   4.660   4.039  16.670 -0.1622  0.2729 -0.1265
15020TIP3    H166475   4.667   4.101  16.597 -0.1640 -0.0639 -0.4129
15020TIP3    H266476   4.749   4.005  16.682  0.0089  0.9250  0.5599
15021TIP3   OH266477   2.795   1.173   2.914 -0.1899  0.4162  0.4122
15021TIP3    H166478   2.870   1.122   2.943  0.6382  0.6634 -1.1457
15021TIP3    H266479   2.829   1.227   2.842 -2.1887 -0.6852 -1.5116
15022TIP3   OH266480   1.709   3.998  11.779 -0.4182 -0.0928  0.4754
15022TIP3    H166481   1.642   4.037  11.723 -1.2164 -0.5716  1.0820
15022TIP3    H266482   1.782   3.981  11.720  0.0432  2.4300  0.1949
15023TIP3   OH266483   1.274   1.705   3.355 -0.0442  0.1811  0.0119
15023TIP3    H166484   1.257   1.777   3.294  0.1569  0.5614  0.3962
15023TIP3    H266485   1.190   1.660   3.364 -0.3193  0.7319  0.2303
15024TIP3   OH266486   3.600   5.659  12.111 -0.3955 -0.2866 -0.1850
15024TIP3    H166487   3.504   5.656  12.114 -0.4469  0.8344 -0.2023
15024TIP3    H266488   3.624   5.704  12.192  0.0544  0.4226 -0.7079
15025TIP3   OH266489   6.572   5.201   0.509 -0.0322  0.0563 -0.0116
15025TIP3    H166490   6.601   5.123   0.557  0.7515  1.1231  1.3160
15025TIP3    H266491   6.489   5.225   0.549 -0.1903 -0.0021 -0.3040
15026TIP3   OH266492   5.435   6.610   0.049  0.1351 -0.0145  0.3863
15026TIP3    H166493   5.439   6.530  -0.003 -2.7776 -0.0271  0.0009
15026TIP3    H266494   5.372   6.666   0.003  0.2415  1.4849  1.9340
15027TIP3   OH266495   2.952   5.026   2.936  0.3618  0.4886 -0.7150
15027TIP3    H166496   2.896   5.090   2.892 -0.5489 -1.0817 -1.9335
15027TIP3    H266497   2.958   5.057   3.027  0.2701  2.4686 -1.3508
15028TIP3   OH266498   3.172   4.518   4.797 -0.5660  0.1846  0.6930
15028TIP3    H166499   3.141   4.608   4.802 -0.5052  0.5483 -3.1193
15028TIP3    H266500   3.094   4.465   4.814 -1.6342  1.0361 -1.2849
15029TIP3   OH266501   0.379   4.761  16.067 -0.4724  0.2028 -0.5965
15029TIP3    H166502   0.362   4.853  16.084 -1.3295  0.0792 -0.7556
15029TIP3    H266503   0.293   4.723  16.050 -0.1409 -0.6545 -0.4097
15030TIP3   OH266504   6.614   0.293  11.513  0.0164 -0.0979  0.4951
15030TIP3    H166505   6.636   0.298  11.420 -2.6494 -2.4860 -0.4098
15030TIP3    H266506   6.699   0.284  11.557  1.2736 -0.3930 -1.8547
15031TIP3   OH266507   5.599   6.045  11.328 -0.3303  0.8941 -0.3330
15031TIP3    H166508   5.650   5.964  11.324 -0.7545  0.6038  0.0132
15031TIP3    H266509   5.660   6.113  11.301  0.4059  0.6329  0.6233
15032TIP3   OH266510   3.734   2.373   5.679  0.6712 -0.0672  0.7249
15032TIP3    H166511   3.762   2.387   5.769  1.6932  0.0567  0.3936
15032TIP3    H266512   3.718   2.461   5.644  0.8298 -0.0867  0.6055
15033TIP3   OH266513   2.318   1.178  11.621 -0.4363  0.2986 -0.2558
15033TIP3    H166514   2.386   1.113  11.605  0.7562  1.0305  1.5086
15033TIP3    H266515   2.294   1.209  11.534  0.6985 -0.7493 -0.9893
15034TIP3   OH266516   3.028   3.812   2.520 -0.1068  0.3450 -0.1212
15034TIP3    H166517   3.054   3.858   2.440  0.2303 -0.5029 -0.5095
15034TIP3    H266518   2.934   3.801   2.511 -0.4369  2.1967  0.6425
15035TIP3   OH266519   2.458   5.981   2.719  0.3386 -0.0511  0.3855
15035TIP3    H166520   2.459   5.902   2.664 -0.9185  0.1374  0.0593
15035TIP3    H266521   2.422   5.951   2.803  1.2813 -0.1258  0.7699
15036TIP3   OH266522   3.628   6.771  12.169  0.2548 -0.7809 -0.4502
15036TIP3    H166523   3.643   6.864  12.151 -2.0305 -0.3816 -0.6667
15036TIP3    H266524   3.660   6.726  12.091  1.4310 -0.1933 -0.3225
15037TIP3   OH266525   1.505   2.445  12.268  0.1584  0.1820 -0.3505
15037TIP3    H166526   1.423   2.481  12.302  0.6355  0.9883 -0.0268
15037TIP3    H266527   1.540   2.393  12.341 -0.7785 -1.4289 -0.9821
15038TIP3   OH266528   1.965   6.043   3.191  0.2635  0.2466 -0.4565
15038TIP3    H166529   1.950   6.119   3.136 -0.3097 -0.1356 -0.8281
15038TIP3    H266530   2.005   5.978   3.133  1.4977  0.5249  0.0371
15039TIP3   OH266531   2.458   2.747  12.954  0.0397 -0.0122  0.8379
15039TIP3    H166532   2.364   2.733  12.956  0.1871 -1.0106  1.4843
15039TIP3    H266533   2.494   2.664  12.923  0.6334  0.8470 -0.9026
15040TIP3   OH266534   2.658   4.164   1.028 -0.2355 -0.5166 -0.5896
15040TIP3    H166535   2.602   4.155   1.106  0.7438 -0.4452  0.1512
15040TIP3    H266536   2.674   4.258   1.022 -0.0086 -0.5595 -0.6528
15041TIP3   OH266537   4.645   1.769  12.891  0.3887 -0.5069 -0.3343
15041TIP3    H166538   4.549   1.769  12.897  0.2796  1.2478 -1.5115
15041TIP3    H266539   4.671   1.856  12.923  1.6353 -1.0777  0.2843
15042TIP3   OH266540   5.577   3.097   0.380 -0.6552  0.4046 -0.1020
15042TIP3    H166541   5.500   3.081   0.435 -0.6504  0.3037 -0.1239
15042TIP3    H266542   5.632   3.156   0.431  0.7218 -1.9040  1.2930
15043TIP3   OH266543   5.567   6.749   3.866 -0.0101  0.0672 -0.0206
15043TIP3    H166544   5.550   6.678   3.928  0.1411  0.5403  0.5679
15043TIP3    H266545   5.575   6.705   3.782 -1.3032 -0.4753  0.1097
15044TIP3   OH266546   5.507   5.476   5.031 -0.1713 -0.3183  0.2645
15044TIP3    H166547   5.515   5.561   4.988 -0.4218 -0.5722 -0.2902
15044TIP3    H266548   5.434   5.488   5.092 -0.8790 -0.4233 -0.5389
15045TIP3   OH266549   2.975   0.084  11.673  0.4273 -0.2683 -0.1997
15045TIP3    H166550   2.931  -0.000  11.674  2.1594 -1.3037 -2.3249
15045TIP3    H266551   3.068   0.063  11.673  0.9372  1.5033 -2.7058
15046TIP3   OH266552   5.371   4.779  11.095 -0.6214 -0.1010  0.2683
15046TIP3    H166553   5.418   4.797  11.177 -0.1939  0.5882 -0.1143
15046TIP3    H266554   5.297   4.839  11.097 -0.2968  0.3204 -0.1007
15047TIP3   OH266555   2.222   5.910   2.333 -0.3609  0.1739 -0.0313
15047TIP3    H166556   2.167   5.888   2.258  0.2739 -2.0081  0.0803
15047TIP3    H266557   2.175   5.981   2.377 -3.8780 -2.4083  0.8332
15048TIP3   OH266558   5.787   0.096   0.276 -0.0808 -0.1326  0.2820
15048TIP3    H166559   5.853   0.154   0.314  0.2103  0.2751 -0.7915
15048TIP3    H266560   5.721   0.156   0.239  0.0219 -0.4847 -0.4955
15049TIP3   OH266561   6.608   1.718   6.127  0.4193  0.3991  0.0852
15049TIP3    H166562   6.617   1.703   6.033  0.0667  0.0506  0.1025
15049TIP3    H266563   6.647   1.640   6.168  2.5718  1.5163  0.3001
15050TIP3   OH266564   4.991   6.742   0.097 -0.4438  0.1543 -0.4113
15050TIP3    H166565   4.903   6.705   0.089 -0.2959 -0.1073 -0.8708
15050TIP3    H266566   4.988   6.823   0.045 -0.3148 -0.0365 -0.7186
15051TIP3   OH266567   5.979   4.701  14.182  0.1216  0.1083 -0.0334
15051TIP3    H166568   5.950   4.692  14.091 -1.3279 -1.0507  0.4996
15051TIP3    H266569   5.899   4.717  14.231  0.8308  0.2949  1.0926
15052TIP3   OH266570   6.414   5.754   5.108  0.3533  0.0390 -0.2091
15052TIP3    H166571   6.342   5.692   5.095  0.3667  0.3586 -2.1300
15052TIP3    H266572   6.380   5.818   5.170 -0.9309  0.0250 -0.8643
15053TIP3   OH266573   1.860   2.019   0.356  0.8600 -0.2665 -0.3729
15053TIP3    H166574   1.837   2.041   0.447 -1.8648 -1.3980 -0.6900
15053TIP3    H266575   1.878   1.925   0.358  1.3764 -0.1842 -0.9284
15054TIP3   OH266576   2.114   2.673   1.424  0.6800 -0.2558  0.8031
15054TIP3    H166577   2.034   2.620   1.434  0.8480 -0.1559  3.5401
15054TIP3    H266578   2.107   2.710   1.336 -0.5171 -3.0557 -0.4300
15055TIP3   OH266579   4.072   6.351  16.525  0.1999  0.2586  0.2442
15055TIP3    H166580   4.005   6.284  16.541 -0.8365  0.8598 -1.3360
15055TIP3    H266581   4.155   6.303  16.525 -0.3686 -0.7655  0.6536
15056TIP3   OH266582   3.801   2.240  14.133 -0.4841  0.1826 -0.1457
15056TIP3    H166583   3.714   2.278  14.118 -1.0344 -0.8464  0.3636
15056TIP3    H266584   3.846   2.305  14.187 -0.4853  1.2856 -1.3967
15057TIP3   OH266585   5.679   2.300  11.092  0.1327  0.4405 -0.6133
15057TIP3    H166586   5.696   2.317  10.999 -2.0290  0.9858 -0.9616
15057TIP3    H266587   5.600   2.247  11.092  0.6497 -0.3770  0.9088
15058TIP3   OH266588   3.467   4.095   3.155 -0.2228 -0.2176 -0.6856
15058TIP3    H166589   3.517   4.016   3.178 -1.0030 -0.5386 -0.0427
15058TIP3    H266590   3.476   4.101   3.060 -0.5754 -1.3858 -0.8106
15059TIP3   OH266591   3.834   3.561   4.491  0.4423  0.5000  0.4822
15059TIP3    H166592   3.841   3.657   4.488 -1.4436  0.6996  1.2202
15059TIP3    H266593   3.855   3.538   4.582 -1.4930  0.5069  0.9842
15060TIP3   OH266594   2.031   4.204   1.844 -0.3431 -0.0170 -0.2542
15060TIP3    H166595   2.013   4.181   1.752 -1.0685 -2.5006  0.4217
15060TIP3    H266596   2.102   4.146   1.869 -1.9986 -1.4388  1.4900
15061TIP3   OH266597   5.265   2.855  15.441 -0.1622 -0.0322  0.1848
15061TIP3    H166598   5.235   2.831  15.353 -1.8514 -0.0265  0.7415
15061TIP3    H266599   5.334   2.921  15.425 -1.0109  0.5828 -1.1213
15062TIP3   OH266600   4.712   5.801   3.545  0.2303  0.3954  0.0592
15062TIP3    H166601   4.762   5.853   3.483 -1.6971  0.4786 -1.4984
15062TIP3    H266602   4.647   5.861   3.581  1.3389  0.3783  2.3039
15063TIP3   OH266603   4.545   3.848  12.744  0.2893  0.0567 -0.3446
15063TIP3    H166604   4.455   3.821  12.764  0.8218 -0.4987  1.4377
15063TIP3    H266605   4.557   3.929  12.793  0.5642  0.5110 -1.1372
15064TIP3   OH266606   0.289   0.769   0.779  0.6636  0.0003 -0.0585
15064TIP3    H166607   0.235   0.817   0.716  0.3433 -1.0435 -0.6084
15064TIP3    H266608   0.271   0.677   0.760  0.4096 -0.3409  1.7168
15065TIP3   OH266609   5.398   6.216  12.325  0.0091  0.3426 -0.5373
15065TIP3    H166610   5.490   6.241  12.337 -0.3240  0.8407  1.2106
15065TIP3    H266611   5.353   6.298  12.309 -0.2986  0.2249 -0.2698
15066TIP3   OH266612   6.434   1.047  15.427 -0.0973 -0.1178  0.0771
15066TIP3    H166613   6.499   1.093  15.375 -0.0339  0.4016  0.6092
15066TIP3    H266614   6.422   0.963  15.382  0.2522  0.1602 -0.5390
15067TIP3   OH266615   4.039   5.736  15.168 -0.5885 -0.0639 -0.0049
15067TIP3    H166616   4.120   5.767  15.128 -1.2998  1.0104 -0.6690
15067TIP3    H266617   4.008   5.810  15.220 -1.6238 -0.1139 -0.5216
15068TIP3   OH266618   5.534   3.685  12.387  0.0192  0.0828 -0.6191
15068TIP3    H166619   5.521   3.592  12.369 -1.7997  0.6120 -2.4780
15068TIP3    H266620   5.625   3.692  12.414  0.1518 -2.2474 -0.2439
15069TIP3   OH266621   5.176   5.041  10.336 -0.5765  0.4490 -0.3490
15069TIP3    H166622   5.237   5.110  10.308 -1.4877  1.0512 -0.9000
15069TIP3    H266623   5.144   5.070  10.421 -0.3555  0.2997 -0.2130
15070TIP3   OH266624   6.007   0.303   6.255  0.3569 -0.0607 -0.0563
15070TIP3    H166625   5.969   0.386   6.226  1.1918 -0.2985 -1.9585
15070TIP3    H266626   6.090   0.328   6.296  0.7979  0.0304 -0.9870
15071TIP3   OH266627   6.561   1.421   1.707 -0.1235  0.3683  0.3190
15071TIP3    H166628   6.496   1.389   1.644 -0.5410  2.1516 -0.1910
15071TIP3    H266629   6.559   1.516   1.698  0.8442  0.5876  2.0136
15072TIP3   OH266630   3.367   1.979  13.953 -0.2711 -0.1331 -0.6853
15072TIP3    H166631   3.366   1.999  13.859  0.8275 -1.8220 -1.0974
15072TIP3    H266632   3.456   1.999  13.981 -0.8201  1.1605  0.2154
15073TIP3   OH266633   5.344   2.269   2.358  0.4976 -0.0503 -0.2412
15073TIP3    H166634   5.334   2.229   2.445 -0.6569 -0.4593 -0.5454
15073TIP3    H266635   5.412   2.335   2.370 -1.9857  2.3510  1.8546
15074TIP3   OH266636   0.852   1.720  13.853 -0.1266  0.3039 -0.4058
15074TIP3    H166637   0.806   1.665  13.790  1.5642 -1.6372 -0.0576
15074TIP3    H266638   0.866   1.664  13.929 -0.3287  1.9589  0.9245
15075TIP3   OH266639   0.702   2.466   2.983 -0.0831  0.0898  0.2783
15075TIP3    H166640   0.752   2.547   2.972 -2.6316  1.5729 -1.2583
15075TIP3    H266641   0.720   2.415   2.904  2.2905 -1.4546  1.6636
15076TIP3   OH266642   0.229   1.148  14.571 -0.2074  0.3028  0.2443
15076TIP3    H166643   0.201   1.057  14.583  0.8874 -0.2702 -1.1548
15076TIP3    H266644   0.168   1.199  14.623 -1.4772 -1.1567  0.2741
15077TIP3   OH266645   5.530   4.194   2.196 -0.2665  0.0971  0.0432
15077TIP3    H166646   5.521   4.155   2.109  0.8796 -0.8360  0.3088
15077TIP3    H266647   5.596   4.140   2.240  3.1709  3.5925 -0.3211
15078TIP3   OH266648   5.185   0.070   5.176  0.2310  0.7139  0.2280
15078TIP3    H166649   5.212   0.159   5.152  0.1861  0.0841 -2.4415
15078TIP3    H266650   5.094   0.064   5.146 -0.1076  0.0781  1.3306
15079TIP3   OH266651   1.799   0.088   2.451  0.1635 -0.4119  0.3032
15079TIP3    H166652   1.826   0.178   2.473  1.3572 -0.2252 -1.6813
15079TIP3    H266653   1.797   0.043   2.535  0.6021  1.1964  1.2341
15080TIP3   OH266654   4.344   4.611  13.070 -0.1874 -0.1183  0.2860
15080TIP3    H166655   4.354   4.702  13.044  1.6010  0.4146  2.5398
15080TIP3    H266656   4.405   4.563  13.013 -1.7520 -0.1178 -1.4972
15081TIP3   OH266657   5.658   3.203   0.131  0.1173  0.5605 -0.2761
15081TIP3    H166658   5.646   3.295   0.154  1.0011  0.6672 -0.2122
15081TIP3    H266659   5.619   3.155   0.204  0.5236  0.8897  0.1580
15082TIP3   OH266660   3.667   5.641   2.379 -0.1045 -0.1013 -0.4535
15082TIP3    H166661   3.718   5.562   2.360  1.2214  0.9656 -1.4561
15082TIP3    H266662   3.604   5.646   2.308  2.9034  2.2445 -3.2239
15083TIP3   OH266663   6.026   2.346  13.353  0.0623  0.3250 -0.0256
15083TIP3    H166664   6.068   2.278  13.406 -0.6549 -0.5628 -0.5656
15083TIP3    H266665   5.960   2.384  13.410 -1.0421 -0.9635 -0.3932
15084TIP3   OH266666   0.181   5.150  14.883 -0.6168  0.2162  0.3906
15084TIP3    H166667   0.186   5.141  14.978 -2.1710 -0.8381  0.4127
15084TIP3    H266668   0.115   5.217  14.868  0.2732  1.0459  0.0270
15085TIP3   OH266669   5.264   5.959   2.474  0.1084  0.4087  0.2648
15085TIP3    H166670   5.188   5.901   2.469  0.8925 -0.5379 -1.6148
15085TIP3    H266671   5.228   6.047   2.470 -0.9299 -0.0065  0.0386
15086TIP3   OH266672   6.528   6.116   5.072 -0.2013 -0.4933  0.3252
15086TIP3    H166673   6.520   6.209   5.093 -0.8348 -0.6356  0.7379
15086TIP3    H266674   6.515   6.071   5.155 -1.5283 -1.0140 -0.1419
15087TIP3   OH266675   0.985   3.058  16.771  0.2475 -0.2008 -0.4104
15087TIP3    H166676   0.927   3.110  16.715 -0.2057  0.7885  0.9346
15087TIP3    H266677   0.940   2.975  16.783 -0.3055  0.0956 -0.3997
15088TIP3   OH266678   6.148   1.392  14.837  0.2114  0.0030 -0.5304
15088TIP3    H166679   6.224   1.335  14.824  0.4247  0.6300 -2.3024
15088TIP3    H266680   6.168   1.439  14.919 -0.6839 -3.4236  1.8544
15089TIP3   OH266681   5.526   6.677   3.035  0.2116 -0.6393 -0.0822
15089TIP3    H166682   5.472   6.669   2.956  0.2822 -1.3559 -0.0624
15089TIP3    H266683   5.599   6.733   3.009 -1.2172  1.5067  0.2545
15090TIP3   OH266684   5.528   5.195  12.059 -0.0674  0.7929 -0.3361
15090TIP3    H166685   5.453   5.144  12.029 -0.4327 -0.4550  2.4507
15090TIP3    H266686   5.604   5.151  12.021 -0.4449 -1.2925  1.1731
15091TIP3   OH266687   6.448   1.209   0.711 -0.7806  0.2434 -0.0035
15091TIP3    H166688   6.515   1.249   0.767 -1.3631  1.6385 -0.2482
15091TIP3    H266689   6.474   1.118   0.703  0.1183  0.3587  1.3451
15092TIP3   OH266690   6.210   5.967   5.147 -0.0901 -0.3163 -0.1892
15092TIP3    H166691   6.120   5.942   5.125 -0.1478 -0.3513  0.0829
15092TIP3    H266692   6.253   5.976   5.062 -0.2137 -0.8122 -0.3097
15093TIP3   OH266693   3.048   5.177   0.179  0.0652 -0.2393  0.4153
15093TIP3    H166694   3.048   5.188   0.274 -4.0096  0.7843  0.4701
15093TIP3    H266695   3.092   5.255   0.145  1.2015 -0.4259  1.3723
15094TIP3   OH266696   3.039   2.878   5.379 -0.1980 -0.0993 -0.5766
15094TIP3    H166697   3.022   2.796   5.426 -0.0631  0.7709  1.0613
15094TIP3    H266698   2.959   2.929   5.390  0.2789  0.5927 -0.2415
15095TIP3   OH266699   6.369   2.631   4.383  0.3069  0.5120  0.4068
15095TIP3    H166700   6.332   2.655   4.468  1.5720 -0.9901  1.4333
15095TIP3    H266701   6.374   2.536   4.385  0.6281  0.4642 -1.2623
15096TIP3   OH266702   5.688   0.303  12.405 -0.0925 -0.1328  0.9887
15096TIP3    H166703   5.593   0.306  12.401 -0.3418 -3.5414  1.2416
15096TIP3    H266704   5.708   0.263  12.489  1.5861  0.6349  1.0027
15097TIP3   OH266705   4.279   6.085   3.247 -0.1308  0.6747 -0.0326
15097TIP3    H166706   4.224   6.007   3.256  0.9783 -0.3196 -1.3461
15097TIP3    H266707   4.220   6.158   3.265 -1.2122 -0.4387  1.2273
15098TIP3   OH266708   6.235   0.484  12.530  0.9148  0.3528 -0.0088
15098TIP3    H166709   6.168   0.426  12.567 -0.3529  2.0476  0.4880
15098TIP3    H266710   6.193   0.523  12.454  3.1191 -2.2750 -2.8754
15099TIP3   OH266711   1.753   2.539   6.030  0.4931  0.0833  0.7125
15099TIP3    H166712   1.766   2.486   6.109  1.7156  2.6110  2.3336
15099TIP3    H266713   1.722   2.624   6.063  0.8598  1.1724 -1.5523
15100TIP3   OH266714   6.082   6.551  15.432  0.1702  0.6033 -0.5609
15100TIP3    H166715   6.074   6.481  15.367 -0.0657  0.5640 -0.4899
15100TIP3    H266716   5.995   6.557  15.472  0.4993  0.1531  0.2365
15101TIP3   OH266717   3.219   6.675  15.767 -0.0077  0.5729  0.1720
15101TIP3    H166718   3.226   6.751  15.825  0.8307  0.0448  0.7790
15101TIP3    H266719   3.134   6.687  15.723  1.0986  3.0745 -1.4999
15102TIP3   OH266720   6.358   0.342   3.497  0.4440  0.8342 -0.0788
15102TIP3    H166721   6.314   0.381   3.421 -1.1101 -1.7515 -0.6430
15102TIP3    H266722   6.428   0.288   3.459 -0.1511 -0.2372  0.3017
15103TIP3   OH266723   2.445   1.518  15.024 -0.2918 -0.1193  0.6450
15103TIP3    H166724   2.408   1.548  15.106 -3.5898  0.2789 -0.8024
15103TIP3    H266725   2.479   1.597  14.982  1.3866 -0.3229  1.5817
15104TIP3   OH266726   5.698   2.522  10.453 -0.5452  0.2935 -0.2475
15104TIP3    H166727   5.748   2.603  10.463 -0.2489  0.1005 -0.1543
15104TIP3    H266728   5.627   2.545  10.393 -0.5372  0.6549 -0.1230
15105TIP3   OH266729   0.046   3.587   4.667  0.5106  0.6521  0.1356
15105TIP3    H166730   0.050   3.563   4.760 -0.5802  1.1807  0.3335
15105TIP3    H266731   0.123   3.643   4.653  1.1869 -0.1758  0.4867
15106TIP3   OH266732   3.402   0.583   2.497  0.1108 -0.3456 -0.3317
15106TIP3    H166733   3.426   0.491   2.513 -0.3777 -0.3317  0.5642
15106TIP3    H266734   3.487   0.628   2.487  0.3403 -0.9682 -1.2943
15107TIP3   OH266735   2.632   6.101   3.314 -0.5257  0.9897 -0.9026
15107TIP3    H166736   2.710   6.125   3.263  0.5393  1.1757  0.7522
15107TIP3    H266737   2.581   6.182   3.319 -1.3386  0.6587 -2.7510
15108TIP3   OH266738   5.737   5.303  13.728  0.1941 -0.0226  0.7184
15108TIP3    H166739   5.824   5.342  13.733  0.1014  0.0250  2.2102
15108TIP3    H266740   5.680   5.375  13.700  0.6198 -0.0509 -0.2466
15109TIP3   OH266741   0.116   4.925   0.931  0.8934  0.4528  0.0961
15109TIP3    H166742   0.110   4.863   1.004 -2.3255  0.4389 -0.0599
15109TIP3    H266743   0.040   4.982   0.942  0.5951  0.7877 -2.9674
15110TIP3   OH266744   4.115   5.327   6.243 -0.8141  0.0792 -0.4399
15110TIP3    H166745   4.195   5.378   6.236 -0.9764  0.6190  1.1448
15110TIP3    H266746   4.137   5.242   6.204 -0.5344  1.2782 -3.0614
15111TIP3   OH266747   3.183   3.509   0.365  0.2620 -0.1627 -0.5568
15111TIP3    H166748   3.245   3.498   0.438 -0.4335  2.0445  0.4723
15111TIP3    H266749   3.097   3.499   0.405 -0.1217  0.7660 -1.1237
15112TIP3   OH266750   0.295   3.122   5.087  0.1409 -0.4457 -0.2320
15112TIP3    H166751   0.302   3.215   5.108 -0.6640 -0.4852  0.2966
15112TIP3    H266752   0.380   3.085   5.110  1.1556  0.4784 -2.2918
15113TIP3   OH266753   4.734   6.110  13.359  0.2298 -0.4961  0.1713
15113TIP3    H166754   4.766   6.025  13.389  0.7752 -0.4264 -0.1978
15113TIP3    H266755   4.807   6.169  13.375 -1.0960  0.5575  3.1923
15114TIP3   OH266756   3.807   2.178   2.357  0.4185 -0.2073  0.1382
15114TIP3    H166757   3.771   2.261   2.387  0.7062 -0.7734  2.3045
15114TIP3    H266758   3.731   2.122   2.343  0.2359  0.3422 -1.0939
15115TIP3   OH266759   6.158   3.105   1.771  0.0904 -0.6434  0.4136
15115TIP3    H166760   6.253   3.117   1.776  0.4028 -1.9996 -1.4402
15115TIP3    H266761   6.136   3.053   1.848  0.2809  2.2645  2.6370
15116TIP3   OH266762   2.515   1.808  11.367  0.2647  0.1178 -0.4974
15116TIP3    H166763   2.507   1.755  11.289 -2.1224  0.5134 -0.6168
15116TIP3    H266764   2.572   1.881  11.342 -0.2363  0.0864 -1.7846
15117TIP3   OH266765   3.537   5.922   6.568  0.2105  0.1688 -0.3270
15117TIP3    H166766   3.480   5.966   6.505 -1.3879 -1.2570  0.0727
15117TIP3    H266767   3.595   5.992   6.600 -0.7101  1.4708 -1.3755
15118TIP3   OH266768   3.028   2.853  14.244  0.6866 -0.6244 -0.2947
15118TIP3    H166769   2.986   2.928  14.287 -1.5199 -1.7731 -0.2976
15118TIP3    H266770   3.104   2.834  14.299  1.2685  1.5388 -0.2623
15119TIP3   OH266771   3.603   5.974  11.881 -0.9954 -0.5632  0.1138
15119TIP3    H166772   3.644   5.889  11.896  0.2984 -0.3547 -1.8952
15119TIP3    H266773   3.658   6.036  11.931 -0.7987 -0.6688  0.0272
15120TIP3   OH266774   1.431   5.189   4.498 -0.0426  0.0333 -0.2501
15120TIP3    H166775   1.398   5.216   4.583  1.2659 -0.0224  0.2920
15120TIP3    H266776   1.435   5.093   4.502 -1.7668 -0.1216 -1.0801
15121TIP3   OH266777   4.049   5.020  11.053 -0.4054 -0.1268 -0.1805
15121TIP3    H166778   4.049   4.925  11.040 -0.0367  0.1179 -2.3173
15121TIP3    H266779   4.122   5.052  11.000 -1.0493  1.4371 -0.1959
15122TIP3   OH266780   2.039   2.629  16.931 -0.2599 -0.1986 -0.2845
15122TIP3    H166781   2.089   2.601  17.007 -0.4440 -0.4376 -0.2498
15122TIP3    H266782   1.950   2.644  16.964 -0.4945 -0.9085 -0.5677
15123TIP3   OH266783   5.849   2.767  12.697  0.4356 -0.3573 -0.1588
15123TIP3    H166784   5.932   2.811  12.682  1.4375 -2.0112  0.2440
15123TIP3    H266785   5.822   2.735  12.612 -0.5539  1.3566 -0.5473
15124TIP3   OH266786   3.926   3.437   3.360 -0.0549  0.2580  0.2353
15124TIP3    H166787   3.839   3.452   3.323  0.2745  0.3203 -0.5300
15124TIP3    H266788   3.966   3.524   3.363  0.6251  0.0049 -1.0674
15125TIP3   OH266789   3.781   0.370  12.788 -0.1510 -0.2095  0.1595
15125TIP3    H166790   3.798   0.423  12.710 -1.9113  0.5508  0.2536
15125TIP3    H266791   3.708   0.313  12.764  0.1459 -0.9138  0.8516
15126TIP3   OH266792   1.254   3.377  13.511  0.0743 -0.1305 -0.4284
15126TIP3    H166793   1.234   3.368  13.417 -0.7512 -0.7667 -0.2099
15126TIP3    H266794   1.338   3.334  13.521 -0.4967 -1.3498 -0.6533
15127TIP3   OH266795   0.364   0.421   0.717  0.2365 -0.2721  0.2367
15127TIP3    H166796   0.414   0.344   0.689  1.0811  0.4446 -0.3138
15127TIP3    H266797   0.310   0.391   0.789  1.4391 -1.1019  0.8138
15128TIP3   OH266798   0.758   2.129  10.463 -0.0974 -0.0064  0.4309
15128TIP3    H166799   0.689   2.178  10.418 -0.9211 -0.2713  1.3730
15128TIP3    H266800   0.835   2.185  10.458 -1.3069  2.0190  2.5696
15129TIP3   OH266801   5.321   1.079   0.340  0.3643  0.4196  0.0883
15129TIP3    H166802   5.396   1.133   0.361 -0.3930  0.6856  2.4100
15129TIP3    H266803   5.246   1.139   0.341 -0.1592 -0.2171  0.0903
15130TIP3   OH266804   6.731   3.314   3.975  0.3400 -0.4722 -0.2774
15130TIP3    H166805   6.795   3.277   3.915 -0.1216 -1.0198 -0.4435
15130TIP3    H266806   6.661   3.346   3.918  0.2847 -0.2276 -0.0763
15131TIP3   OH266807   2.877   6.078  15.145 -0.2900  0.1117 -0.0973
15131TIP3    H166808   2.781   6.083  15.144 -0.4158 -1.6460 -1.2200
15131TIP3    H266809   2.897   6.000  15.197  0.3051 -1.7229 -2.8444
15132TIP3   OH266810   2.088   4.631   4.474  0.5670  0.7040 -0.0713
15132TIP3    H166811   2.055   4.674   4.395  0.3274  1.8929  0.6405
15132TIP3    H266812   2.009   4.604   4.521  0.6021 -3.8054 -2.0720
15133TIP3   OH266813   3.774   5.628   2.687  0.0395 -0.1675  0.1242
15133TIP3    H166814   3.739   5.539   2.685 -0.5439  0.0248  1.1898
15133TIP3    H266815   3.755   5.663   2.600 -0.2581 -0.8785 -0.1072
15134TIP3   OH266816   4.569   1.228  11.410 -0.3525  0.5538 -0.0623
15134TIP3    H166817   4.601   1.249  11.498 -0.4909 -0.9462  0.3755
15134TIP3    H266818   4.584   1.308  11.360 -0.4867  1.5250  1.3741
15135TIP3   OH266819   1.431   2.913   0.035  0.0731 -0.4816  0.7305
15135TIP3    H166820   1.395   2.905  -0.053 -0.0584  0.0107  0.7357
15135TIP3    H266821   1.469   2.828   0.053 -1.4149 -1.1490  0.8759
15136TIP3   OH266822   3.839   1.937  16.939 -0.4541  0.1277 -0.3675
15136TIP3    H166823   3.869   1.961  16.851  1.9071 -0.6606  0.1534
15136TIP3    H266824   3.829   2.020  16.984  1.7091  0.4669 -0.3959
15137TIP3   OH266825   4.050   0.508   1.929  0.5789 -0.8594 -0.6506
15137TIP3    H166826   4.039   0.442   1.998 -0.7969 -0.6907 -0.6904
15137TIP3    H266827   4.032   0.460   1.847  0.9131 -0.7497 -0.7889
15138TIP3   OH266828   1.736   1.792  14.677  0.0988  0.5294 -0.5798
15138TIP3    H166829   1.816   1.753  14.642  0.3419  1.0420 -0.6005
15138TIP3    H266830   1.665   1.746  14.632  0.3626 -0.3151 -0.1642
15139TIP3   OH266831   0.854   3.224  15.438  0.2127 -0.0271 -0.8704
15139TIP3    H166832   0.777   3.177  15.406  1.1150 -1.1744 -1.4685
15139TIP3    H266833   0.923   3.200  15.376  1.5900 -0.8710  0.8932
15140TIP3   OH266834   2.822   3.255  12.196  0.6938 -0.0747 -0.3496
15140TIP3    H166835   2.805   3.216  12.282  1.0047 -3.2452 -1.5850
15140TIP3    H266836   2.750   3.222  12.141  0.9500  1.2176 -1.5037
15141TIP3   OH266837   1.606   3.330  10.457 -0.4343 -0.0286  0.3663
15141TIP3    H166838   1.677   3.360  10.400 -1.0895 -0.2926 -0.6253
15141TIP3    H266839   1.585   3.406  10.512 -0.7319  0.7160 -0.7290
15142TIP3   OH266840   4.300   3.614   4.897  0.1798  0.6687  0.3115
15142TIP3    H166841   4.228   3.555   4.917  0.1322 -0.2163 -2.1734
15142TIP3    H266842   4.324   3.593   4.807  2.0929  2.4673  0.3323
15143TIP3   OH266843   5.591   0.187  11.223 -0.4072  0.2101 -0.2233
15143TIP3    H166844   5.523   0.121  11.241  0.2194 -0.4214 -0.1313
15143TIP3    H266845   5.634   0.156  11.143  0.5734 -0.0611  0.3905
15144TIP3   OH266846   0.417   1.039  12.800  0.0389  0.2433  0.0801
15144TIP3    H166847   0.367   1.101  12.748 -1.7393 -0.7698  0.5159
15144TIP3    H266848   0.437   0.967  12.740  1.1009  0.6981 -0.1235
15145TIP3   OH266849   5.342   2.635  12.092  0.8652  0.0730 -0.1436
15145TIP3    H166850   5.346   2.558  12.148 -0.7739 -0.2751 -0.4586
15145TIP3    H266851   5.394   2.612  12.015  3.6725  0.7848  1.3931
15146TIP3   OH266852   3.532   4.286  11.493 -0.1827 -0.4046  0.0112
15146TIP3    H166853   3.522   4.195  11.522  1.7086 -0.4877  0.5014
15146TIP3    H266854   3.447   4.326  11.511 -0.6757 -1.7851  0.8784
15147TIP3   OH266855   3.652   1.055   0.194 -0.1337 -0.4663 -0.0056
15147TIP3    H166856   3.714   1.104   0.248  1.0318  0.3903 -1.9849
15147TIP3    H266857   3.650   0.968   0.232  0.9675 -0.0243  1.1320
15148TIP3   OH266858   5.010   3.773   4.156  0.0558  0.7030  0.3295
15148TIP3    H166859   5.031   3.680   4.151 -0.7889  0.5374 -0.2096
15148TIP3    H266860   5.077   3.809   4.215  1.7787  0.1845 -1.2183
15149TIP3   OH266861   1.504   0.837   0.719  0.4356 -0.5648  0.7385
15149TIP3    H166862   1.561   0.887   0.660 -0.0357 -0.7373  0.1231
15149TIP3    H266863   1.524   0.870   0.806  0.4434  0.3911  0.3859
15150TIP3   OH266864   0.305   2.946  11.226 -0.1970 -0.4761 -0.4142
15150TIP3    H166865   0.275   2.929  11.315  0.5113  0.3841  0.0097
15150TIP3    H266866   0.399   2.961  11.235 -0.3793  1.2772 -1.0425
15151TIP3   OH266867   4.634   1.751  12.561  0.1773 -0.2322  0.1945
15151TIP3    H166868   4.706   1.749  12.624  0.4694 -2.4666 -0.1111
15151TIP3    H266869   4.667   1.701  12.486 -1.3370 -0.4540 -0.3513
15152TIP3   OH266870   5.672   0.681  12.041 -0.1000 -0.1125 -0.6333
15152TIP3    H166871   5.618   0.616  11.996 -0.6422  0.4873 -0.8787
15152TIP3    H266872   5.696   0.743  11.973 -0.3520  0.4350 -0.2322
15153TIP3   OH266873   2.286   0.620  16.100  0.0654  0.4866  0.9759
15153TIP3    H166874   2.289   0.525  16.101 -0.5242  0.4035 -1.2882
15153TIP3    H266875   2.193   0.641  16.093  0.3129  0.9854 -3.8908
15154TIP3   OH266876   3.527   2.440  15.988 -0.7462  0.0527  0.6089
15154TIP3    H166877   3.502   2.479  16.072  0.5507  0.3873  0.8683
15154TIP3    H266878   3.460   2.469  15.926 -1.5419  0.0622  1.4577
15155TIP3   OH266879   2.542   4.048  14.273  0.0291 -0.4307  0.5309
15155TIP3    H166880   2.626   4.014  14.304  0.1779  1.5907  2.5956
15155TIP3    H266881   2.483   4.035  14.346 -0.4746  1.5375  0.5240
15156TIP3   OH266882   3.176   6.201  14.455  0.7688  0.3560 -0.1587
15156TIP3    H166883   3.251   6.182  14.399  0.1210  0.1067 -0.9560
15156TIP3    H266884   3.104   6.152  14.416  0.9283 -2.3861  2.6190
15157TIP3   OH266885   4.233   4.439   1.512 -0.0129  0.3830 -0.6092
15157TIP3    H166886   4.307   4.449   1.452  0.7831  0.7906  0.4079
15157TIP3    H266887   4.262   4.483   1.593 -1.4238  0.6830 -0.2455
15158TIP3   OH266888   0.739   0.289  15.656  0.4209  0.1047  0.3409
15158TIP3    H166889   0.690   0.261  15.733 -1.5929  1.0806 -0.5337
15158TIP3    H266890   0.743   0.211  15.601  1.6458 -0.5264  1.2626
15159TIP3   OH266891   5.183   5.286  15.488 -0.0458  0.3156  0.4928
15159TIP3    H166892   5.114   5.292  15.422 -0.3640 -2.1655  0.5001
15159TIP3    H266893   5.264   5.301  15.439 -0.4442  1.3110  0.1151
15160TIP3   OH266894   1.519   3.625   5.424 -0.1259  0.0186  0.3684
15160TIP3    H166895   1.527   3.650   5.516  0.9554 -0.6439  0.4823
15160TIP3    H266896   1.552   3.701   5.375  1.0119 -0.2852  0.6208
15161TIP3   OH266897   2.633   3.777   0.663 -0.2097 -0.0574 -0.5377
15161TIP3    H166898   2.607   3.860   0.622 -1.3145 -0.2978 -0.3582
15161TIP3    H266899   2.618   3.792   0.757  1.6734  0.2673 -0.2565
15162TIP3   OH266900   0.746   0.934   5.532  0.1558  0.1983  0.6153
15162TIP3    H166901   0.777   1.013   5.575 -1.0691  0.7998  0.4277
15162TIP3    H266902   0.725   0.874   5.603 -0.3076  0.5844  0.8052
15163TIP3   OH266903   6.456   0.544  12.287 -0.1146  0.2159  0.3643
15163TIP3    H166904   6.542   0.521  12.324  0.0753 -1.2883 -0.8817
15163TIP3    H266905   6.425   0.616  12.341  0.8582 -0.8016  2.3839
15164TIP3   OH266906   5.454   4.138   1.925 -0.6447  0.3147  0.1608
15164TIP3    H166907   5.446   4.062   1.984 -0.9422  0.7863  0.7467
15164TIP3    H266908   5.495   4.103   1.846 -3.5796 -1.1529 -0.8573
15165TIP3   OH266909   1.042   5.796  15.398 -0.3787  0.3523  0.0459
15165TIP3    H166910   0.954   5.794  15.360  0.4546 -2.4745 -2.0962
15165TIP3    H266911   1.094   5.847  15.337 -0.2569  1.0393  0.7052
15166TIP3   OH266912   0.407   6.392  12.470 -0.3745  0.2637 -0.1476
15166TIP3    H166913   0.358   6.459  12.519  1.5835  1.9915 -0.3878
15166TIP3    H266914   0.430   6.436  12.388  2.3141 -0.0844  0.3420
15167TIP3   OH266915   1.349   2.398  14.196 -0.1020  0.1576 -0.1587
15167TIP3    H166916   1.419   2.463  14.194 -0.7773  0.8914 -0.5186
15167TIP3    H266917   1.395   2.313  14.198  0.8329  0.5208 -2.7702
15168TIP3   OH266918   3.118   5.318  10.916  0.0985  0.0631 -0.4986
15168TIP3    H166919   3.123   5.329  10.822 -0.2351 -1.5011 -0.7409
15168TIP3    H266920   3.078   5.231  10.927  1.5831 -0.4747  1.0662
15169TIP3   OH266921   5.674   4.502   3.102  0.0100 -0.3881 -0.5167
15169TIP3    H166922   5.618   4.425   3.108  1.7348 -1.7227 -0.8013
15169TIP3    H266923   5.691   4.527   3.193  0.2166 -0.9396 -0.3994
15170TIP3   OH266924   3.830   1.013  15.605  0.4377 -0.6565 -0.3192
15170TIP3    H166925   3.846   1.107  15.594  1.6155 -0.7353  0.5284
15170TIP3    H266926   3.917   0.973  15.597  0.3898 -1.3701  2.0794
15171TIP3   OH266927   6.361   4.980   3.149 -0.0701  0.4585  0.0494
15171TIP3    H166928   6.293   4.966   3.083  1.3179 -1.1932 -1.1018
15171TIP3    H266929   6.349   5.071   3.176 -2.0291  0.5383 -0.9229
15172TIP3   OH266930   1.207   3.450  11.371 -0.1535 -0.3258 -0.5591
15172TIP3    H166931   1.188   3.377  11.311  0.0152 -0.3722 -0.5578
15172TIP3    H266932   1.300   3.468  11.358  0.2885 -1.4067  0.8631
15173TIP3   OH266933   2.454   2.709   0.136 -0.8521  0.4861  0.2349
15173TIP3    H166934   2.394   2.761   0.083 -2.1321 -0.9405  0.1899
15173TIP3    H266935   2.540   2.725   0.098 -1.5204  0.7921 -1.2319
15174TIP3   OH266936   1.459   5.850  12.797  0.0934  0.2216  0.3520
15174TIP3    H166937   1.412   5.796  12.861 -0.1063  0.1485  0.1463
15174TIP3    H266938   1.497   5.922  12.848 -0.4135  0.3930  0.4869
15175TIP3   OH266939   6.243   6.150  15.433  0.0032 -0.4743 -0.0404
15175TIP3    H166940   6.275   6.095  15.362 -0.9719 -0.9107 -0.1592
15175TIP3    H266941   6.277   6.238  15.413  2.2467 -1.1310  0.5774
15176TIP3   OH266942   4.864   3.161   0.129  0.0817 -0.5623 -0.0128
15176TIP3    H166943   4.806   3.159   0.205  1.7089 -0.0530  1.3044
15176TIP3    H266944   4.844   3.244   0.086 -1.4704 -1.2520 -0.6829
15177TIP3   OH266945   4.283   1.772  16.681 -0.3011  0.2352  0.3707
15177TIP3    H166946   4.352   1.781  16.615 -0.2456  0.4396  0.4565
15177TIP3    H266947   4.260   1.862  16.703 -1.3536  0.1898 -0.4517
15178TIP3   OH266948   0.540   0.406  12.343 -0.1045 -0.0462  0.3026
15178TIP3    H166949   0.528   0.442  12.431  0.9126  0.3123  0.3130
15178TIP3    H266950   0.609   0.460  12.305 -1.0017  0.2411 -0.9742
15179TIP3   OH266951   4.221   2.552   5.885  0.1554 -0.0664 -0.0572
15179TIP3    H166952   4.137   2.551   5.840 -0.2812  0.7554  0.7077
15179TIP3    H266953   4.247   2.460   5.889 -1.1674 -0.4398  0.5352
15180TIP3   OH266954   5.815   6.532   4.635 -0.0474 -0.2494  0.0462
15180TIP3    H166955   5.778   6.516   4.722 -2.8764  0.2488 -0.9735
15180TIP3    H266956   5.744   6.574   4.586  1.6342 -0.0499 -2.3666
15181TIP3   OH266957   3.069   6.660   4.149 -0.0846  0.0170  0.0413
15181TIP3    H166958   3.057   6.691   4.059  0.5012 -0.7790 -0.3307
15181TIP3    H266959   3.082   6.740   4.200  0.0348  0.4640 -0.6622
15182TIP3   OH266960   0.454   1.255  16.086  0.2134 -0.0707 -0.4165
15182TIP3    H166961   0.427   1.164  16.099  1.0919 -0.9525 -3.6721
15182TIP3    H266962   0.549   1.250  16.075  0.3935  1.3964  0.3495
15183TIP3   OH266963   0.560   0.670  15.914 -0.3952  0.5957 -0.3650
15183TIP3    H166964   0.613   0.621  15.851  0.6012  0.4348  0.5650
15183TIP3    H266965   0.471   0.637  15.901 -0.2146  0.5298 -1.6378
15184TIP3   OH266966   0.757   5.503   3.734  0.1334 -0.0706 -0.2691
15184TIP3    H166967   0.717   5.557   3.666 -1.0695 -0.7317 -0.1187
15184TIP3    H266968   0.707   5.523   3.813  2.3445  1.6898  0.8094
15185TIP3   OH266969   5.008   1.534   2.631 -1.1772  0.2239  0.2765
15185TIP3    H166970   4.922   1.574   2.643 -2.3328 -1.7757 -0.7344
15185TIP3    H266971   5.009   1.506   2.539  0.7296  0.5550  0.1560
15186TIP3   OH266972   4.523   1.359  14.662 -0.6172  0.2542 -0.4024
15186TIP3    H166973   4.550   1.420  14.730 -0.1224 -0.3184 -0.0789
15186TIP3    H266974   4.454   1.406  14.614  0.1208  1.2724 -0.5047
15187TIP3   OH266975   6.588   5.975  12.290  0.0424 -0.1754 -0.8171
15187TIP3    H166976   6.670   5.989  12.244  0.4262  0.3829  0.0160
15187TIP3    H266977   6.595   6.028  12.369 -1.9018  1.4307 -1.6229
15188TIP3   OH266978   3.278   1.938   2.796 -0.0950  0.1416  0.1957
15188TIP3    H166979   3.199   1.921   2.744 -2.1075 -0.8017  3.2806
15188TIP3    H266980   3.282   2.033   2.804 -1.1691  0.1923  0.2882
15189TIP3   OH266981   1.329   4.131   1.320 -0.1744 -0.6412  0.0710
15189TIP3    H166982   1.234   4.123   1.314 -0.0829 -1.5515 -0.3351
15189TIP3    H266983   1.348   4.120   1.414 -0.6205  1.6228  0.4743
15190TIP3   OH266984   4.443   6.089  15.504  0.6849 -0.4285 -0.1819
15190TIP3    H166985   4.506   6.146  15.550  0.6313  1.2590 -2.0305
15190TIP3    H266986   4.387   6.055  15.573 -1.0813  4.0302  0.9735
15191TIP3   OH266987   2.582   4.550  14.458 -0.3855 -0.0389 -0.3887
15191TIP3    H166988   2.633   4.627  14.484 -0.8839  0.0118  0.4573
15191TIP3    H266989   2.504   4.553  14.513 -1.7350  0.3234 -2.1974
15192TIP3   OH266990   2.916   4.619   6.352  0.4505  0.2962  0.4519
15192TIP3    H166991   2.917   4.691   6.415 -0.1154  0.0312  0.7796
15192TIP3    H266992   3.006   4.587   6.351  0.6910  0.9539  0.3585
15193TIP3   OH266993   4.612   3.621   2.172 -0.2139  0.5472  0.3091
15193TIP3    H166994   4.602   3.539   2.125 -0.9566  0.9488 -0.2452
15193TIP3    H266995   4.704   3.622   2.200 -0.2318 -0.5211  0.4345
15194TIP3   OH266996   4.284   4.069  12.855 -0.1441 -0.3966  0.7189
15194TIP3    H166997   4.222   4.050  12.925 -0.9101 -1.4137 -0.2138
15194TIP3    H266998   4.320   3.984  12.830 -1.8281 -0.4601 -1.8932
15195TIP3   OH266999   1.988   1.268   1.891 -0.1106  0.7671  0.3544
15195TIP3    H167000   1.956   1.358   1.901 -0.4403  0.6283  0.5568
15195TIP3    H267001   2.045   1.272   1.814  1.6132  1.6064  1.5923
15196TIP3   OH267002   2.252   0.804   2.873  0.4852  0.7145 -0.0602
15196TIP3    H167003   2.287   0.783   2.786 -1.3563 -0.4528 -0.5583
15196TIP3    H267004   2.305   0.752   2.933  1.8741  1.6411 -0.4150
15197TIP3   OH267005   4.316   2.959  13.688  0.4620 -0.0469  0.1006
15197TIP3    H167006   4.374   2.939  13.762  0.4463  1.0954  0.4366
15197TIP3    H267007   4.308   2.876  13.641  1.0500 -0.6164  0.9766
15198TIP3   OH267008   4.994   5.578   2.433 -0.1739 -0.0361 -0.6046
15198TIP3    H167009   4.936   5.532   2.493 -0.6055  1.5563  0.2676
15198TIP3    H267010   4.948   5.576   2.349 -0.1509 -1.2038 -0.6038
15199TIP3   OH267011   3.381   3.798  10.397 -0.0251 -0.7855 -0.0040
15199TIP3    H167012   3.322   3.870  10.376  0.8359 -0.0011  0.2063
15199TIP3    H267013   3.348   3.763  10.479  0.4036  0.3293  0.6591
15200TIP3   OH267014   5.193   6.325   2.696 -0.5265  0.3880  0.8802
15200TIP3    H167015   5.192   6.234   2.725  1.4873  0.4312  1.1819
15200TIP3    H267016   5.266   6.365   2.743 -0.1686  1.6722 -0.6974
15201TIP3   OH267017   3.402   6.159  14.017  0.3419  0.3936 -0.0970
15201TIP3    H167018   3.392   6.151  13.922  1.0198  0.2854 -0.1658
15201TIP3    H267019   3.496   6.171  14.030  0.2535  0.4040  0.5625
15202TIP3   OH267020   0.399   6.597  16.747  0.2656  0.0225  0.3986
15202TIP3    H167021   0.488   6.568  16.767  0.8225 -0.1388 -2.0056
15202TIP3    H267022   0.403   6.693  16.750  0.2723  0.0033  1.1701
15203TIP3   OH267023   0.022   6.680   1.676  0.3337 -0.0853  0.0751
15203TIP3    H167024   0.005   6.740   1.749 -1.4316 -0.8011  0.3010
15203TIP3    H267025   0.001   6.593   1.711  0.8868 -0.6120 -0.8586
15204TIP3   OH267026   2.195   5.802   5.436 -0.0073  0.7927 -0.1107
15204TIP3    H167027   2.222   5.726   5.487 -0.7665 -0.1488 -1.0825
15204TIP3    H267028   2.132   5.847   5.493 -0.9171 -0.2981 -0.2140
15205TIP3   OH267029   5.854   4.439  12.889  0.3859 -0.0678 -0.1377
15205TIP3    H167030   5.839   4.533  12.898  1.5864  0.0666  0.6305
15205TIP3    H267031   5.767   4.402  12.872  0.1496  1.3772 -2.4342
15206TIP3   OH267032   5.082   3.834   2.561 -0.5387 -0.0638 -0.5041
15206TIP3    H167033   5.055   3.742   2.565 -0.8467  0.0591  1.2888
15206TIP3    H267034   5.016   3.875   2.505 -2.2427 -0.4110  1.1185
15207TIP3   OH267035   3.047   0.998   5.534 -0.1302  0.2706  0.2631
15207TIP3    H167036   3.140   0.975   5.525  0.2837  2.3449 -1.3280
15207TIP3    H267037   3.027   0.976   5.625  1.9922  0.0617  0.7501
15208TIP3   OH267038   5.215   4.086   3.658  0.0209 -0.3932 -0.8244
15208TIP3    H167039   5.177   3.998   3.660 -0.0589 -0.4158  2.1551
15208TIP3    H267040   5.175   4.130   3.733  2.8691  0.8785  0.0830
15209TIP3   OH267041   0.717   2.119  11.796 -0.0647 -0.1302 -0.1365
15209TIP3    H167042   0.672   2.076  11.723  1.0518 -1.8032  0.1065
15209TIP3    H267043   0.714   2.212  11.774  0.6734 -0.5997 -2.6003
15210TIP3   OH267044   1.685   2.718   5.578 -0.2554  0.1925 -0.4624
15210TIP3    H167045   1.751   2.665   5.622 -0.0229  0.4044 -0.5587
15210TIP3    H267046   1.636   2.759   5.649 -0.5063 -0.2362 -0.3853
15211TIP3   OH267047   4.576   4.575  16.338  0.0860 -0.0678 -0.8586
15211TIP3    H167048   4.490   4.564  16.379 -0.4284 -5.6558 -2.5801
15211TIP3    H267049   4.638   4.559  16.409 -0.6215 -2.5991 -0.6960
15212TIP3   OH267050   1.172   0.154  16.994 -0.9574 -0.1508 -0.2076
15212TIP3    H167051   1.254   0.187  16.956 -0.5905  0.4875  1.0785
15212TIP3    H267052   1.169   0.062  16.968 -0.2521  0.0336 -0.9728
15213TIP3   OH267053   1.729   4.754   0.572 -0.1222  0.2013  0.5912
15213TIP3    H167054   1.719   4.722   0.482  0.6597 -0.0914  0.5983
15213TIP3    H267055   1.700   4.680   0.626  0.6777 -0.1247  0.5910
15214TIP3   OH267056   6.425   2.906   1.991  0.3660  0.6436  0.0490
15214TIP3    H167057   6.372   2.857   2.054 -0.7570 -1.3494 -2.3240
15214TIP3    H267058   6.485   2.842   1.955  1.3409  1.8689 -0.5740
15215TIP3   OH267059   6.018   0.204  15.545  0.0035  0.2599  0.1934
15215TIP3    H167060   6.051   0.118  15.573 -2.2081 -1.1254 -1.1227
15215TIP3    H267061   5.936   0.184  15.499  0.1067  2.9880 -1.3658
15216TIP3   OH267062   0.955   3.967  15.328  0.4194  0.8192  0.1510
15216TIP3    H167063   0.949   4.062  15.315 -0.5913  1.0195  1.7785
15216TIP3    H267064   0.942   3.955  15.422  0.0497 -0.9811 -0.1004
15217TIP3   OH267065   2.472   4.637   5.627  0.3954  0.5750  0.4316
15217TIP3    H167066   2.505   4.609   5.712  0.6580  2.7614  1.1122
15217TIP3    H267067   2.524   4.588   5.563  2.8837  1.6905  1.4938
15218TIP3   OH267068   5.577   4.688   4.708 -0.2851 -0.4497  0.0569
15218TIP3    H167069   5.647   4.671   4.771 -1.3824 -2.1314  0.8961
15218TIP3    H267070   5.580   4.613   4.649 -0.9027 -0.1444 -0.3639
15219TIP3   OH267071   1.429   3.508  13.312  0.1373 -0.5983 -0.3370
15219TIP3    H167072   1.472   3.549  13.237  1.0016  2.3602  1.5956
15219TIP3    H267073   1.344   3.479  13.279  0.4670  0.6557 -2.4329
15220TIP3   OH267074   5.659   2.998  14.178  0.1430  0.1643  0.1802
15220TIP3    H167075   5.687   2.907  14.167  0.0717  0.1215  0.3399
15220TIP3    H267076   5.690   3.022  14.266 -1.5927 -0.3625  0.9737
15221TIP3   OH267077   2.798   6.024   0.724  0.2498 -0.2924  0.5058
15221TIP3    H167078   2.711   5.996   0.695  0.1427  0.0081  0.5396
15221TIP3    H267079   2.853   5.947   0.710  0.0643 -0.3531  0.0966
15222TIP3   OH267080   1.008   5.270   2.771 -0.9120 -0.4963  0.5158
15222TIP3    H167081   1.002   5.354   2.725  0.8943 -0.3083  0.5727
15222TIP3    H267082   1.002   5.204   2.701 -1.1350 -0.2983  0.3449
15223TIP3   OH267083   0.030   1.707   6.312 -0.0663 -0.2910 -0.2471
15223TIP3    H167084   0.102   1.646   6.323  0.0612 -0.6235 -2.4572
15223TIP3    H267085  -0.048   1.656   6.334  0.3063  0.1558  2.4453
15224TIP3   OH267086   0.233   5.839  14.576 -0.0123  0.6557 -0.0248
15224TIP3    H167087   0.145   5.810  14.551 -0.7404  0.4925  2.5341
15224TIP3    H267088   0.241   5.926  14.536 -0.6882  0.0615 -1.5751
15225TIP3   OH267089   3.928   4.373   0.090 -0.0305 -0.0068  0.2469
15225TIP3    H167090   3.977   4.394   0.011 -0.2496 -1.8360 -0.4386
15225TIP3    H267091   3.880   4.453   0.111  0.2979  0.6255 -1.2775
15226TIP3   OH267092   1.424   2.103  12.017  0.4471 -0.0188  0.5429
15226TIP3    H167093   1.410   2.112  12.111 -1.1015 -1.6325  0.5077
15226TIP3    H267094   1.476   2.024  12.008  2.8741  1.5085  0.1324
15227TIP3   OH267095   1.609   1.962  10.623  0.2268 -0.1638  0.1365
15227TIP3    H167096   1.650   1.893  10.572  1.1768 -0.5558  1.3784
15227TIP3    H267097   1.644   2.043  10.585  1.2039 -0.4570  0.3724
15228TIP3   OH267098   3.453   4.986  15.564 -0.0432 -0.3075 -0.0228
15228TIP3    H167099   3.541   5.006  15.533 -0.0560  1.8741  1.1086
15228TIP3    H267100   3.395   5.021  15.496 -0.0338  0.2492  0.2486
15229TIP3   OH267101   5.973   6.233   3.826 -0.0760  0.3914 -0.7574
15229TIP3    H167102   5.930   6.176   3.762  0.8166 -0.1438 -0.9073
15229TIP3    H267103   6.000   6.174   3.896 -1.2307  1.0014  0.2522
15230TIP3   OH267104   2.155   1.362   5.520  0.5853  0.2767  0.3972
15230TIP3    H167105   2.145   1.373   5.615  1.6053  1.8557  0.3636
15230TIP3    H267106   2.146   1.450   5.485 -0.0601 -0.3259 -1.0305
15231TIP3   OH267107   0.533   5.191  14.790  0.9119 -0.3882 -0.5239
15231TIP3    H167108   0.603   5.126  14.791  1.2863  0.0044 -0.6487
15231TIP3    H267109   0.562   5.257  14.854 -1.1043 -2.0281  2.3058
15232TIP3   OH267110   4.515   6.187   3.015 -0.1234 -0.1256 -0.6627
15232TIP3    H167111   4.517   6.098   2.981  0.3000 -0.3351 -0.1142
15232TIP3    H267112   4.460   6.181   3.093  1.3161 -0.3083  0.3969
15233TIP3   OH267113   1.165   4.640  16.135  0.1954 -0.2313 -0.3271
15233TIP3    H167114   1.108   4.564  16.133  1.7679 -1.5611  1.4562
15233TIP3    H267115   1.120   4.706  16.082 -3.0094 -1.1287  1.0882
15234TIP3   OH267116   2.901   3.588  12.448 -0.5273 -0.0253 -0.2569
15234TIP3    H167117   2.879   3.630  12.531  0.7705  1.5006 -0.6290
15234TIP3    H267118   2.821   3.592  12.397 -0.2094  3.0535 -0.6624
15235TIP3   OH267119   1.948   1.443  12.691 -0.0757 -0.4300 -0.2325
15235TIP3    H167120   1.894   1.519  12.670 -0.7194 -0.6566  0.5319
15235TIP3    H267121   2.038   1.471  12.674 -0.1959  0.9168  1.1836
15236TIP3   OH267122   6.381   1.872   1.619  0.0040 -0.0564  0.6097
15236TIP3    H167123   6.459   1.817   1.622  0.8954  1.0466 -0.8789
15236TIP3    H267124   6.405   1.951   1.667 -0.6463 -0.2226  1.2189
15237TIP3   OH267125   1.481   3.981  11.491  0.0577  0.1192 -0.0062
15237TIP3    H167126   1.555   4.039  11.475  1.2847 -1.4240 -0.1706
15237TIP3    H267127   1.521   3.898  11.517 -1.5381 -1.2219 -1.5913
15238TIP3   OH267128   5.910   2.334   2.501 -0.0022  0.0478  0.1577
15238TIP3    H167129   5.912   2.252   2.550 -1.8279 -0.2166 -0.1273
15238TIP3    H267130   5.876   2.398   2.564  4.1319  1.4300  1.3603
15239TIP3   OH267131   4.430   6.104   4.840  0.0477 -0.3536  0.2306
15239TIP3    H167132   4.401   6.034   4.898 -1.4271 -0.8118 -0.9668
15239TIP3    H267133   4.438   6.181   4.896 -1.3768 -0.7628  1.0347
15240TIP3   OH267134   5.381   0.308  12.069  0.5074  0.2841  0.1217
15240TIP3    H167135   5.403   0.391  12.027  1.4095  0.1079  0.2207
15240TIP3    H267136   5.293   0.321  12.106  0.0718  0.7280 -1.0443
15241TIP3   OH267137   1.391   0.826  13.300 -0.0663 -0.4637  0.0379
15241TIP3    H167138   1.437   0.864  13.225  0.7046 -0.5416  0.4609
15241TIP3    H267139   1.423   0.736  13.304  0.7893 -0.1370  1.1381
15242TIP3   OH267140   6.715   6.579  13.617  0.0276  0.0312 -0.1455
15242TIP3    H167141   6.798   6.532  13.608 -0.3149 -0.5444 -0.3872
15242TIP3    H267142   6.699   6.616  13.530  0.4732  0.8998  0.1401
15243TIP3   OH267143   1.358   5.026   6.657 -0.2814  0.2494  0.5221
15243TIP3    H167144   1.410   4.956   6.619  0.4211  1.3384 -0.6090
15243TIP3    H267145   1.270   5.012   6.622 -0.0268  0.2314 -0.1234
15244TIP3   OH267146   1.283   1.510  12.468 -0.3414  0.8543  0.2155
15244TIP3    H167147   1.306   1.592  12.510  1.3414  0.6793 -0.2993
15244TIP3    H267148   1.341   1.445  12.508 -2.6726 -0.4316  1.7379
15245TIP3   OH267149   6.764   4.056   5.132 -0.2337  0.3204  0.6615
15245TIP3    H167150   6.789   4.008   5.053 -2.1227  1.0345 -0.4338
15245TIP3    H267151   6.783   4.147   5.112  0.5069  0.3882  1.5767
15246TIP3   OH267152   5.624   6.715  15.987 -0.0882 -0.2212  0.1582
15246TIP3    H167153   5.624   6.657  16.063  0.4201  0.5820  0.7902
15246TIP3    H267154   5.542   6.764  15.994  0.9846  1.4933  1.5139
15247TIP3   OH267155   4.338   1.214  15.515 -0.1071 -0.0507  0.1744
15247TIP3    H167156   4.305   1.296  15.553 -0.8857 -0.4199  0.2995
15247TIP3    H267157   4.406   1.185  15.576  0.3312  0.6121  0.0138
15248TIP3   OH267158   0.942   5.890   4.341 -0.2496 -0.3098 -0.2261
15248TIP3    H167159   0.888   5.851   4.410  0.5343 -2.3610 -0.7106
15248TIP3    H267160   0.880   5.910   4.271 -0.8707  0.6619  0.5742
15249TIP3   OH267161   1.902   2.427   4.436  0.0688 -0.7808 -0.2287
15249TIP3    H167162   1.974   2.486   4.459 -2.3768  1.7187  1.7227
15249TIP3    H267163   1.863   2.467   4.358 -0.7798 -0.5951  0.2859
15250TIP3   OH267164   4.601   4.669   2.067  0.2694  0.5842  0.3535
15250TIP3    H167165   4.628   4.581   2.091 -0.2111 -0.2675 -1.9009
15250TIP3    H267166   4.512   4.677   2.101  0.0310 -0.1298 -0.0704
15251TIP3   OH267167   4.184   1.261  14.030  0.4581  0.3461 -0.4692
15251TIP3    H167168   4.259   1.233  14.083 -0.5635 -0.3830  0.6474
15251TIP3    H267169   4.120   1.191  14.041 -1.1909  1.8967  0.2753
15252TIP3   OH267170   5.710   5.034  12.805 -0.5155 -0.4211  0.0150
15252TIP3    H167171   5.718   5.038  12.900  1.1633 -0.1761 -0.1154
15252TIP3    H267172   5.619   5.058  12.788 -1.0381 -1.1651  1.5901
15253TIP3   OH267173   2.232   1.562   0.116 -0.1355  0.4474  0.1553
15253TIP3    H167174   2.148   1.591   0.151 -1.5090 -0.0761 -2.4430
15253TIP3    H267175   2.217   1.553   0.022  2.7069 -0.1796 -0.3375
15254TIP3   OH267176   4.157   3.998   2.869 -0.0081  0.2913 -0.2932
15254TIP3    H167177   4.241   3.991   2.914 -0.0512  0.0024 -0.2523
15254TIP3    H267178   4.129   3.907   2.856  0.8083  0.2844 -2.4503
15255TIP3   OH267179   1.863   0.902  16.694  0.0764 -0.0571 -0.4602
15255TIP3    H167180   1.813   0.933  16.770 -0.2363 -1.7106  0.0484
15255TIP3    H267181   1.805   0.916  16.620 -0.8765 -1.2302  0.0213
15256TIP3   OH267182   6.021   1.458  15.202 -0.2051  0.1137  0.0656
15256TIP3    H167183   6.003   1.365  15.214 -0.2054  0.0251 -0.5534
15256TIP3    H267184   6.117   1.463  15.197 -0.2435 -0.0906 -1.5160
15257TIP3   OH267185   4.087   0.911   2.133 -0.4852  0.2167  0.4162
15257TIP3    H167186   4.170   0.866   2.149 -0.4231 -0.1237 -0.7659
15257TIP3    H267187   4.038   0.851   2.077 -0.3826  1.6277 -1.2606
15258TIP3   OH267188   1.416   4.061   0.512 -0.2405  0.4241  0.3527
15258TIP3    H167189   1.413   4.152   0.541 -0.0582  0.9893 -1.2883
15258TIP3    H267190   1.474   4.062   0.436 -2.5847 -0.4696 -1.5996
15259TIP3   OH267191   6.540   0.592  15.049 -0.4333  0.1592 -0.6310
15259TIP3    H167192   6.467   0.650  15.026  0.3365  0.5404 -2.3327
15259TIP3    H267193   6.618   0.646  15.033  0.2614 -0.8843 -0.8215
15260TIP3   OH267194   2.898   6.222  12.258  0.2309 -0.1511  0.2624
15260TIP3    H167195   2.989   6.223  12.228  0.0510  2.0640 -0.3721
15260TIP3    H267196   2.876   6.314  12.273 -2.6795 -0.3045 -2.0858
15261TIP3   OH267197   6.631   1.445  13.235 -0.0566  0.2931 -0.4184
15261TIP3    H167198   6.625   1.469  13.327  0.2563  1.8542 -0.7861
15261TIP3    H267199   6.552   1.394  13.218 -0.0977 -0.0422  0.7117
15262TIP3   OH267200   6.181   5.866  11.892  0.1047 -0.0988 -0.2505
15262TIP3    H167201   6.135   5.930  11.946  1.4659  0.1233  0.6729
15262TIP3    H267202   6.207   5.915  11.814 -1.9534 -0.4468 -1.2320
15263TIP3   OH267203   2.381   2.634   1.401  0.5333  0.4198  0.1769
15263TIP3    H167204   2.372   2.627   1.306  0.6015  0.0687  0.1926
15263TIP3    H267205   2.291   2.645   1.433  0.5934  1.4016  0.0105
15264TIP3   OH267206   0.119   5.250   4.908  0.4577  0.2717  0.5233
15264TIP3    H167207   0.149   5.284   4.992 -2.6385  1.8555  1.1546
15264TIP3    H267208   0.123   5.155   4.919 -0.6962  0.4017  2.8865
15265TIP3   OH267209   4.293   4.200  16.058  0.2023  0.2338  0.2076
15265TIP3    H167210   4.224   4.134  16.053 -0.5992  0.8115  2.4165
15265TIP3    H267211   4.282   4.253  15.979 -1.7418  0.1486  0.3718
15266TIP3   OH267212   3.272   0.168   5.671 -0.3035  0.6066 -0.5156
15266TIP3    H167213   3.248   0.188   5.581  1.9180  1.0236 -1.0647
15266TIP3    H267214   3.259   0.074   5.680  4.5227 -0.5699 -3.0680
15267TIP3   OH267215   0.190   4.040  12.108 -0.3434 -0.1610 -0.0231
15267TIP3    H167216   0.223   3.958  12.073 -0.5905  0.2454 -1.2739
15267TIP3    H267217   0.206   4.035  12.202  4.6127  0.5434 -0.5295
15268TIP3   OH267218   4.098   3.118   1.401 -0.2348 -0.0074  0.6388
15268TIP3    H167219   4.097   3.126   1.496 -2.0244 -1.5568  0.8012
15268TIP3    H267220   4.032   3.052   1.381 -0.7194  1.0770 -1.7602
15269TIP3   OH267221   5.885   3.352   3.142 -0.3421 -0.1162 -0.1016
15269TIP3    H167222   5.944   3.394   3.205  0.7150 -2.3119  0.4718
15269TIP3    H267223   5.860   3.270   3.183  0.4240 -1.6762 -2.5001
15270TIP3   OH267224   4.936   4.428  13.236  0.0703 -0.2198  0.0898
15270TIP3    H167225   5.002   4.434  13.167  0.3468 -1.6199  0.2047
15270TIP3    H267226   4.976   4.475  13.310 -0.2530  1.3313 -0.6784
15271TIP3   OH267227   4.079   2.430   3.281 -0.5227 -0.1051 -0.0063
15271TIP3    H167228   4.131   2.391   3.211  0.9083  0.0044  0.9493
15271TIP3    H267229   4.019   2.360   3.308 -0.8326 -0.2662 -1.0682
15272TIP3   OH267230   5.903   4.750  16.347  0.1605 -0.8307 -0.7579
15272TIP3    H167231   5.934   4.749  16.256  0.3358 -0.1736 -0.7111
15272TIP3    H267232   5.891   4.658  16.369  0.5447 -1.0190 -1.3037
15273TIP3   OH267233   1.167   4.325  12.893 -0.4491 -0.2549  0.2659
15273TIP3    H167234   1.214   4.375  12.826  1.0468  0.5258  1.8224
15273TIP3    H267235   1.096   4.383  12.921 -0.4745 -0.1867  0.0631
15274TIP3   OH267236   3.460   1.030  12.657  0.2653 -0.5638 -0.0041
15274TIP3    H167237   3.466   1.122  12.629  0.4415 -0.6805 -0.3537
15274TIP3    H267238   3.368   1.007  12.643 -0.5145  0.4162  2.8121
15275TIP3   OH267239   4.022   0.479   5.811 -0.2611 -0.0164  0.4562
15275TIP3    H167240   4.024   0.523   5.896 -2.5755 -1.1398  1.1701
15275TIP3    H267241   3.947   0.517   5.766 -0.9729 -1.6466  0.2189
15276TIP3   OH267242   1.274   2.228  13.626  0.0606  0.5558  0.0100
15276TIP3    H167243   1.191   2.261  13.593  0.0214 -0.1387 -0.6137
15276TIP3    H267244   1.250   2.163  13.692  0.1127  0.6694  0.1406
15277TIP3   OH267245   1.154   5.381  14.561 -0.1892 -0.5505  0.0345
15277TIP3    H167246   1.210   5.367  14.637 -2.1467 -3.6673  1.0981
15277TIP3    H267247   1.169   5.303  14.506 -1.5599 -0.1866 -0.9123
15278TIP3   OH267248   6.749   6.756  16.696 -0.3607  0.0435  0.8646
15278TIP3    H167249   6.684   6.749  16.625 -0.5500  0.7568  0.9627
15278TIP3    H267250   6.807   6.681  16.682 -1.3234 -0.7363  0.8981
15279TIP3   OH267251   6.051   0.992   1.078 -0.4913 -0.2407 -0.3243
15279TIP3    H167252   6.042   1.083   1.051  4.8244  0.0602 -2.3108
15279TIP3    H267253   6.053   0.942   0.995 -1.7703 -2.0100  0.6381
15280TIP3   OH267254   6.522   0.394  16.337 -0.0731 -0.0006 -0.3153
15280TIP3    H167255   6.572   0.334  16.392 -1.8583 -1.0549  0.2504
15280TIP3    H267256   6.581   0.418  16.266  0.8400 -2.1118 -0.3332
15281TIP3   OH267257   3.124   0.421  15.568  0.1783 -0.4621  0.0272
15281TIP3    H167258   3.217   0.425  15.592 -0.2780  0.7338  1.7370
15281TIP3    H267259   3.091   0.510  15.581 -0.7256 -0.2780 -2.8435
15282TIP3   OH267260   5.924   0.393  12.255  1.2961 -0.7747 -0.1073
15282TIP3    H167261   5.850   0.353  12.301  1.8416 -0.4552  1.0716
15282TIP3    H267262   5.906   0.487  12.258  1.4811 -0.7322 -0.3034
15283TIP3   OH267263   3.886   2.611  16.183 -0.2795  0.2127 -0.6017
15283TIP3    H167264   3.886   2.627  16.278 -0.2535 -0.1922 -0.5310
15283TIP3    H267265   3.967   2.651  16.152  1.3043 -2.3113  0.0158
15284TIP3   OH267266   0.928   0.237   6.321  0.3368  0.2857 -0.2642
15284TIP3    H167267   1.010   0.284   6.334  0.2364  1.0104 -1.9419
15284TIP3    H267268   0.949   0.168   6.259 -0.6469  1.6259 -2.1859
15285TIP3   OH267269   2.562   0.998   4.733 -0.3351 -0.0776  0.5580
15285TIP3    H167270   2.614   1.073   4.703 -1.3009  1.8503  3.3412
15285TIP3    H267271   2.492   0.990   4.668  0.4885  0.5575 -0.4541
15286TIP3   OH267272   5.551   6.612  10.727  0.3282 -0.4743  0.3744
15286TIP3    H167273   5.571   6.643  10.639  0.3035 -0.7413  0.2728
15286TIP3    H267274   5.620   6.649  10.782 -0.7030  1.2529  0.5742
15287TIP3   OH267275   4.332   4.862   4.754 -1.0637 -0.2453  0.1946
15287TIP3    H167276   4.367   4.951   4.761 -0.7949 -0.3980  0.8784
15287TIP3    H267277   4.240   4.870   4.779 -1.9196  0.3615 -2.7104
15288TIP3   OH267278   0.998   5.303  11.473  0.4207 -0.2265 -0.3140
15288TIP3    H167279   0.940   5.244  11.522 -1.4516  1.4069 -0.4369
15288TIP3    H267280   1.006   5.263  11.387 -2.2326  0.4599 -0.9661
15289TIP3   OH267281   1.294   2.788  15.800 -0.2297 -0.2056  0.0388
15289TIP3    H167282   1.257   2.714  15.750  2.4107 -1.9351  0.4634
15289TIP3    H267283   1.368   2.817  15.748 -0.8247  1.7774  0.2324
15290TIP3   OH267284   0.894   3.272  13.921 -0.1346  0.1243 -0.4568
15290TIP3    H167285   0.983   3.274  13.884 -0.8703 -2.5421 -2.7745
15290TIP3    H267286   0.839   3.312  13.854 -0.9995 -0.8924 -0.3852
15291TIP3   OH267287   1.065   3.438   3.553 -0.6962 -0.8672 -0.5957
15291TIP3    H167288   1.084   3.527   3.525 -2.2067 -0.5410 -0.6704
15291TIP3    H267289   1.145   3.409   3.597  0.4728 -0.1454 -2.1587
15292TIP3   OH267290   4.724   2.072   1.233  0.0747  0.0283  0.4640
15292TIP3    H167291   4.815   2.046   1.217  0.1317  0.0593  0.7206
15292TIP3    H267292   4.708   2.143   1.171  0.4817  0.5593  0.9425
15293TIP3   OH267293   2.227   1.607  15.669 -0.2587 -0.0292 -0.0143
15293TIP3    H167294   2.247   1.636  15.758 -0.8149  1.2770 -0.2998
15293TIP3    H267295   2.312   1.607  15.624  0.1633 -1.4985  0.7052
15294TIP3   OH267296   1.786   0.743  12.150  0.8094  0.4288  0.0806
15294TIP3    H167297   1.756   0.827  12.183 -1.2116 -0.3501  0.3960
15294TIP3    H267298   1.817   0.696  12.228 -2.7615 -0.9244  0.8738
15295TIP3   OH267299   2.325   1.264  16.479  0.1315 -0.2789 -0.0373
15295TIP3    H167300   2.317   1.194  16.543  0.5897  0.7138  1.1398
15295TIP3    H267301   2.398   1.318  16.510 -0.3994  0.8915 -0.7293
15296TIP3   OH267302   2.462   5.040  11.705 -1.0225 -0.1470 -0.6235
15296TIP3    H167303   2.474   4.948  11.728 -1.4912 -0.2332 -0.7212
15296TIP3    H267304   2.472   5.087  11.787 -2.4547 -0.4315 -0.2633
15297TIP3   OH267305   1.123   6.278   4.556 -0.4063 -0.0473 -0.5566
15297TIP3    H167306   1.078   6.196   4.535  0.5674 -0.7289 -0.0913
15297TIP3    H267307   1.117   6.330   4.476 -2.8787  0.3193 -0.1902
15298TIP3   OH267308   5.070   3.980  13.424  0.2602  0.1735  0.5013
15298TIP3    H167309   5.002   4.047  13.417 -0.0833 -0.3067 -1.5023
15298TIP3    H267310   5.031   3.911  13.477 -0.7269  0.0581 -0.3338
15299TIP3   OH267311   4.065   0.613   4.263  0.2048  0.2295  0.8082
15299TIP3    H167312   4.059   0.518   4.277  1.9722 -0.2462 -1.1057
15299TIP3    H267313   4.121   0.645   4.334 -0.9537 -0.0088  1.8606
15300TIP3   OH267314   0.538   0.770   5.989 -0.0020 -0.2930  0.0865
15300TIP3    H167315   0.590   0.826   6.047  1.1786 -0.8649 -0.3841
15300TIP3    H267316   0.466   0.741   6.044 -0.9463  2.0478  0.2115
15301TIP3   OH267317   1.563   3.999   2.686 -0.5332 -0.6438  0.1340
15301TIP3    H167318   1.648   4.041   2.669 -1.0780  0.3071 -0.2721
15301TIP3    H267319   1.502   4.042   2.627 -1.5591 -0.4589  1.2842
15302TIP3   OH267320   0.530   5.216  11.322 -0.5084  0.3128 -0.0181
15302TIP3    H167321   0.455   5.160  11.303 -0.9287  0.1576  1.9175
15302TIP3    H267322   0.606   5.158  11.314 -0.3604  0.7415 -3.2157
15303TIP3   OH267323   5.824   5.655  16.997  0.0573  0.0764  0.7745
15303TIP3    H167324   5.732   5.657  17.022 -0.6751 -2.7894 -1.1308
15303TIP3    H267325   5.856   5.743  17.013 -2.8418  0.9949  2.0877
15304TIP3   OH267326   1.148   4.324  14.611 -0.0193  0.0761 -0.2981
15304TIP3    H167327   1.135   4.244  14.663 -0.7240  0.4723  0.1566
15304TIP3    H267328   1.178   4.293  14.526  0.9735 -0.6012  0.2778
15305TIP3   OH267329   0.825   1.510   1.187  0.6507 -0.3323  0.4878
15305TIP3    H167330   0.911   1.529   1.226  0.3698  1.1333  0.4645
15305TIP3    H267331   0.815   1.576   1.118 -1.1301  0.5094  1.4802
15306TIP3   OH267332   1.143   2.431  10.902  0.6274 -0.5258  0.0499
15306TIP3    H167333   1.145   2.493  10.829  0.4723 -1.0968 -0.4444
15306TIP3    H267334   1.142   2.345  10.860  1.2494 -0.8768  0.7288
15307TIP3   OH267335   6.721   2.093   4.400 -0.1686  0.1212 -0.0777
15307TIP3    H167336   6.796   2.036   4.379 -1.7911 -2.0031 -0.5256
15307TIP3    H267337   6.751   2.181   4.378  2.2328 -0.6204 -0.0961
15308TIP3   OH267338   6.378   4.721  14.076 -0.0374  0.4551  0.7513
15308TIP3    H167339   6.445   4.771  14.030  1.6523 -0.3491  2.2086
15308TIP3    H267340   6.384   4.750  14.167 -3.0247  1.7316  0.6596
15309TIP3   OH267341   0.273   0.201  10.693 -0.1250  0.1837  0.2506
15309TIP3    H167342   0.202   0.192  10.629 -0.3852 -0.8766  0.6791
15309TIP3    H267343   0.305   0.291  10.680 -0.5297  0.1673 -0.9912
15310TIP3   OH267344   2.050   0.751   3.544  0.5065  0.2385  0.0527
15310TIP3    H167345   2.133   0.783   3.507  1.1296  1.1233  2.0943
15310TIP3    H267346   2.000   0.830   3.564  0.0128 -0.2239  0.6811
15311TIP3   OH267347   0.111   0.636   4.152 -0.0362 -0.2731 -0.0658
15311TIP3    H167348   0.035   0.662   4.204 -0.5885 -1.5591 -0.2098
15311TIP3    H267349   0.109   0.696   4.077 -0.1216  0.5783  0.5954
15312TIP3   OH267350   4.200   1.362  16.332 -0.6418  0.3464 -0.0882
15312TIP3    H167351   4.180   1.391  16.421 -0.6709  0.1571 -0.0313
15312TIP3    H267352   4.152   1.279  16.323  0.7244 -0.5286  0.3243
15313TIP3   OH267353   5.361   0.018  11.210  1.1765  0.4151 -0.0739
15313TIP3    H167354   5.307   0.093  11.184 -0.2827  0.2701  2.2568
15313TIP3    H267355   5.373  -0.031  11.129 -0.0247  1.8211 -1.1761
15314TIP3   OH267356   1.616   1.001  14.087 -0.0542 -0.0522  0.1269
15314TIP3    H167357   1.535   1.046  14.064 -0.0352  0.1956  0.5395
15314TIP3    H267358   1.668   1.002  14.006  0.2960  1.4207  0.3435
15315TIP3   OH267359   4.275   0.503   4.015  0.6584 -0.6071 -0.4154
15315TIP3    H167360   4.192   0.479   3.975  2.3961 -3.4164 -2.6894
15315TIP3    H267361   4.288   0.439   4.084 -0.0719  1.3069  1.6096
15316TIP3   OH267362   2.960   2.191   2.003  0.1444 -0.2544  0.7132
15316TIP3    H167363   2.880   2.204   1.951 -0.1667 -1.2394  0.9263
15316TIP3    H267364   2.971   2.274   2.050 -0.7610 -0.1113  0.7029
15317TIP3   OH267365   2.614   4.712   6.402  0.4183 -0.0695 -0.0188
15317TIP3    H167366   2.588   4.797   6.369  0.3007 -0.1780 -0.2083
15317TIP3    H267367   2.698   4.727   6.446  1.4033 -0.2164 -1.7558
15318TIP3   OH267368   0.227   5.783  13.366 -0.3185 -0.0218  0.7718
15318TIP3    H167369   0.315   5.815  13.387  0.4678 -0.1172 -2.0548
15318TIP3    H267370   0.170   5.856  13.388  0.9135  1.5115 -0.8031
15319TIP3   OH267371   5.724   2.767   3.829 -0.3557  0.0775 -0.0634
15319TIP3    H167372   5.693   2.708   3.897  0.2213  0.4085  0.5053
15319TIP3    H267373   5.775   2.833   3.877 -0.7394  0.8586 -0.7150
15320TIP3   OH267374   1.437   0.644   2.313  0.2498  0.0354 -0.1728
15320TIP3    H167375   1.466   0.553   2.319  0.4492  0.1638  0.9527
15320TIP3    H267376   1.342   0.639   2.312  0.2675 -0.2266 -0.9543
15321TIP3   OH267377   2.789   5.535  15.484  0.0177 -0.3287 -0.0861
15321TIP3    H167378   2.785   5.629  15.471  0.4836 -0.1448  0.9625
15321TIP3    H267379   2.812   5.499  15.398 -1.9784  0.3354 -0.9367
15322TIP3   OH267380   4.251   4.205   2.734 -0.3482 -0.0446 -0.1703
15322TIP3    H167381   4.341   4.172   2.744  0.2840  0.8457 -2.3482
15322TIP3    H267382   4.198   4.144   2.785  1.4983 -0.4428  1.4139
15323TIP3   OH267383   4.476   5.754   0.691  0.9513 -0.3088 -0.4357
15323TIP3    H167384   4.435   5.825   0.740  0.8570 -0.4774 -0.2695
15323TIP3    H267385   4.404   5.693   0.672  0.7365  0.3227 -1.8271
15324TIP3   OH267386   6.765   0.603   1.860 -0.2064 -0.0578 -0.5090
15324TIP3    H167387   6.685   0.551   1.854 -0.1346 -0.3085  0.5433
15324TIP3    H267388   6.738   0.691   1.834 -2.0053  1.0422  4.1266
15325TIP3   OH267389   0.408   0.524   5.021  1.1222  0.8388 -0.2100
15325TIP3    H167390   0.345   0.471   5.069  1.6205  0.5084  0.0900
15325TIP3    H267391   0.372   0.613   5.024  0.4049  0.5598 -0.5129
15326TIP3   OH267392   1.099   6.658   1.767 -0.4825  0.5247 -0.1708
15326TIP3    H167393   1.136   6.577   1.731  0.2795  0.6516  0.2940
15326TIP3    H267394   1.007   6.656   1.742 -0.6217 -0.7994  0.3855
15327TIP3   OH267395   2.387   6.502  10.676  0.2808  0.2745  0.2565
15327TIP3    H167396   2.354   6.436  10.737  0.0937 -0.9277 -1.0825
15327TIP3    H267397   2.449   6.455  10.622 -0.6262  0.9154 -1.4150
15328TIP3   OH267398   5.300   1.041   5.564 -0.2900 -0.1323  0.0376
15328TIP3    H167399   5.280   0.952   5.592  1.0339 -0.5412 -0.2037
15328TIP3    H267400   5.229   1.094   5.598 -0.6096 -1.1445  1.0141
15329TIP3   OH267401   5.561   4.274   4.818  0.3501 -0.3628  0.2733
15329TIP3    H167402   5.491   4.330   4.852  0.1681 -0.8935  0.7737
15329TIP3    H267403   5.516   4.209   4.765  0.5718  0.0006 -0.3792
15330TIP3   OH267404   5.994   5.339   2.538  0.5965 -0.1153 -0.0991
15330TIP3    H167405   6.034   5.396   2.603  0.8744 -0.9372  0.4761
15330TIP3    H267406   5.971   5.397   2.466 -0.4499  0.9546  1.0554
15331TIP3   OH267407   4.843   5.809  16.456  0.0491 -0.4168 -0.2799
15331TIP3    H167408   4.769   5.859  16.421  1.2281  0.5580 -1.5117
15331TIP3    H267409   4.890   5.779  16.378  1.8426  0.3680  0.4572
15332TIP3   OH267410   3.645   1.165  15.253 -0.0145 -0.5808  0.2154
15332TIP3    H167411   3.725   1.216  15.244  0.0494 -0.2971  2.0722
15332TIP3    H267412   3.644   1.108  15.176 -0.3185  2.4573 -2.2033
15333TIP3   OH267413   6.309   6.523  14.435  0.9561 -0.2210 -0.7252
15333TIP3    H167414   6.274   6.502  14.348 -0.1941  1.7230 -0.7961
15333TIP3    H267415   6.329   6.438  14.474 -3.1584 -1.5410 -1.0075
15334TIP3   OH267416   4.357   2.828   0.540  0.2624  0.4072  0.3351
15334TIP3    H167417   4.443   2.867   0.552  0.5152  0.1754 -0.5831
15334TIP3    H267418   4.340   2.781   0.621  1.9799 -1.3630 -0.2364
15335TIP3   OH267419   5.405   0.015   0.728 -0.7537  0.6600 -0.0108
15335TIP3    H167420   5.473   0.030   0.663 -0.2587 -0.1768  0.2856
15335TIP3    H267421   5.443   0.045   0.811 -0.2229 -0.9735  0.3742
15336TIP3   OH267422   4.545   1.570  11.740 -0.0990 -0.3292  0.4539
15336TIP3    H167423   4.491   1.637  11.782  0.9399  0.0430  1.2300
15336TIP3    H267424   4.629   1.612  11.725  0.1220 -1.0326 -0.3552
15337TIP3   OH267425   0.543   3.977   0.977  0.0346 -0.1495  0.0138
15337TIP3    H167426   0.608   3.913   0.945 -0.1245  0.4169 -1.5235
15337TIP3    H267427   0.468   3.924   1.003  1.0743 -0.8187  1.7991
15338TIP3   OH267428   4.738   3.565  16.695 -0.1232  0.0998  0.0601
15338TIP3    H167429   4.666   3.527  16.645 -0.2903  2.2570 -1.4902
15338TIP3    H267430   4.817   3.540  16.647  0.2867 -2.4559  1.8835
15339TIP3   OH267431   5.607   2.367   4.868  0.4523 -0.0827 -0.0841
15339TIP3    H167432   5.554   2.331   4.797 -0.2472  0.0376  0.3692
15339TIP3    H267433   5.557   2.442   4.900  1.2589  0.4884 -0.1429
15340TIP3   OH267434   3.262   1.565  12.549 -0.2620  0.1195 -0.0113
15340TIP3    H167435   3.217   1.585  12.467  0.1045 -0.7245 -0.4231
15340TIP3    H267436   3.252   1.471  12.560  0.8148  0.0233  0.2388
15341TIP3   OH267437   1.284   5.330  14.790  0.8379  0.0387 -0.0748
15341TIP3    H167438   1.241   5.249  14.818 -1.1597 -0.0735 -2.9898
15341TIP3    H267439   1.292   5.382  14.870  2.0982 -2.8982  1.8926
15342TIP3   OH267440   3.283   6.457   6.037 -0.6362  0.2598  0.5310
15342TIP3    H167441   3.201   6.444   6.085 -0.2160  0.3317  1.2756
15342TIP3    H267442   3.343   6.494   6.101  0.2327 -0.5657  0.2189
15343TIP3   OH267443   0.525   6.160  10.855 -0.4711  0.0040 -0.1880
15343TIP3    H167444   0.524   6.225  10.925 -2.4431 -1.0264  0.8218
15343TIP3    H267445   0.548   6.210  10.777 -0.8497  1.7215  0.7366
15344TIP3   OH267446   2.584   1.035  12.435 -0.1103 -0.3105  0.4009
15344TIP3    H167447   2.597   1.102  12.369  1.0903 -0.0255  0.9077
15344TIP3    H267448   2.546   1.081  12.509 -0.0451 -0.3407  0.4539
15345TIP3   OH267449   2.406   2.008  15.361 -0.0228  0.2850  0.2594
15345TIP3    H167450   2.337   1.989  15.297 -0.3270  0.8923  0.3987
15345TIP3    H267451   2.465   1.934  15.355 -0.8312 -0.3752  0.3293
15346TIP3   OH267452   0.633   3.556   0.624 -0.1209  0.1539  0.2506
15346TIP3    H167453   0.643   3.636   0.573  0.4450 -0.1141 -0.0569
15346TIP3    H267454   0.715   3.509   0.613 -0.4943 -0.5355  0.3277
15347TIP3   OH267455   5.624   2.414  16.251  0.4059 -0.1470  0.3310
15347TIP3    H167456   5.589   2.498  16.280 -0.4658 -0.2601 -0.3550
15347TIP3    H267457   5.567   2.349  16.292  0.1554 -0.3562 -0.3507
15348TIP3   OH267458   0.838   1.708  13.064  0.2995  0.3400 -0.3530
15348TIP3    H167459   0.761   1.695  13.119  1.0273 -2.2748  0.1913
15348TIP3    H267460   0.804   1.704  12.975 -0.3984  0.8416 -0.1213
15349TIP3   OH267461   2.562   1.978  12.400  0.1931 -0.8200 -0.0878
15349TIP3    H167462   2.607   1.894  12.412  1.0175 -0.3690  0.0348
15349TIP3    H267463   2.632   2.039  12.376 -0.4548 -0.2473 -0.5478
15350TIP3   OH267464   0.895   3.643  11.617 -0.2903  0.1965  0.2641
15350TIP3    H167465   0.964   3.600  11.668  0.3622 -0.8225 -1.3797
15350TIP3    H267466   0.871   3.578  11.551 -3.4613  0.1852  1.2576
15351TIP3   OH267467   3.352   1.616   2.693 -0.0328  0.0442 -0.2014
15351TIP3    H167468   3.410   1.690   2.709 -0.4313  0.2559  0.2952
15351TIP3    H267469   3.344   1.572   2.777  1.0744 -1.2277 -0.7330
15352TIP3   OH267470   3.876   1.171   2.560 -0.1733  0.2752 -0.0434
15352TIP3    H167471   3.815   1.098   2.550  0.3110 -0.2666  0.7322
15352TIP3    H267472   3.824   1.243   2.595 -0.2144 -0.4945  1.5925
15353TIP3   OH267473   3.056   3.619   1.480  0.3654  0.4533 -0.6685
15353TIP3    H167474   3.020   3.535   1.451 -1.0862  0.0727  1.9064
15353TIP3    H267475   2.993   3.684   1.448  0.5346  0.3866 -1.1419
15354TIP3   OH267476   6.440   2.998  10.713 -0.2176 -0.4739 -0.0712
15354TIP3    H167477   6.399   3.031  10.793 -1.8373 -0.6909 -0.7646
15354TIP3    H267478   6.388   3.036  10.642  1.8932  0.6459 -1.0993
15355TIP3   OH267479   6.696   0.125   3.105 -0.3674 -0.2884  0.4765
15355TIP3    H167480   6.617   0.178   3.118  0.6202  1.4498 -0.2360
15355TIP3    H267481   6.751   0.144   3.180 -0.7317 -1.7744  1.1553
15356TIP3   OH267482   1.333   5.611   4.532  0.2285 -0.2653  0.0880
15356TIP3    H167483   1.249   5.585   4.568  0.1024 -0.1586 -0.1309
15356TIP3    H267484   1.327   5.593   4.439  0.0242  0.8340 -0.1208
15357TIP3   OH267485   2.483   3.944  10.796 -0.5451 -0.6700  0.3114
15357TIP3    H167486   2.452   3.855  10.781  0.4880 -1.3741  1.9919
15357TIP3    H267487   2.534   3.938  10.877  0.5003  1.2333 -0.1453
15358TIP3   OH267488   0.057   6.212  11.456  0.3604  0.2194  0.1191
15358TIP3    H167489   0.124   6.144  11.451  1.1826  1.0806 -1.8594
15358TIP3    H267490   0.086   6.279  11.394 -1.7224  1.1930  0.0957
15359TIP3   OH267491   0.643   6.678  11.426  0.1120 -0.5350  0.6098
15359TIP3    H167492   0.627   6.583  11.426 -1.3735 -0.3073  0.7090
15359TIP3    H267493   0.556   6.717  11.440  0.7731  0.8336  1.0680
15360TIP3   OH267494   6.153   5.809  15.275 -0.2435 -0.2125 -0.1051
15360TIP3    H167495   6.159   5.808  15.370  1.0668 -1.7436 -0.1544
15360TIP3    H267496   6.224   5.866  15.246  1.1671 -1.9208 -0.1841
15361TIP3   OH267497   2.042   1.813   3.204  0.0619 -0.4977  0.1648
15361TIP3    H167498   1.997   1.816   3.120  0.0006 -2.0873  0.1156
15361TIP3    H267499   1.973   1.803   3.269  0.0069  1.9274  0.5645
15362TIP3   OH267500   5.267   0.674  16.715 -0.2765 -0.1057 -0.1968
15362TIP3    H167501   5.333   0.739  16.689 -0.7538  0.3349 -0.3276
15362TIP3    H267502   5.271   0.607  16.647  1.8784 -1.4597  1.1609
15363TIP3   OH267503   6.801   4.324   5.081 -0.3571  0.0322  0.8817
15363TIP3    H167504   6.894   4.338   5.061 -0.1259  0.2926  2.0434
15363TIP3    H267505   6.790   4.362   5.168 -1.4409 -0.4487  0.9668
15364TIP3   OH267506   1.276   5.286   6.227 -0.3606 -0.1700  0.7790
15364TIP3    H167507   1.214   5.358   6.223  1.6851  1.7007  1.0599
15364TIP3    H267508   1.335   5.309   6.299  1.7393 -0.9047 -0.6094
15365TIP3   OH267509   4.353   6.267  14.356 -0.3543 -0.1973  0.4697
15365TIP3    H167510   4.393   6.257  14.269  1.6607  0.6701  1.2305
15365TIP3    H267511   4.377   6.356  14.383 -3.2106  0.5636  0.8679
15366TIP3   OH267512   3.322   4.443  11.253 -0.2583 -0.2843  0.0335
15366TIP3    H167513   3.407   4.399  11.245 -0.7384 -1.2502  0.0632
15366TIP3    H267514   3.286   4.440  11.164  0.8452  2.5294 -0.6218
15367TIP3   OH267515   3.809   2.471  14.330  0.2876 -0.1411 -0.0053
15367TIP3    H167516   3.803   2.565  14.318 -0.6512 -0.2373 -0.3415
15367TIP3    H267517   3.894   2.458  14.373  0.8966  0.7574 -0.8867
15368TIP3   OH267518   5.978   3.131  13.437 -0.3617 -0.0361 -0.5767
15368TIP3    H167519   5.928   3.053  13.462  0.3673 -0.7863 -1.3881
15368TIP3    H267520   5.913   3.192  13.402 -1.3223  0.7441  2.2836
15369TIP3   OH267521   5.918   4.370  15.599 -0.1975  0.2851  0.1885
15369TIP3    H167522   5.901   4.455  15.558 -2.2643  0.0914  0.5515
15369TIP3    H267523   5.912   4.307  15.527 -0.1765  0.3006  0.1735
15370TIP3   OH267524   3.779   4.753  13.299 -0.1665 -0.6186 -0.1520
15370TIP3    H167525   3.820   4.703  13.229 -0.9669 -1.7151  0.1463
15370TIP3    H267526   3.749   4.688  13.362  0.0933  0.3185  0.9864
15371TIP3   OH267527   0.364   0.627  11.780  0.0144 -0.0091 -0.1729
15371TIP3    H167528   0.339   0.628  11.688  0.8458 -1.1690 -0.4253
15371TIP3    H267529   0.382   0.719  11.801  2.6672 -0.0005 -1.9805
15372TIP3   OH267530   5.624   5.381   0.399 -0.1232 -0.0127 -0.3721
15372TIP3    H167531   5.696   5.365   0.460  0.9975 -1.6341 -1.9981
15372TIP3    H267532   5.546   5.382   0.454  0.8590 -1.0727  1.1422
15373TIP3   OH267533   4.512   3.585  12.548  0.0645 -0.2392 -0.2998
15373TIP3    H167534   4.561   3.668  12.549  0.3876 -0.4296  0.7960
15373TIP3    H267535   4.435   3.604  12.496  0.0979  0.7937  0.0026
15374TIP3   OH267536   2.326   4.922   3.983  0.0882 -0.0710 -0.0781
15374TIP3    H167537   2.353   4.864   4.054  1.6260 -0.0959 -0.6547
15374TIP3    H267538   2.401   4.979   3.968 -0.5217  0.4926 -1.1269
15375TIP3   OH267539   0.122   5.115   1.673  0.3740 -0.1201  0.0590
15375TIP3    H167540   0.122   5.028   1.633  1.3964 -0.6685  1.2075
15375TIP3    H267541   0.037   5.122   1.716  0.1121 -0.3639 -0.4068
15376TIP3   OH267542   6.014   2.512  14.445 -0.1756 -0.1242  0.0293
15376TIP3    H167543   6.024   2.501  14.351  0.7804 -0.7418  0.1948
15376TIP3    H267544   5.927   2.552  14.455 -0.2954 -0.0697 -1.1020
15377TIP3   OH267545   5.751   2.108  13.108  0.1240  0.0879 -0.3153
15377TIP3    H167546   5.729   2.090  13.017  1.0514  2.4590 -1.0792
15377TIP3    H267547   5.733   2.201  13.120 -0.1817 -0.2105  2.0139
15378TIP3   OH267548   3.276   1.266   2.410  0.7101  0.6885  0.1788
15378TIP3    H167549   3.197   1.313   2.436  0.7733  0.8100  0.1555
15378TIP3    H267550   3.293   1.296   2.320 -0.5527 -1.1233 -0.7260
15379TIP3   OH267551   5.046   3.899  15.271  0.2554  0.3620 -0.3857
15379TIP3    H167552   5.012   3.974  15.319 -1.2769 -0.4037 -0.1748
15379TIP3    H267553   5.115   3.864  15.326 -1.6756 -0.6970  1.5465
15380TIP3   OH267554   3.503   4.678   2.726 -0.0634 -0.2488 -0.0537
15380TIP3    H167555   3.474   4.724   2.805 -1.3170  0.3873 -0.8649
15380TIP3    H267556   3.489   4.740   2.655  1.3487 -0.6955 -0.7747
15381TIP3   OH267557   5.446   5.654   2.579 -0.0041 -0.3280  1.0169
15381TIP3    H167558   5.352   5.646   2.593 -0.6069  1.9822 -0.9859
15381TIP3    H267559   5.471   5.734   2.625  0.1770  1.0574 -1.3051
15382TIP3   OH267560   0.544   6.663  15.816  0.3324  0.7824 -0.4348
15382TIP3    H167561   0.621   6.689  15.766  0.6979  1.1016  0.2725
15382TIP3    H267562   0.535   6.569  15.799  0.0857  0.9974 -1.5677
15383TIP3   OH267563   4.851   1.394  11.460  0.3301  0.1351 -0.0796
15383TIP3    H167564   4.843   1.299  11.458 -0.8088  0.2236 -0.2465
15383TIP3    H267565   4.787   1.425  11.396  2.2604  0.9498 -1.7448
15384TIP3   OH267566   0.665   2.863   2.906 -0.4391  0.0329  0.2550
15384TIP3    H167567   0.606   2.829   2.839  1.3591  0.0022 -1.4077
15384TIP3    H267568   0.624   2.944   2.936 -1.0640  0.2872 -1.2269
15385TIP3   OH267569   1.774   4.686  15.865  0.3223  0.7387 -0.3539
15385TIP3    H167570   1.761   4.640  15.782  0.4463  0.6311 -0.3141
15385TIP3    H267571   1.691   4.730  15.881 -0.2144 -0.4575  0.2159
15386TIP3   OH267572   5.765   4.531   6.165 -0.4454 -0.5563 -0.0712
15386TIP3    H167573   5.707   4.457   6.181  0.4526 -1.1347  0.6010
15386TIP3    H267574   5.853   4.493   6.165 -0.0633  0.2692 -1.2456
15387TIP3   OH267575   3.262   0.412   1.610 -0.1966 -0.3181  0.2747
15387TIP3    H167576   3.280   0.319   1.595  0.3074 -0.2333  0.3212
15387TIP3    H267577   3.185   0.413   1.667  0.4750 -0.7439  1.2238
15388TIP3   OH267578   4.269   2.388   1.798  0.4383 -0.1672 -0.1262
15388TIP3    H167579   4.194   2.330   1.808  0.7013 -0.8933 -1.9661
15388TIP3    H267580   4.234   2.466   1.755 -0.1711  1.7278  3.4668
15389TIP3   OH267581   0.640   1.864   4.370  0.1597 -0.1653 -0.7765
15389TIP3    H167582   0.550   1.897   4.370 -0.4246 -1.4816  1.5901
15389TIP3    H267583   0.694   1.941   4.388 -0.4909  0.6081 -2.0514
15390TIP3   OH267584   2.250   4.790  14.979 -0.1382  0.4896 -0.6201
15390TIP3    H167585   2.321   4.731  15.002 -0.4628  0.5225  0.5292
15390TIP3    H267586   2.293   4.861  14.930  0.4317 -0.0592 -0.9336
15391TIP3   OH267587   1.127   5.309  13.143  0.2228  0.6712 -0.6064
15391TIP3    H167588   1.126   5.348  13.231  3.1545 -1.9237  0.7721
15391TIP3    H267589   1.195   5.358  13.097 -0.6461  1.3927 -1.1546
15392TIP3   OH267590   3.877   5.158  13.428  0.4102 -0.3652  0.4978
15392TIP3    H167591   3.951   5.099  13.418  1.4894  0.9206  0.6085
15392TIP3    H267592   3.861   5.161  13.523  1.8196  1.1773  0.7442
15393TIP3   OH267593   6.380   4.328   5.144  0.2248 -0.2175  0.2785
15393TIP3    H167594   6.425   4.382   5.210 -1.7519  1.3167  0.4629
15393TIP3    H267595   6.417   4.241   5.156  3.9398  1.0776 -0.3474
15394TIP3   OH267596   2.216   3.453  16.753 -0.2134 -0.1571  0.3736
15394TIP3    H167597   2.250   3.539  16.729 -2.4921  1.4208  2.2725
15394TIP3    H267598   2.294   3.400  16.769  1.3518  2.2218  1.2719
15395TIP3   OH267599   4.471   1.344   0.736 -0.4039  0.2348  0.6206
15395TIP3    H167600   4.558   1.307   0.721 -0.9576 -0.9423  0.1586
15395TIP3    H267601   4.462   1.347   0.831  0.6835  1.7558  0.7183
15396TIP3   OH267602   2.413   2.908  16.110 -0.2893  0.2269  0.3446
15396TIP3    H167603   2.460   2.907  16.027 -1.1287 -3.3562 -0.2299
15396TIP3    H267604   2.325   2.938  16.088 -0.1159  0.6661  0.2376
15397TIP3   OH267605   0.104   1.677  11.833  0.2962 -0.2110 -0.6937
15397TIP3    H167606   0.143   1.652  11.749  1.4468 -0.1069 -0.2165
15397TIP3    H267607   0.179   1.685  11.892 -0.3262  1.2867 -0.0536
15398TIP3   OH267608   0.669   4.594   4.277  0.5539  0.5395  0.0597
15398TIP3    H167609   0.761   4.588   4.252  0.0479  0.6684 -2.0215
15398TIP3    H267610   0.670   4.593   4.373  2.5682 -1.8463  0.1270
15399TIP3   OH267611   6.811   1.729  13.380 -0.3415  0.2292  0.0807
15399TIP3    H167612   6.865   1.793  13.336  0.0985 -0.4546 -0.3893
15399TIP3    H267613   6.873   1.669  13.421 -0.7459  0.1054  0.5293
15400TIP3   OH267614   1.285   4.940   5.413 -0.2885 -0.2135 -0.7594
15400TIP3    H167615   1.253   4.895   5.334  1.1107 -0.4134 -1.2316
15400TIP3    H267616   1.349   4.881   5.451 -0.3684  0.2353  0.0905
15401TIP3   OH267617   0.672   6.370   3.835 -0.5864  0.8755 -0.3179
15401TIP3    H167618   0.765   6.357   3.820 -0.4352  2.1218 -0.6227
15401TIP3    H267619   0.630   6.296   3.791  0.2948 -0.4318  0.9585
15402TIP3   OH267620   2.708   6.371  16.032 -0.4505  0.1557  0.1958
15402TIP3    H167621   2.731   6.345  15.943 -0.4917  0.4283  0.1047
15402TIP3    H267622   2.725   6.465  16.035 -2.4757  0.5761 -0.1632
15403TIP3   OH267623   4.318   2.727   4.848 -0.0891  0.0123 -0.0293
15403TIP3    H167624   4.350   2.685   4.928  0.2139  0.3536  0.0332
15403TIP3    H267625   4.249   2.786   4.878 -0.5367 -0.4636 -0.1210
15404TIP3   OH267626   2.769   4.499   4.197  0.3512  0.1693  0.1457
15404TIP3    H167627   2.713   4.428   4.165 -0.2338 -0.1978  1.8729
15404TIP3    H267628   2.839   4.506   4.131  0.8217 -2.4763  0.2429
15405TIP3   OH267629   0.585   2.341  14.141  0.1119  0.1121 -0.1159
15405TIP3    H167630   0.564   2.388  14.061 -4.8150 -0.8967  0.2585
15405TIP3    H267631   0.601   2.251  14.113  1.6519  0.3839 -0.1724
15406TIP3   OH267632   1.364   4.962   0.743  0.5122 -0.7916  0.3942
15406TIP3    H167633   1.341   4.902   0.673 -0.3001 -0.0969  0.0512
15406TIP3    H267634   1.348   4.912   0.824 -1.5093 -0.6036  0.1522
15407TIP3   OH267635   0.511   0.191   4.180 -0.6140  0.4671 -0.0596
15407TIP3    H167636   0.576   0.176   4.248 -0.8432 -1.3766 -0.1889
15407TIP3    H267637   0.562   0.214   4.103 -0.0918 -0.6437 -0.0719
15408TIP3   OH267638   3.650   5.728  14.651  0.2683 -0.5435 -0.1492
15408TIP3    H167639   3.569   5.777  14.665  1.3730  1.2373  0.4217
15408TIP3    H267640   3.645   5.656  14.714 -0.6543 -0.1732  0.2267
15409TIP3   OH267641   5.532   0.872   1.616  0.2077  0.0764 -0.2122
15409TIP3    H167642   5.577   0.929   1.678  0.0876  0.5880 -0.5928
15409TIP3    H267643   5.560   0.784   1.640  0.7216  0.3265  0.1131
15410TIP3   OH267644   2.122   4.248  14.129 -0.1998 -0.0525 -0.3137
15410TIP3    H167645   2.115   4.305  14.206 -2.2506 -1.3577  0.5325
15410TIP3    H267646   2.105   4.160  14.162  0.4967 -0.8744 -2.0087
15411TIP3   OH267647   4.396   3.779  12.335  1.0534  0.6706  0.2948
15411TIP3    H167648   4.482   3.740  12.321  1.0602  0.9241 -0.4077
15411TIP3    H267649   4.384   3.838  12.261 -0.8913 -1.4329 -1.2104
15412TIP3   OH267650   2.803   4.406   3.001  0.5558  0.0746  0.5456
15412TIP3    H167651   2.745   4.482   3.010  2.4463  1.8764 -1.4101
15412TIP3    H267652   2.747   4.339   2.960 -2.1228 -1.0117  5.2811
15413TIP3   OH267653   0.299   5.530  11.303  0.3363  0.0077  0.0109
15413TIP3    H167654   0.262   5.445  11.326 -0.4323  0.5567  0.8360
15413TIP3    H267655   0.239   5.566  11.237  2.3837 -1.4500 -2.8946
15414TIP3   OH267656   6.083   4.583   2.953  0.0139 -0.4342 -0.7239
15414TIP3    H167657   6.112   4.634   2.877 -0.4165 -1.0372 -1.3069
15414TIP3    H267658   5.993   4.559   2.932  0.2835 -1.6379 -0.5836
15415TIP3   OH267659   3.923   3.542  13.785  0.2237  0.5280 -0.2429
15415TIP3    H167660   3.920   3.447  13.768 -0.9589  0.4795  0.1335
15415TIP3    H267661   3.838   3.561  13.825  0.3974  1.7834 -0.4591
15416TIP3   OH267662   6.769   4.594   0.293 -0.7483 -0.5011 -0.6430
15416TIP3    H167663   6.704   4.650   0.251 -0.6189 -0.4723 -0.8052
15416TIP3    H267664   6.718   4.536   0.350 -0.7835  0.5789  0.4602
15417TIP3   OH267665   1.333   2.116  11.511 -0.4359 -0.3397  0.9159
15417TIP3    H167666   1.281   2.095  11.433 -0.9660 -1.9964  1.6647
15417TIP3    H267667   1.422   2.088  11.489 -0.4322 -0.1245  0.6489
15418TIP3   OH267668   5.218   4.258   1.872  0.4948  0.5454 -0.6419
15418TIP3    H167669   5.188   4.206   1.798 -1.9280  0.0939  0.5472
15418TIP3    H267670   5.294   4.211   1.906  1.4165  0.5718 -2.5798
15419TIP3   OH267671   1.908   6.391  13.637  0.0277 -0.1109 -0.5941
15419TIP3    H167672   1.884   6.309  13.594 -4.1370 -0.3878  1.7044
15419TIP3    H267673   1.850   6.456  13.598 -0.1597  0.6878  0.9371
15420TIP3   OH267674   5.081   0.364   2.985 -0.1548 -0.2765  0.1692
15420TIP3    H167675   5.099   0.447   3.030  1.0296 -0.9905  1.0720
15420TIP3    H267676   5.168   0.330   2.963 -0.6377 -1.1940 -0.3557
15421TIP3   OH267677   1.738   4.907  16.222  0.4070 -0.4762  0.3491
15421TIP3    H167678   1.821   4.901  16.176  0.0625 -1.0076 -0.2241
15421TIP3    H267679   1.723   4.820  16.258 -0.7818 -0.9381 -1.1520
15422TIP3   OH267680   5.016   4.802   2.849  0.2342  0.1172 -0.0630
15422TIP3    H167681   5.025   4.706   2.848 -0.9274 -0.0073 -1.1218
15422TIP3    H267682   5.053   4.829   2.933  1.3186 -1.1831 -0.0807
15423TIP3   OH267683   3.308   5.534   3.126 -0.3016 -0.0617 -0.1896
15423TIP3    H167684   3.336   5.620   3.157 -0.4625 -0.4961  1.2323
15423TIP3    H267685   3.326   5.475   3.199 -1.9758 -0.9144 -0.4212
15424TIP3   OH267686   6.442   1.265  15.681  0.3983  0.5205  0.6883
15424TIP3    H167687   6.391   1.187  15.701 -1.1393  1.7818  1.9811
15424TIP3    H267688   6.530   1.245  15.713  1.0062 -1.8925 -2.0519
15425TIP3   OH267689   6.675   5.843  16.480  0.1816 -0.3402  0.1234
15425TIP3    H167690   6.606   5.887  16.432  0.5300  0.5949  0.4550
15425TIP3    H267691   6.630   5.793  16.548 -0.1937 -0.2616 -0.0677
15426TIP3   OH267692   5.453   4.086  15.787  0.4329  0.2898  0.5734
15426TIP3    H167693   5.459   4.182  15.788  1.0165  0.2585  0.9877
15426TIP3    H267694   5.496   4.060  15.706  1.9833  0.3043  1.3420
15427TIP3   OH267695   0.485   1.743  14.365  0.2683  0.1735  0.0437
15427TIP3    H167696   0.480   1.836  14.345 -0.7439  0.1714  0.2050
15427TIP3    H267697   0.416   1.703  14.313 -0.3388 -0.2568  1.1322
15428TIP3   OH267698   3.045   0.688  15.667 -0.0522  0.6593 -0.4444
15428TIP3    H167699   2.956   0.663  15.690 -0.5608  1.7200 -1.1550
15428TIP3    H267700   3.090   0.698  15.751  0.2630 -2.6248 -0.0781
15429TIP3   OH267701   1.750   3.654  11.835  0.3730  0.0373 -0.2008
15429TIP3    H167702   1.805   3.580  11.808  1.5172  1.2167 -1.2410
15429TIP3    H267703   1.770   3.723  11.771 -0.7363  1.2166  0.6843
15430TIP3   OH267704   5.260   6.476  15.090  0.6843 -0.1244  1.1455
15430TIP3    H167705   5.221   6.515  15.168  0.3688  0.3412  0.7606
15430TIP3    H267706   5.187   6.435  15.044  0.2804  2.1451 -0.4217
15431TIP3   OH267707   4.894   0.180  13.428  0.1867 -0.0423  0.2153
15431TIP3    H167708   4.855   0.156  13.512  1.1977  0.7346  0.9314
15431TIP3    H267709   4.935   0.264  13.444 -1.8633  1.4612 -1.7861
15432TIP3   OH267710   2.020   2.042   2.755 -0.6112  0.5277  0.4647
15432TIP3    H167711   2.042   2.063   2.664 -2.0303  0.5292  0.1007
15432TIP3    H267712   2.038   2.122   2.804  0.2638  0.4932  0.2257
15433TIP3   OH267713   0.961   1.269   2.166 -0.3774 -0.3584  0.0063
15433TIP3    H167714   1.023   1.304   2.102  2.4736 -0.5816  2.4201
15433TIP3    H267715   0.940   1.343   2.222 -1.5459 -0.5358 -0.1745
15434TIP3   OH267716   5.546   0.149  14.139  0.1762  0.1883  0.1110
15434TIP3    H167717   5.608   0.199  14.192  0.4681 -0.2685  0.2022
15434TIP3    H267718   5.492   0.102  14.203  0.3066 -0.0973  0.0100
15435TIP3   OH267719   3.968   4.975  10.453 -0.4502 -0.1433  0.4844
15435TIP3    H167720   3.894   5.036  10.445  0.0841  0.3321 -1.4576
15435TIP3    H267721   3.994   4.958  10.363  0.5440 -1.8981  1.0620
15436TIP3   OH267722   2.435   5.850   1.872  0.3243 -0.3893  0.4911
15436TIP3    H167723   2.451   5.856   1.967  2.8839 -1.4697  0.2296
15436TIP3    H267724   2.523   5.856   1.833 -0.5789 -0.9118 -1.7670
15437TIP3   OH267725   4.957   4.034   3.286  0.0757  0.5883  0.2744
15437TIP3    H167726   5.031   4.073   3.332 -1.5917  0.4331  3.3857
15437TIP3    H267727   4.963   3.940   3.307 -0.2789  0.3483 -0.6213
15438TIP3   OH267728   6.510   3.741  13.320  0.1146  0.9883 -0.2250
15438TIP3    H167729   6.516   3.736  13.225  0.3138  2.3243 -0.3053
15438TIP3    H267730   6.590   3.701  13.352  1.1162  2.5206 -0.7166
15439TIP3   OH267731   4.061   1.597  14.417 -0.3308 -0.0595  0.5026
15439TIP3    H167732   4.081   1.535  14.486  0.7422  0.1304  0.3736
15439TIP3    H267733   4.146   1.618  14.377 -0.8780  0.1334 -0.6127
15440TIP3   OH267734   2.415   0.587   2.229 -0.1431  0.3200 -0.2349
15440TIP3    H167735   2.347   0.647   2.261 -0.8348  0.2284 -1.4998
15440TIP3    H267736   2.368   0.508   2.204  0.8820 -1.3918  2.6764
15441TIP3   OH267737   2.197   5.363   6.359 -0.1551  0.3425 -0.4878
15441TIP3    H167738   2.184   5.269   6.369  1.0757 -0.2255 -3.2230
15441TIP3    H267739   2.113   5.402   6.382 -1.0419 -1.5218 -0.4071
15442TIP3   OH267740   1.592   4.517   3.500 -0.0391  0.1046  0.2175
15442TIP3    H167741   1.507   4.560   3.486 -0.8331 -0.6650  2.2656
15442TIP3    H267742   1.637   4.525   3.416 -1.5045  1.9162 -0.4721
15443TIP3   OH267743   4.617   3.432  16.024  0.0688 -0.8656  0.5238
15443TIP3    H167744   4.682   3.466  16.085  0.7493  1.2286 -1.2162
15443TIP3    H267745   4.556   3.504  16.012  0.3502 -0.9326 -1.7340
15444TIP3   OH267746   2.727   2.755   2.295 -0.3954  0.4390 -0.5680
15444TIP3    H167747   2.783   2.678   2.305 -2.0344 -0.9348 -1.4132
15444TIP3    H267748   2.783   2.829   2.320  1.0696 -1.0492  0.8146
15445TIP3   OH267749   5.974   0.089   0.952  0.1247  0.7035  0.0279
15445TIP3    H167750   5.940   0.088   1.042 -0.2172 -1.2525 -0.0766
15445TIP3    H267751   5.945   0.006   0.915  0.6254  1.2990 -1.7705
15446TIP3   OH267752   6.733   1.261   0.097 -0.8970  0.7421 -0.1762
15446TIP3    H167753   6.644   1.279   0.067 -0.7819  0.8764 -0.4416
15446TIP3    H267754   6.789   1.290   0.025 -0.5210  2.7411  0.8577
15447TIP3   OH267755   1.801   4.149  10.963  0.3038  0.1653  0.0274
15447TIP3    H167756   1.838   4.069  10.926  0.1857  0.4717 -0.7821
15447TIP3    H267757   1.871   4.214  10.955  0.7787 -0.1025  1.6615
15448TIP3   OH267758   5.531   0.964   3.484 -0.5705  0.6858  0.1016
15448TIP3    H167759   5.461   1.011   3.529 -1.3694 -0.0574 -0.3336
15448TIP3    H267760   5.605   1.025   3.486 -0.1200  0.2310  3.4890
15449TIP3   OH267761   2.096   1.908  16.391  0.3997  0.5861  0.5864
15449TIP3    H167762   2.054   1.966  16.455 -1.6043 -0.2484  0.0817
15449TIP3    H267763   2.170   1.871  16.439 -0.1668  1.1266  1.9385
15450TIP3   OH267764   4.864   2.674   5.447  0.0391  0.0948  0.5461
15450TIP3    H167765   4.946   2.630   5.423  1.1785  1.8091  1.1456
15450TIP3    H267766   4.800   2.603   5.454  1.4942 -1.3037  0.2007
15451TIP3   OH267767   0.608   6.107  13.755 -0.2414 -0.3373 -0.2440
15451TIP3    H167768   0.625   6.064  13.839 -1.4231 -1.1371 -0.3883
15451TIP3    H267769   0.685   6.087  13.702  0.1162 -0.5883  0.3530
15452TIP3   OH267770   0.368   6.320  14.630  0.2393  0.0454 -0.2596
15452TIP3    H167771   0.382   6.288  14.719 -0.5048 -0.9772 -0.4864
15452TIP3    H267772   0.330   6.246  14.583 -1.5670  1.2414 -0.8190
15453TIP3   OH267773   0.542   5.029  11.700  0.4226 -0.3198 -0.0541
15453TIP3    H167774   0.530   5.045  11.794  2.3554  0.0198  0.1830
15453TIP3    H267775   0.565   5.114  11.664 -3.6112  0.3508 -1.5671
15454TIP3   OH267776   3.239   5.300   4.964  0.0357  0.3357 -0.4899
15454TIP3    H167777   3.147   5.300   4.939  0.0147 -1.0827 -0.4703
15454TIP3    H267778   3.244   5.242   5.040  0.9946  0.0745 -0.7320
15455TIP3   OH267779   4.746   3.117   1.084 -0.7835 -0.8391  0.1787
15455TIP3    H167780   4.734   3.171   1.005  0.1212 -0.9473 -0.0478
15455TIP3    H267781   4.803   3.046   1.055  0.8021 -0.0657  1.2643
15456TIP3   OH267782   4.002   0.079   3.851 -0.3910  0.1041  0.1559
15456TIP3    H167783   3.977  -0.003   3.893 -0.2279  0.1009  0.2458
15456TIP3    H267784   4.067   0.054   3.785 -0.3078  0.1669  0.2145
15457TIP3   OH267785   1.782   5.911   4.870 -0.0046 -0.3003 -0.2190
15457TIP3    H167786   1.817   5.862   4.796  0.5842 -2.2936  1.2658
15457TIP3    H267787   1.851   5.905   4.936 -1.2272 -0.1642  1.1161
15458TIP3   OH267788   5.478   2.502  10.882  0.4360  0.8535  0.4294
15458TIP3    H167789   5.517   2.471  10.800 -0.1778  2.0971 -0.3687
15458TIP3    H267790   5.531   2.579  10.905  2.2846 -0.9120  2.6566
15459TIP3   OH267791   2.596   4.012  15.075 -0.8174 -0.0168  0.1412
15459TIP3    H167792   2.560   4.030  15.161 -1.8756 -0.0344 -0.2851
15459TIP3    H267793   2.583   3.918  15.062 -2.1278  0.2520 -0.6682
15460TIP3   OH267794   4.528   5.091  14.822  0.0303 -0.1242  0.2139
15460TIP3    H167795   4.605   5.037  14.839  0.5680 -0.4484 -2.7348
15460TIP3    H267796   4.487   5.051  14.745 -0.5639  2.6135 -1.0037
15461TIP3   OH267797   4.402   0.286   5.460 -0.1984 -0.3957  0.2154
15461TIP3    H167798   4.427   0.215   5.519  0.0058  0.3870  1.1062
15461TIP3    H267799   4.384   0.360   5.519 -1.9536 -0.1440 -0.5677
15462TIP3   OH267800   5.858   4.718   2.678  0.0929  0.2424 -0.1178
15462TIP3    H167801   5.938   4.758   2.712 -0.1029  1.2996 -0.8287
15462TIP3    H267802   5.815   4.789   2.630 -1.7015 -0.0543  0.9637
15463TIP3   OH267803   6.041   6.407  15.192 -0.1467  0.3713  0.1701
15463TIP3    H167804   6.107   6.372  15.132 -0.3400 -1.9821  1.2198
15463TIP3    H267805   5.961   6.415  15.139  0.1681  0.1943 -0.3329
15464TIP3   OH267806   2.252   6.642   4.425  0.8142 -0.3387 -0.6753
15464TIP3    H167807   2.337   6.662   4.463  0.8443 -1.0822 -0.3334
15464TIP3    H267808   2.193   6.637   4.500  0.6526 -0.7291 -0.8248
15465TIP3   OH267809   6.155   4.377   4.076 -0.2323 -0.2832  1.0141
15465TIP3    H167810   6.201   4.330   4.145  0.1626  0.0403  0.9741
15465TIP3    H267811   6.062   4.363   4.095 -0.1246 -0.3296  1.5179
15466TIP3   OH267812   6.034   0.715   2.543 -0.5977  0.0551  0.2570
15466TIP3    H167813   5.997   0.680   2.624  1.3021  1.1752  1.7136
15466TIP3    H267814   6.025   0.810   2.552  0.8241  0.2599 -0.2180
15467TIP3   OH267815   4.416   3.171   5.578 -0.1298  0.1837 -0.3520
15467TIP3    H167816   4.359   3.095   5.565 -0.0772  0.3308 -1.5510
15467TIP3    H267817   4.472   3.147   5.652 -0.8876 -0.4747  0.0193
15468TIP3   OH267818   3.344   1.301  13.523  0.1415  0.2677 -0.1872
15468TIP3    H167819   3.258   1.342  13.531 -0.0595  0.1275 -1.4009
15468TIP3    H267820   3.325   1.207  13.519  0.4807  0.1285  1.0278
15469TIP3   OH267821   6.131   5.549  15.576  0.4267  0.1400 -0.1572
15469TIP3    H167822   6.053   5.500  15.601  0.5026  1.0845  2.1690
15469TIP3    H267823   6.107   5.641  15.589  2.1571  0.4104  1.4559
15470TIP3   OH267824   1.732   5.734   0.075  0.4260 -0.2407  0.3358
15470TIP3    H167825   1.763   5.791   0.145 -0.6142  1.2230 -0.3345
15470TIP3    H267826   1.666   5.678   0.116  0.1264  0.3222  0.6306
15471TIP3   OH267827   5.214   2.952  13.144  0.0659  0.1910 -0.5351
15471TIP3    H167828   5.137   3.009  13.147 -0.8925 -0.9242 -2.0197
15471TIP3    H267829   5.269   2.989  13.075  0.7213  0.7977  0.2993
15472TIP3   OH267830   2.245   3.313   3.783  0.5549 -0.4623 -0.7901
15472TIP3    H167831   2.169   3.367   3.762  1.2499  1.5028  1.3698
15472TIP3    H267832   2.306   3.330   3.711  0.3306  0.7756 -0.7109
15473TIP3   OH267833   0.952   5.938   5.885 -0.1693  0.3597  0.3451
15473TIP3    H167834   1.022   5.908   5.827 -0.9186 -1.3246  0.2354
15473TIP3    H267835   0.985   5.922   5.973 -0.0971  0.3113  0.3094
15474TIP3   OH267836   0.465   3.870   5.280  0.5468  0.4118  0.1518
15474TIP3    H167837   0.409   3.905   5.350 -1.0214  1.5053 -1.5639
15474TIP3    H267838   0.460   3.935   5.210  2.5587 -0.3594 -0.7875
15475TIP3   OH267839   0.613   0.735  13.487  0.0295  0.4696 -0.5341
15475TIP3    H167840   0.599   0.642  13.505  1.0486  0.3917 -0.0708
15475TIP3    H267841   0.527   0.769  13.464 -0.6952 -0.2053  1.0835
15476TIP3   OH267842   1.331   0.614  14.230  0.0916  0.0156  0.0580
15476TIP3    H167843   1.410   0.668  14.228 -0.5811  1.0368  0.2460
15476TIP3    H267844   1.362   0.525  14.213  1.4608  0.1843  1.4867
15477TIP3   OH267845   0.484   3.974  12.304  0.1380 -0.1100 -0.0198
15477TIP3    H167846   0.455   4.064  12.313 -0.4791 -0.2158 -0.8307
15477TIP3    H267847   0.481   3.939  12.393 -1.0524  0.2430  0.0956
15478TIP3   OH267848   0.710   5.508  12.725  0.1126 -0.6468 -0.2058
15478TIP3    H167849   0.730   5.601  12.739 -1.1570 -0.5320  1.0968
15478TIP3    H267850   0.795   5.464  12.726  0.8437  0.6040 -1.9969
15479TIP3   OH267851   3.800   4.420   6.021 -0.2133 -0.3584  0.0725
15479TIP3    H167852   3.730   4.396   5.960  0.4997 -1.1745 -0.4574
15479TIP3    H267853   3.826   4.336   6.060  0.5591 -0.0813  0.1585
15480TIP3   OH267854   3.619   0.726   5.115 -0.4188  0.2048 -0.3341
15480TIP3    H167855   3.705   0.743   5.078  0.4862 -1.7720  0.6669
15480TIP3    H267856   3.587   0.650   5.066 -1.4576  0.7124 -0.4611
15481TIP3   OH267857   4.888   6.151  16.474 -0.1076  0.0225  0.2074
15481TIP3    H167858   4.853   6.063  16.457 -0.1467 -0.0759  0.7581
15481TIP3    H267859   4.977   6.135  16.505  0.2549  0.2445 -0.7118
15482TIP3   OH267860   2.222   4.332   6.565  0.0656  0.0706 -0.1141
15482TIP3    H167861   2.289   4.388   6.603  1.5654 -1.1098 -0.9434
15482TIP3    H267862   2.249   4.320   6.474  0.4345 -2.9122  0.3055
15483TIP3   OH267863   1.429   2.357  16.520  0.3523  0.5200 -0.5832
15483TIP3    H167864   1.354   2.315  16.479  0.5844 -0.5336  0.0292
15483TIP3    H267865   1.503   2.334  16.463  0.8904 -1.9833  0.9541
15484TIP3   OH267866   4.553   6.801   2.859 -0.5353  0.6389 -0.0008
15484TIP3    H167867   4.519   6.728   2.910 -1.7689  1.0529 -0.2068
15484TIP3    H267868   4.634   6.825   2.903 -1.9187  1.4670  2.2544
15485TIP3   OH267869   4.756   2.201  15.681  0.6900  0.1976 -0.3769
15485TIP3    H167870   4.725   2.155  15.759  1.2991  0.6611  0.1459
15485TIP3    H267871   4.692   2.179  15.614  1.0350 -1.5099 -0.1763
15486TIP3   OH267872   3.336   1.512  11.154  0.1849  0.0352  0.0313
15486TIP3    H167873   3.418   1.481  11.192 -0.3954 -2.9144 -0.8242
15486TIP3    H267874   3.272   1.501  11.224 -0.1984 -1.7948 -0.5564
15487TIP3   OH267875   1.627   2.847  15.588  0.7787 -0.3797  0.1216
15487TIP3    H167876   1.621   2.767  15.642  0.1815 -0.2303  0.2857
15487TIP3    H267877   1.718   2.848  15.558  0.8279 -1.0615  0.2137
15488TIP3   OH267878   0.162   2.452   6.523 -0.2636 -0.2736  0.2193
15488TIP3    H167879   0.241   2.449   6.470  0.3039 -0.5613  1.0648
15488TIP3    H267880   0.185   2.407   6.604 -1.1303  0.0911  0.6883
15489TIP3   OH267881   3.278   0.510  14.425  0.1512  0.2473  0.0981
15489TIP3    H167882   3.267   0.478  14.515 -0.1946 -1.1205 -0.3966
15489TIP3    H267883   3.349   0.574  14.430  1.2956 -1.0419  1.0690
15490TIP3   OH267884   0.825   5.114  11.553  0.3419 -0.4542  0.0308
15490TIP3    H167885   0.800   5.156  11.636 -1.6102  0.4675 -0.9634
15490TIP3    H267886   0.817   5.020  11.570  1.1448 -0.3432  1.1994
15491TIP3   OH267887   6.456   0.030   4.507 -0.3166 -0.1692 -0.2484
15491TIP3    H167888   6.444   0.122   4.482 -0.2027 -0.4950 -1.5736
15491TIP3    H267889   6.370  -0.010   4.492 -0.5733 -0.1403  1.0344
15492TIP3   OH267890   2.326   1.793  13.696 -0.4484 -0.5113  0.0383
15492TIP3    H167891   2.381   1.733  13.746 -1.1272 -0.5211  0.7944
15492TIP3    H267892   2.245   1.745  13.681 -0.2337 -0.5250 -1.1329
15493TIP3   OH267893   4.627   6.011  17.078 -0.5210 -0.2924  0.0870
15493TIP3    H167894   4.652   6.098  17.108 -0.1051 -0.2924 -0.2544
15493TIP3    H267895   4.532   6.012  17.079 -0.5604  0.7178 -1.4811
15494TIP3   OH267896   4.473   2.788  11.900  0.2638  0.0749 -0.0253
15494TIP3    H167897   4.428   2.758  11.979  0.1859 -2.3056 -0.8903
15494TIP3    H267898   4.527   2.861  11.930  0.1202 -0.6543  2.1989
15495TIP3   OH267899   1.876   6.284  15.033  0.2302 -0.4193 -0.8026
15495TIP3    H167900   1.788   6.317  15.048  0.6651  0.8169 -0.8474
15495TIP3    H267901   1.887   6.285  14.938  0.6521  0.4418 -0.7526
15496TIP3   OH267902   3.482   6.700   2.529  0.1601 -0.4513  0.1336
15496TIP3    H167903   3.557   6.676   2.583  2.7281  1.7900 -2.1530
15496TIP3    H267904   3.499   6.659   2.444 -1.3405 -0.0914 -0.3781
15497TIP3   OH267905   6.664   5.171   3.243  0.1259  0.7003  0.5107
15497TIP3    H167906   6.569   5.166   3.255  0.0688  2.9420  1.5012
15497TIP3    H267907   6.685   5.263   3.257  2.3906  0.3711 -0.3208
15498TIP3   OH267908   5.868   5.572   0.490  0.2402  0.2866 -0.5302
15498TIP3    H167909   5.912   5.591   0.407  0.4615  0.5322 -0.3592
15498TIP3    H267910   5.799   5.638   0.495  1.3646  1.4430  0.3321
15499TIP3   OH267911   3.507   1.027   3.748 -0.0214 -0.0500  0.3846
15499TIP3    H167912   3.435   1.053   3.690 -0.6709 -0.4908  0.9678
15499TIP3    H267913   3.531   1.107   3.794 -1.1816 -0.1818  1.2821
15500TIP3   OH267914   0.349   0.456   2.274  0.0093  1.1577  0.3694
15500TIP3    H167915   0.424   0.502   2.237  1.2630  0.8374  2.3449
15500TIP3    H267916   0.324   0.394   2.206  2.4012  0.3509  0.1018
15501TIP3   OH267917   1.730   2.715  14.982 -0.1995 -0.2340 -0.3498
15501TIP3    H167918   1.734   2.717  15.078  0.7440  1.0651 -0.3880
15501TIP3    H267919   1.640   2.738  14.962 -0.4024 -0.4934  0.2266
15502TIP3   OH267920   6.352   0.669  17.075  0.1915  0.0206  0.3937
15502TIP3    H167921   6.353   0.723  17.154 -0.6724  2.1821 -0.9692
15502TIP3    H267922   6.271   0.694  17.030  1.2115 -0.2680 -1.7466
15503TIP3   OH267923   2.473   5.125   3.129  0.4054 -0.1868 -0.5543
15503TIP3    H167924   2.519   5.179   3.194  1.1351 -0.6390 -0.6771
15503TIP3    H267925   2.535   5.056   3.108  0.7300  0.6660 -2.7249
15504TIP3   OH267926   6.257   3.936  12.112  0.1825 -0.4896  0.3502
15504TIP3    H167927   6.329   3.948  12.174 -0.1763  0.7906  0.5389
15504TIP3    H267928   6.283   3.987  12.035  1.0629 -2.7967 -0.9894
15505TIP3   OH267929   3.169   3.045   3.737 -0.1636  0.0870 -0.0208
15505TIP3    H167930   3.227   2.973   3.711 -2.6262 -0.9343 -3.2642
15505TIP3    H267931   3.216   3.124   3.712  1.3297 -0.4823  0.8462
15506TIP3   OH267932   5.509   2.586  13.052 -0.3414  0.5439 -0.0044
15506TIP3    H167933   5.465   2.647  12.994 -2.6303  0.9124  1.9682
15506TIP3    H267934   5.526   2.636  13.132  2.3855 -0.0348 -0.1384
15507TIP3   OH267935   2.504   3.649   0.934 -0.0587  0.4018 -0.1727
15507TIP3    H167936   2.501   3.745   0.928  0.1960  0.5884  1.8028
15507TIP3    H267937   2.458   3.619   0.856  1.5247  2.0670 -1.8596
15508TIP3   OH267938   4.373   1.771  11.267  0.0731  0.1430 -0.6883
15508TIP3    H167939   4.334   1.704  11.322  0.5340 -0.6868 -1.3574
15508TIP3    H267940   4.299   1.814  11.225 -0.4280  1.8242  1.6608
15509TIP3   OH267941   2.574   4.262   5.466 -0.3659 -0.4647  0.0666
15509TIP3    H167942   2.626   4.342   5.456 -0.9814 -0.1539 -0.7333
15509TIP3    H267943   2.597   4.230   5.553  0.0974  0.4282  0.2926
15510TIP3   OH267944   4.064   2.292  15.147  0.0948 -0.4363 -0.4125
15510TIP3    H167945   4.011   2.224  15.107 -2.4162  1.0054  0.2354
15510TIP3    H267946   4.081   2.261  15.236 -0.7791 -0.3719 -0.2175
15511TIP3   OH267947   0.104   0.518   5.645 -0.5537 -0.0374  0.7228
15511TIP3    H167948   0.182   0.498   5.697 -2.0985 -0.4943  3.0511
15511TIP3    H267949   0.138   0.546   5.560  2.1423  0.6866  1.9289
15512TIP3   OH267950   0.488   4.322  15.617 -0.3998  0.0286 -0.6041
15512TIP3    H167951   0.487   4.399  15.560 -0.1979 -0.5406 -1.3858
15512TIP3    H267952   0.494   4.247  15.557 -1.3267 -0.6416  0.1147
15513TIP3   OH267953   5.254   4.278   2.247 -0.3897  0.0957  0.0091
15513TIP3    H167954   5.349   4.265   2.248 -0.5452 -1.1632 -0.0337
15513TIP3    H267955   5.218   4.195   2.216 -1.5316  0.3942  0.4517
15514TIP3   OH267956   4.151   1.613  11.575  0.2223 -0.1118 -0.0525
15514TIP3    H167957   4.083   1.594  11.639  1.6537 -0.7088  1.3898
15514TIP3    H267958   4.136   1.703  11.548 -0.6266  0.0369  0.8879
15515TIP3   OH267959   6.312   4.381   1.826 -0.0257 -0.1210  0.0897
15515TIP3    H167960   6.293   4.385   1.732  1.6484  0.9170 -0.2505
15515TIP3    H267961   6.255   4.448   1.865 -0.6725 -0.5046 -0.1926
15516TIP3   OH267962   1.492   2.151  14.604  0.4468  0.0462  0.5082
15516TIP3    H167963   1.465   2.096  14.531  0.6240  1.5028 -0.6902
15516TIP3    H267964   1.587   2.137  14.610  0.3264 -0.6474  0.9788
15517TIP3   OH267965   5.484   4.661  10.828 -0.0611  0.4794 -0.5650
15517TIP3    H167966   5.515   4.751  10.834  0.5114  0.2762 -0.4051
15517TIP3    H267967   5.525   4.626  10.749 -1.1699  0.6906 -1.2552
15518TIP3   OH267968   5.454   3.207   2.688  0.1306  0.0978 -0.0979
15518TIP3    H167969   5.504   3.286   2.669 -1.7891  1.4363  0.1453
15518TIP3    H267970   5.499   3.168   2.763 -0.9084  2.9964  2.2095
15519TIP3   OH267971   4.589   4.231   6.061 -0.5922 -0.2948 -0.1511
15519TIP3    H167972   4.650   4.298   6.094  0.9219 -2.5134  1.8520
15519TIP3    H267973   4.608   4.225   5.968  1.5709 -0.1762  0.2316
15520TIP3   OH267974   5.705   0.335  16.852  0.2862  0.3191  0.2601
15520TIP3    H167975   5.654   0.336  16.933  1.8041  2.1190  1.2855
15520TIP3    H267976   5.674   0.412  16.803 -1.7097 -1.5972 -1.6849
15521TIP3   OH267977   1.243   1.856   1.071 -0.5620  0.3749  0.7358
15521TIP3    H167978   1.313   1.888   1.015  0.4421 -0.9424  1.1856
15521TIP3    H267979   1.271   1.877   1.160 -1.0075  0.3489  0.8876
15522TIP3   OH267980   0.482   3.092  11.400  0.1489  0.1996 -0.4532
15522TIP3    H167981   0.473   3.160  11.466 -0.7867 -0.1961 -0.1540
15522TIP3    H267982   0.532   3.133  11.329 -0.5453  1.2422 -0.3561
15523TIP3   OH267983   2.394   4.783  10.831 -0.0638 -0.3536  0.2289
15523TIP3    H167984   2.356   4.856  10.783  0.7078  1.5459  2.3209
15523TIP3    H267985   2.489   4.800  10.831 -0.1262  1.0227  4.1113
15524TIP3   OH267986   0.375   0.802   0.438  0.6857  0.2558  0.8208
15524TIP3    H167987   0.320   0.735   0.480  0.9892 -1.0285 -0.7245
15524TIP3    H267988   0.380   0.872   0.502 -0.2750 -0.8829  2.2165
15525TIP3   OH267989   2.288   0.977   3.604  0.1879  0.0822  0.5280
15525TIP3    H167990   2.365   0.977   3.547 -1.8595 -0.4708 -2.5098
15525TIP3    H267991   2.247   1.062   3.589 -2.4469 -1.4467 -2.1177
15526TIP3   OH267992   3.682   2.253   5.036 -0.5767  0.0709 -0.6636
15526TIP3    H167993   3.757   2.202   5.066  0.8002  1.4700 -1.5808
15526TIP3    H267994   3.700   2.342   5.065 -1.9105  0.4378 -0.8946
15527TIP3   OH267995   2.832   5.464  15.780 -0.0811  0.1742  0.2098
15527TIP3    H167996   2.877   5.383  15.757 -0.2952 -0.4923  2.0065
15527TIP3    H267997   2.817   5.508  15.696 -0.0847 -1.7042 -0.8154
15528TIP3   OH267998   0.239   3.380  15.426 -0.0253  0.1336  0.3152
15528TIP3    H167999   0.153   3.419  15.408  0.2336  0.0938 -1.1842
15528TIP3    H268000   0.233   3.350  15.516 -0.4500  3.0455  1.3598
15529TIP3   OH268001   5.724   1.577   2.258  0.0842  0.4226 -0.4413
15529TIP3    H168002   5.802   1.612   2.301 -1.1251 -0.0115  2.3159
15529TIP3    H268003   5.654   1.638   2.280 -1.2800 -1.5890  1.2068
15530TIP3   OH268004   2.923   4.883   2.106  0.2247 -0.4832 -0.6293
15530TIP3    H168005   2.896   4.883   2.014 -1.6541 -0.9242 -0.1136
15530TIP3    H268006   2.991   4.815   2.110  0.2416 -0.5509 -1.6635
15531TIP3   OH268007   1.245   6.267   6.317 -0.0783  0.7588 -0.4031
15531TIP3    H168008   1.291   6.349   6.333  3.6119 -1.2777  0.4992
15531TIP3    H268009   1.198   6.249   6.398  1.7893  0.4643  0.6669
15532TIP3   OH268010   2.132   0.953  16.205  0.6166 -0.1755 -0.2929
15532TIP3    H168011   2.107   1.009  16.131  0.6396 -0.8620 -0.8312
15532TIP3    H268012   2.085   0.990  16.280  0.0601  0.1287 -0.7816
15533TIP3   OH268013   0.324   3.649  15.642 -0.0786  0.3091  0.0277
15533TIP3    H168014   0.345   3.675  15.732  0.9900 -0.6425  0.0740
15533TIP3    H268015   0.376   3.570  15.627 -0.7019  0.1135 -1.2300
15534TIP3   OH268016   4.469   1.910   5.542 -0.0048 -0.0437  0.7258
15534TIP3    H168017   4.494   1.826   5.503  0.1581  0.9057 -1.3135
15534TIP3    H268018   4.546   1.936   5.594  0.3760 -0.6337  0.4683
15535TIP3   OH268019   3.349   2.804  15.785 -0.3966  0.2195  0.1599
15535TIP3    H168020   3.363   2.721  15.738 -0.8788  1.1972 -1.8559
15535TIP3    H268021   3.430   2.819  15.832  0.1231 -0.8615 -0.3515
15536TIP3   OH268022   6.044   1.963   2.425 -0.1150  0.4847  0.1494
15536TIP3    H168023   5.997   1.976   2.343  0.6659 -1.4702 -0.6769
15536TIP3    H268024   6.137   1.971   2.401  0.0836  0.9921  1.0671
15537TIP3   OH268025   5.927   2.840  15.992 -0.1478 -0.1542 -0.3267
15537TIP3    H168026   5.840   2.818  16.026 -0.0078 -2.3443 -1.2252
15537TIP3    H268027   5.948   2.769  15.930  2.8150 -0.4788  0.8499
15538TIP3   OH268028   3.974   2.947  14.130  0.7934 -0.4518 -0.0371
15538TIP3    H168029   3.966   2.971  14.222 -1.5840  2.7906 -0.9442
15538TIP3    H268030   3.910   2.876  14.118  0.7911 -0.5796  0.6935
15539TIP3   OH268031   5.172   1.496  11.301 -0.1807  0.3484  0.2571
15539TIP3    H168032   5.140   1.581  11.332 -0.0717  0.5851 -0.2626
15539TIP3    H268033   5.107   1.468  11.236 -0.9943 -0.6614  1.4669
15540TIP3   OH268034   5.248   5.855   4.883 -0.1993  0.4875 -0.5112
15540TIP3    H168035   5.175   5.822   4.935 -1.1198 -1.1249 -2.6441
15540TIP3    H268036   5.315   5.787   4.891 -0.0759  0.5749 -0.7850
15541TIP3   OH268037   6.570   2.046  16.668 -0.4094  0.7054 -0.4766
15541TIP3    H168038   6.514   1.999  16.606 -0.9877  0.3270  0.3148
15541TIP3    H268039   6.563   1.995  16.750  0.3439  1.1848 -0.1019
15542TIP3   OH268040   0.116   1.913   2.296 -0.5856  0.5024  0.7800
15542TIP3    H168041   0.180   1.844   2.281 -1.8059 -0.4475 -0.3719
15542TIP3    H268042   0.090   1.941   2.208  0.3746  2.9725  1.2015
15543TIP3   OH268043   6.389   6.582  10.921  0.1687 -0.0893 -0.3079
15543TIP3    H168044   6.478   6.605  10.949  1.8485 -1.0374 -4.2252
15543TIP3    H268045   6.391   6.486  10.911 -1.0814 -0.0674 -1.0482
15544TIP3   OH268046   4.933   0.155  13.138  0.4194 -0.5765  0.4186
15544TIP3    H168047   4.936   0.179  13.231 -0.5775 -0.1311  0.3454
15544TIP3    H268048   4.887   0.071  13.137 -1.3219  0.3403  0.1830
15545TIP3   OH268049   5.097   0.344  12.563  0.3436 -0.2644 -0.3644
15545TIP3    H168050   5.159   0.416  12.553 -0.1042  0.1101 -0.4943
15545TIP3    H268051   5.138   0.271  12.518  0.9743 -0.2011  0.0859
15546TIP3   OH268052   2.862   2.358   2.635 -0.2643 -0.6954  0.3101
15546TIP3    H168053   2.872   2.357   2.539  1.6702 -0.1939  0.4658
15546TIP3    H268054   2.874   2.450   2.659  2.0632 -1.1780  1.2364
15547TIP3   OH268055   1.104   4.889  16.989 -0.7728  0.7973  0.3921
15547TIP3    H168056   1.015   4.900  17.021 -0.6530  0.8932  0.6896
15547TIP3    H268057   1.134   4.808  17.028 -1.6590 -0.6884 -1.8069
15548TIP3   OH268058   4.056   0.829   0.524  0.8562 -0.2399  0.2124
15548TIP3    H168059   4.144   0.858   0.501  0.1548  1.6691 -0.2954
15548TIP3    H268060   4.008   0.828   0.441  0.5089 -1.8395  0.3880
15549TIP3   OH268061   4.264   6.422   6.259  0.1360  0.1005 -0.0663
15549TIP3    H168062   4.227   6.335   6.246  1.4919 -0.3929 -0.8085
15549TIP3    H268063   4.191   6.474   6.293 -0.9773 -1.0463 -0.6146
15550TIP3   OH268064   2.459   0.513   1.194  0.1566 -0.5768 -0.5717
15550TIP3    H168065   2.520   0.536   1.264  1.1625  0.4754 -1.7484
15550TIP3    H268066   2.507   0.532   1.113 -1.3868 -0.6336 -1.5370
15551TIP3   OH268067   2.070   3.855  13.165  0.2281  0.2145  0.3026
15551TIP3    H168068   2.113   3.938  13.143  2.6669 -0.8754  0.5460
15551TIP3    H268069   2.136   3.808  13.216 -1.8068 -1.1196  1.8398
15552TIP3   OH268070   1.720   6.454  15.973  0.3996 -0.1708  0.2261
15552TIP3    H168071   1.653   6.411  16.026  0.7459  1.7828  2.4387
15552TIP3    H268072   1.803   6.430  16.014  0.9333 -0.7047 -1.0858
15553TIP3   OH268073   0.179   1.808   3.069 -0.1757  0.6113 -0.5307
15553TIP3    H168074   0.259   1.855   3.091  1.1525 -0.8382 -1.9682
15553TIP3    H268075   0.146   1.852   2.991  0.9883 -0.6468 -1.7903
15554TIP3   OH268076   1.753   5.460   0.163  0.3520  0.1382  0.1830
15554TIP3    H168077   1.673   5.477   0.112 -0.9321 -1.5411  1.4947
15554TIP3    H268078   1.797   5.391   0.114  0.4176  0.2976  0.0196
15555TIP3   OH268079   4.840   3.447   6.081 -0.0427  0.6414  0.0295
15555TIP3    H168080   4.796   3.518   6.034 -0.2267  0.2722 -0.3669
15555TIP3    H268081   4.871   3.388   6.012  0.4644  0.5382  0.3352
15556TIP3   OH268082   0.826   3.424  14.139  0.6496 -0.0222 -0.5708
15556TIP3    H168083   0.841   3.519  14.131  0.8295  0.0743  0.6857
15556TIP3    H268084   0.873   3.386  14.065  1.3251  0.8141 -0.5946
15557TIP3   OH268085   0.140   1.945   1.443 -0.2663  0.4733  0.5285
15557TIP3    H168086   0.226   1.921   1.478  0.7563  0.9179 -1.5305
15557TIP3    H268087   0.103   2.004   1.508  1.0373  0.3683  1.4016
15558TIP3   OH268088   0.645   2.671   5.107  0.2314 -0.1203 -0.0667
15558TIP3    H168089   0.703   2.621   5.165 -0.3437  0.8966  1.4734
15558TIP3    H268090   0.704   2.718   5.049  1.0428  1.2206  1.7367
15559TIP3   OH268091   5.706   1.708   4.715 -0.2518 -0.4153  0.4857
15559TIP3    H168092   5.616   1.689   4.744 -0.4747  0.0669  0.1226
15559TIP3    H268093   5.759   1.699   4.794 -0.9020  1.2038  1.1421
15560TIP3   OH268094   0.851   6.686  16.372  0.8137  0.1689  0.2968
15560TIP3    H168095   0.870   6.600  16.409 -3.1467 -0.4782  1.2764
15560TIP3    H268096   0.802   6.667  16.292 -2.6331  1.2771  1.9563
15561TIP3   OH268097   4.779   4.927  13.407  0.9485  0.6944 -0.4142
15561TIP3    H168098   4.810   5.017  13.396  0.1796  0.8805 -1.1390
15561TIP3    H268099   4.838   4.890  13.472  0.5835  2.0624  0.7507
15562TIP3   OH268100   0.400   5.046   3.238 -0.0969  0.0180  0.0196
15562TIP3    H168101   0.479   4.998   3.213 -0.6470 -2.0411  1.9862
15562TIP3    H268102   0.422   5.087   3.322 -0.7793  0.3373  0.0477
15563TIP3   OH268103   2.423   4.523   3.996  0.3803  0.1250 -0.4689
15563TIP3    H168104   2.461   4.587   4.056 -0.9018 -1.1475  1.8282
15563TIP3    H268105   2.334   4.554   3.981 -0.4552 -1.3174  1.1418
15564TIP3   OH268106   5.824   4.587   3.707 -0.3930 -0.0537 -0.1530
15564TIP3    H168107   5.834   4.681   3.723  1.6007 -0.7398  3.6777
15564TIP3    H268108   5.909   4.559   3.673 -0.7764 -0.5938 -0.6823
15565TIP3   OH268109   4.363   0.543  14.876 -0.1470  0.2066 -0.0169
15565TIP3    H168110   4.334   0.561  14.787  0.3561 -2.1052 -0.7239
15565TIP3    H268111   4.282   0.536  14.926 -0.6590 -1.6567 -1.0124
15566TIP3   OH268112   5.185   1.697  16.553 -0.8596 -0.2813 -0.9073
15566TIP3    H168113   5.182   1.782  16.597  0.3003  0.8106 -2.8082
15566TIP3    H268114   5.105   1.652  16.581 -0.6890  0.7315  1.4454
15567TIP3   OH268115   0.549   0.861   0.828  0.0897  0.4560  1.0079
15567TIP3    H168116   0.604   0.793   0.788  1.0981  1.3354  0.8613
15567TIP3    H268117   0.460   0.834   0.808  0.5231  0.0910 -0.5947
15568TIP3   OH268118   3.990   6.370   5.771 -0.3949 -0.7902 -0.0706
15568TIP3    H168119   3.971   6.420   5.691 -0.2754 -1.7611 -0.7326
15568TIP3    H268120   3.921   6.395   5.832 -0.4577  0.0089 -0.4510
15569TIP3   OH268121   3.120   0.608   2.663 -0.7273 -0.4131  0.5447
15569TIP3    H168122   3.029   0.633   2.645 -0.7922 -0.7755  0.3615
15569TIP3    H268123   3.171   0.674   2.616 -0.8984 -1.2858 -0.9544
15570TIP3   OH268124   2.390   1.662   3.357  0.1889  0.4331 -0.0303
15570TIP3    H168125   2.356   1.675   3.446  0.3759 -2.7935  0.6327
15570TIP3    H268126   2.342   1.586   3.325  1.3071  0.5404 -2.0869
15571TIP3   OH268127   4.046   2.600   3.678 -0.0428  0.6691 -0.3230
15571TIP3    H168128   4.027   2.688   3.710 -2.8552 -0.7775  2.5473
15571TIP3    H268129   4.003   2.541   3.740  2.1094 -2.8181 -1.7823
15572TIP3   OH268130   2.950   4.421  11.184  0.1686  0.0698 -0.7402
15572TIP3    H168131   2.985   4.510  11.175 -1.7972  0.7706 -2.1773
15572TIP3    H268132   2.907   4.422  11.270  2.6262 -0.5052  0.6027
15573TIP3   OH268133   3.479   5.504  13.197  0.8792  0.0357  0.3574
15573TIP3    H168134   3.416   5.532  13.263  0.9303 -1.3929  1.0369
15573TIP3    H268135   3.537   5.444  13.243  0.2273 -1.9046 -1.2195
15574TIP3   OH268136   5.100   4.028  14.505  0.0338 -0.2267  0.3109
15574TIP3    H168137   5.088   4.122  14.499 -1.0159 -0.4177 -4.5133
15574TIP3    H268138   5.174   4.017  14.565  0.1834  3.6161  1.0610
15575TIP3   OH268139   5.730   2.873   0.567 -0.3193  0.5261 -0.6384
15575TIP3    H168140   5.647   2.882   0.614 -0.2068  1.1115 -0.5385
15575TIP3    H268141   5.711   2.810   0.497 -0.1785 -1.2794  0.8789
15576TIP3   OH268142   3.444   3.365  17.035 -0.8258  0.0174  0.0676
15576TIP3    H168143   3.374   3.301  17.023 -1.0969  0.0786  1.2017
15576TIP3    H268144   3.407   3.432  17.093  0.1272  0.0956  0.6232
15577TIP3   OH268145   6.512   2.588   3.011  0.8251  0.6040 -0.1252
15577TIP3    H168146   6.442   2.531   2.980  1.2459 -0.6223  1.1043
15577TIP3    H268147   6.470   2.673   3.025  0.1600  0.5993 -1.8470
15578TIP3   OH268148   6.484   6.176  14.806  0.5768 -0.2480 -0.0006
15578TIP3    H168149   6.570   6.136  14.795  0.1881 -0.5902 -2.0713
15578TIP3    H268150   6.459   6.204  14.719 -1.6794 -0.6942  0.4436
15579TIP3   OH268151   5.295   2.843  14.856  0.2374  0.4945 -0.6775
15579TIP3    H168152   5.342   2.875  14.933 -1.4376  1.9120 -0.1717
15579TIP3    H268153   5.251   2.764  14.885  2.6141 -1.1897 -1.3129
15580TIP3   OH268154   5.446   2.551   2.450 -0.3259  0.1449  0.2228
15580TIP3    H168155   5.384   2.579   2.518 -0.1457 -1.6778  1.1935
15580TIP3    H268156   5.527   2.534   2.497 -0.2398 -1.3118 -0.3869
15581TIP3   OH268157   5.739   4.540   1.374 -0.7270 -0.0150 -0.3548
15581TIP3    H168158   5.666   4.594   1.344  1.0458  2.3463 -0.6228
15581TIP3    H268159   5.789   4.521   1.295 -0.4972 -0.7876 -0.0354
15582TIP3   OH268160   5.946   2.264   0.227 -0.0761 -0.0013  0.2750
15582TIP3    H168161   5.978   2.276   0.317 -1.1684  0.4126  0.6284
15582TIP3    H268162   5.924   2.353   0.198  0.2579 -0.1341 -0.4075
15583TIP3   OH268163   4.553   5.832   2.217  0.0792  0.0559  0.8488
15583TIP3    H168164   4.470   5.832   2.170  0.2150 -1.3126  0.5601
15583TIP3    H268165   4.569   5.924   2.238 -0.7417  0.5198 -0.4338
15584TIP3   OH268166   1.459   3.386   1.372 -0.3145  0.1004 -0.7686
15584TIP3    H168167   1.544   3.389   1.417 -0.1170 -0.6069 -1.0865
15584TIP3    H268168   1.478   3.418   1.284 -0.6375  1.1618 -0.4774
15585TIP3   OH268169   3.885   6.070   3.877  0.0357 -0.2131 -0.1536
15585TIP3    H168170   3.977   6.091   3.891  0.3958 -0.4476 -1.8791
15585TIP3    H268171   3.880   6.050   3.783 -1.8046 -0.0225 -0.1244
15586TIP3   OH268172   4.982   3.375   0.781  0.2389  0.3634 -0.7946
15586TIP3    H168173   5.013   3.461   0.809  0.5636 -0.1045  0.3573
15586TIP3    H268174   4.891   3.371   0.811 -0.0691  0.6406 -1.6552
15587TIP3   OH268175   3.310   0.196  14.901 -0.6737  0.0787 -0.5452
15587TIP3    H168176   3.346   0.186  14.813 -0.9451 -0.6675 -0.5764
15587TIP3    H268177   3.218   0.172  14.892 -0.2717 -2.0344  0.3148
15588TIP3   OH268178   5.003   5.844   2.451 -0.0354 -0.4914 -0.2128
15588TIP3    H168179   4.932   5.835   2.515  1.3739  0.2941  1.5343
15588TIP3    H268180   5.033   5.754   2.437 -0.4627 -0.6874  0.0912
15589TIP3   OH268181   0.973   4.737  14.800 -0.6248 -0.8029  0.0343
15589TIP3    H168182   0.903   4.748  14.735 -0.0854 -1.9017 -0.7659
15589TIP3    H268183   0.958   4.650  14.837  0.5349 -1.2192 -0.4361
15590TIP3   OH268184   6.311   6.762   5.021 -0.3124 -0.3315 -0.5801
15590TIP3    H168185   6.295   6.778   4.928 -0.2051 -0.3524 -0.6030
15590TIP3    H268186   6.247   6.696   5.046 -0.1807 -0.5046 -0.6988
15591TIP3   OH268187   5.374   0.542  14.692  0.7086  0.4633  0.5396
15591TIP3    H168188   5.455   0.520  14.738  1.4896 -1.0752 -1.4316
15591TIP3    H268189   5.401   0.555  14.601 -1.3668 -0.9159 -0.3390
15592TIP3   OH268190   4.863   3.981  14.619  0.1040  0.2158 -0.5506
15592TIP3    H168191   4.832   3.897  14.585  2.3091 -0.5115 -0.9116
15592TIP3    H268192   4.951   3.991  14.582  2.1989  0.0434  3.7430
15593TIP3   OH268193   4.584   0.420  16.796  0.1512 -0.5456  0.5330
15593TIP3    H168194   4.567   0.445  16.887 -0.5490  0.0423  0.2491
15593TIP3    H268195   4.497   0.417  16.756 -0.0623 -4.8931  0.8641
15594TIP3   OH268196   2.183   6.159   5.243  0.0802  0.5817 -0.1669
15594TIP3    H168197   2.237   6.086   5.213  0.3764  0.7805 -0.1102
15594TIP3    H268198   2.175   6.146   5.337 -2.4952 -1.1872 -0.5000
15595TIP3   OH268199   1.242   3.223  16.402  0.5588 -0.0144  0.1576
15595TIP3    H168200   1.281   3.310  16.390  1.0828  0.3326  3.3971
15595TIP3    H268201   1.317   3.164  16.400  0.0748 -0.7440 -3.5315
15596TIP3   OH268202   2.131   5.759   2.753  0.2313  0.0611 -0.0622
15596TIP3    H168203   2.055   5.817   2.759  0.3173  0.4175 -1.8334
15596TIP3    H268204   2.193   5.794   2.817 -0.3717  0.9061  0.0776
15597TIP3   OH268205   1.909   1.901   2.028 -0.1277 -0.1754  0.7012
15597TIP3    H168206   1.845   1.970   2.046 -0.3775  0.0333 -0.8726
15597TIP3    H268207   1.975   1.944   1.974  0.6991 -0.7161  1.2553
15598TIP3   OH268208   2.714   1.712   1.994  0.7075 -0.0516  0.4722
15598TIP3    H168209   2.741   1.620   1.988 -0.7728 -0.6216  1.7517
15598TIP3    H268210   2.623   1.708   2.024 -0.0573  1.8084 -1.3661
15599TIP3   OH268211   3.018   6.004  10.527 -0.1941  0.0505 -0.0250
15599TIP3    H168212   2.939   5.971  10.570 -0.6634  0.8216 -0.2649
15599TIP3    H268213   3.053   6.069  10.587 -0.7968  1.0593 -0.7176
15600TIP3   OH268214   3.980   1.197  13.651  0.7532 -0.2394  0.4928
15600TIP3    H168215   4.014   1.132  13.590  0.5903  0.1673 -0.0328
15600TIP3    H268216   4.034   1.275  13.636 -0.0629  0.2451  0.0175
15601TIP3   OH268217   1.217   5.154  14.383  0.5621  0.2080 -0.2012
15601TIP3    H168218   1.237   5.070  14.423 -0.3934 -0.0549 -0.2453
15601TIP3    H268219   1.121   5.159  14.385  0.5140  0.4384 -1.9385
15602TIP3   OH268220   3.308   1.831   0.489 -0.1674  0.2183 -0.1057
15602TIP3    H168221   3.259   1.857   0.566  1.0858  1.4741  0.3145
15602TIP3    H268222   3.275   1.887   0.419  0.0050  0.3985 -0.0430
15603TIP3   OH268223   3.107   1.349  15.025 -0.1428  0.1657 -1.1710
15603TIP3    H168224   3.101   1.341  14.929  1.0006  0.4996 -1.2804
15603TIP3    H268225   3.168   1.280  15.051 -0.4427  0.0828 -0.6765
15604TIP3   OH268226   5.488   2.954  13.943 -0.0946 -0.7154 -0.0735
15604TIP3    H168227   5.489   2.961  14.038  0.3548  0.4927 -0.1539
15604TIP3    H268228   5.580   2.958  13.917 -0.2293 -0.7723 -0.5787
15605TIP3   OH268229   4.857   4.278  16.218  0.1619 -0.2429 -0.0116
15605TIP3    H168230   4.817   4.343  16.160 -1.2590  0.0628  1.2221
15605TIP3    H268231   4.854   4.196  16.168 -0.4432  0.1331 -0.6164
15606TIP3   OH268232   3.353   5.260   0.832 -0.2867  0.1399 -0.1370
15606TIP3    H168233   3.271   5.308   0.822  0.3229  0.7931 -3.4542
15606TIP3    H268234   3.381   5.242   0.742  1.4467 -3.2156  0.9128
15607TIP3   OH268235   0.004   4.050  10.962 -0.3606  0.0672  0.4114
15607TIP3    H168236  -0.056   4.056  10.888  0.6766  2.0648 -0.3296
15607TIP3    H268237  -0.052   4.066  11.039 -1.3602 -1.5770  0.0637
15608TIP3   OH268238   5.779   2.834   1.834  0.2605  0.0985 -0.0188
15608TIP3    H168239   5.778   2.767   1.903 -2.3714 -0.0955 -0.1520
15608TIP3    H268240   5.813   2.789   1.757 -1.4465 -1.1474 -0.1004
15609TIP3   OH268241   3.321   2.804   3.680 -0.0128  0.1754 -0.7485
15609TIP3    H168242   3.395   2.767   3.728 -0.5099  1.2822  0.9867
15609TIP3    H268243   3.250   2.742   3.693 -0.5819  1.1781  1.3648
15610TIP3   OH268244   6.127   4.964   4.526 -0.2899 -0.3622  0.6848
15610TIP3    H168245   6.131   5.018   4.605 -1.3049 -2.0038  1.9157
15610TIP3    H268246   6.034   4.948   4.513 -0.0605 -0.9769 -0.2516
15611TIP3   OH268247   3.710   2.056   5.786 -0.1382 -0.5086  0.1196
15611TIP3    H168248   3.683   2.130   5.730 -0.1335  0.5363  1.4464
15611TIP3    H268249   3.662   2.069   5.867 -0.7823 -2.4763  0.0975
15612TIP3   OH268250   4.279   3.025   2.309 -0.0884 -0.3491 -0.2671
15612TIP3    H168251   4.226   3.100   2.282  0.7342 -0.4486 -2.2806
15612TIP3    H268252   4.368   3.060   2.317 -0.2193 -0.4096  2.1001
15613TIP3   OH268253   2.820   0.094   3.564 -0.1077 -0.4809 -0.2480
15613TIP3    H168254   2.897   0.109   3.509 -0.3603 -0.7377 -0.6782
15613TIP3    H268255   2.844   0.023   3.623  1.5595  2.2606  2.6638
15614TIP3   OH268256   4.041   5.849   0.034  0.8412  0.6058  0.7438
15614TIP3    H168257   3.973   5.797   0.076  0.7165  0.1474  0.0010
15614TIP3    H268258   4.123   5.802   0.052  0.3503 -2.9120 -4.0474
15615TIP3   OH268259   3.946   6.577  13.538 -0.1087  0.4107  0.2651
15615TIP3    H168260   3.921   6.658  13.583  0.6740  0.8400 -0.0499
15615TIP3    H268261   4.038   6.590  13.516 -0.6562  0.5840 -2.1788
15616TIP3   OH268262   4.340   4.008   1.480 -0.0792 -0.0911  0.2187
15616TIP3    H168263   4.407   3.976   1.541 -0.9052  0.4707  1.4497
15616TIP3    H268264   4.306   3.929   1.439  1.6403 -0.3655 -0.7969
15617TIP3   OH268265   2.298   6.580  16.947 -0.0579  0.2446  0.3075
15617TIP3    H168266   2.318   6.656  17.000 -0.8505  1.6098 -1.2646
15617TIP3    H268267   2.356   6.511  16.980  0.7510  1.5415  1.6882
15618TIP3   OH268268   0.524   6.719   4.028  0.6835 -0.0010  0.6311
15618TIP3    H168269   0.542   6.803   3.986 -1.4232  0.0403 -0.2747
15618TIP3    H268270   0.503   6.742   4.119  2.8144  0.1330  1.1534
15619TIP3   OH268271   5.555   1.673  12.116 -0.3276 -0.7896  0.5944
15619TIP3    H168272   5.466   1.672  12.079  0.7512 -0.2132 -2.2577
15619TIP3    H268273   5.566   1.763  12.147 -1.1178 -1.1913  2.1972
15620TIP3   OH268274   5.472   1.795  14.622  0.1844  0.4189 -0.2064
15620TIP3    H168275   5.563   1.809  14.648  0.6487 -1.6864 -0.5283
15620TIP3    H268276   5.422   1.853  14.679  1.7493  2.2452 -0.5823
15621TIP3   OH268277   0.783   2.010  11.380  0.8495 -0.3029  0.3282
15621TIP3    H168278   0.759   2.091  11.337 -1.5374 -0.7711  0.6319
15621TIP3    H268279   0.863   2.031  11.429 -0.3087  2.1872  1.3034
15622TIP3   OH268280   1.690   3.910   2.306 -0.3542  0.0949 -0.1338
15622TIP3    H168281   1.609   3.866   2.279 -0.7500 -0.9888  2.5020
15622TIP3    H268282   1.679   4.001   2.279 -3.0740  0.2749  1.3205
15623TIP3   OH268283   0.189   0.067  16.468 -0.2507  0.4710  0.2688
15623TIP3    H168284   0.140   0.014  16.531  1.9155 -0.7139  1.0687
15623TIP3    H268285   0.227   0.003  16.407 -0.6532  1.4492 -1.0624
15624TIP3   OH268286   4.696   0.652  16.577 -0.4344 -0.4081 -0.8289
15624TIP3    H168287   4.725   0.561  16.584  1.1426  0.1290  0.2306
15624TIP3    H268288   4.775   0.701  16.555 -1.2167  0.7385 -1.1756
15625TIP3   OH268289   3.291   3.580  14.238  0.0602 -0.0530  0.2357
15625TIP3    H168290   3.210   3.528  14.235 -0.1126  0.2540 -1.1118
15625TIP3    H268291   3.264   3.665  14.274  0.2142 -0.6352  1.8008
15626TIP3   OH268292   1.316   1.726  12.646 -0.0300  0.3262 -0.2107
15626TIP3    H168293   1.336   1.740  12.739 -1.0647 -2.1649  0.4753
15626TIP3    H268294   1.220   1.724  12.642  0.0058  0.1697 -1.2871
15627TIP3   OH268295   2.610   5.787  15.447  0.4710  0.4523  0.3242
15627TIP3    H168296   2.548   5.860  15.436 -0.4365 -0.4016 -0.5598
15627TIP3    H268297   2.635   5.789  15.539 -0.8154  0.9058  0.6850
15628TIP3   OH268298   3.327   5.782   2.350 -0.2513 -0.0570 -0.6279
15628TIP3    H168299   3.278   5.778   2.432  0.2442  2.1080 -0.1750
15628TIP3    H268300   3.395   5.715   2.359 -0.7461 -0.4389  0.3550
15629TIP3   OH268301   2.180   3.639   5.341 -0.0637 -0.0190 -0.0673
15629TIP3    H168302   2.149   3.717   5.387 -1.7154  0.6842 -2.1891
15629TIP3    H268303   2.164   3.567   5.402  1.6777  1.2382  2.0141
15630TIP3   OH268304   1.918   3.371   4.469 -0.6754  0.3232 -0.1253
15630TIP3    H168305   1.927   3.459   4.433  0.6000  0.5629  0.7003
15630TIP3    H268306   2.002   3.329   4.448 -0.9935 -0.4466  0.1326
15631TIP3   OH268307   2.152   3.191   6.662 -0.2656 -0.1236  0.0970
15631TIP3    H168308   2.189   3.280   6.660  3.0452 -1.0266  4.3393
15631TIP3    H268309   2.098   3.190   6.741 -0.3892 -1.7919  0.0281
15632TIP3   OH268310   1.300   3.727  16.379  0.4282 -0.6296 -0.5126
15632TIP3    H168311   1.209   3.746  16.355  0.5674  1.4251  0.3867
15632TIP3    H268312   1.296   3.705  16.472  0.9444  0.3643 -0.2449
15633TIP3   OH268313   6.797   1.939  11.854  0.2373  0.1710  0.0738
15633TIP3    H168314   6.842   1.997  11.792  0.1167  0.4262  0.2243
15633TIP3    H268315   6.851   1.860  11.855 -0.4968 -0.4048 -1.4082
15634TIP3   OH268316   1.630   6.787   1.907 -0.1485 -0.0371 -0.0027
15634TIP3    H168317   1.635   6.865   1.962 -0.7363 -0.9458  1.3703
15634TIP3    H268318   1.684   6.722   1.951 -1.3130 -1.0524 -0.0293
15635TIP3   OH268319   5.076   3.689  11.230  0.7479  0.1383  0.1076
15635TIP3    H168320   5.056   3.780  11.207  0.8634 -0.1889 -1.3808
15635TIP3    H268321   5.159   3.695  11.278 -0.5427  1.0428  2.3371
15636TIP3   OH268322   5.847   1.496   3.151  0.1148  0.4454  0.0980
15636TIP3    H168323   5.839   1.453   3.066  1.8935 -0.3520  0.2863
15636TIP3    H268324   5.758   1.523   3.173 -0.8454 -1.8026 -0.7345
15637TIP3   OH268325   5.703   5.940   0.035  0.4688  0.2833 -0.4729
15637TIP3    H168326   5.711   5.993   0.114 -0.6878  0.0978 -0.2151
15637TIP3    H268327   5.640   5.873   0.057  0.2179  0.1544 -1.5203
15638TIP3   OH268328   3.422   4.457  13.194  0.9280  0.6472 -0.1130
15638TIP3    H168329   3.504   4.408  13.192  1.1225  0.8491  1.4872
15638TIP3    H268330   3.394   4.453  13.285 -1.3298 -0.1917 -0.7816
15639TIP3   OH268331   4.489   1.676  16.223  0.1074 -0.0737  0.0615
15639TIP3    H168332   4.428   1.693  16.151 -0.2720 -1.2984  0.0772
15639TIP3    H268333   4.484   1.582  16.237  3.2137 -0.5364 -1.0395
15640TIP3   OH268334   2.354   3.905  12.809  0.6682  0.0490  0.4998
15640TIP3    H168335   2.339   3.992  12.774  1.1636  0.2107  0.6812
15640TIP3    H268336   2.267   3.867  12.818  0.5099  0.0168 -0.8540
15641TIP3   OH268337   3.792   2.189   0.548  0.4271 -0.6852  0.5637
15641TIP3    H168338   3.793   2.094   0.537 -1.9696 -0.7050 -0.0197
15641TIP3    H268339   3.716   2.207   0.603  1.1885  0.8824  1.1910
15642TIP3   OH268340   1.448   2.554   2.749  0.3081 -0.3663  0.1346
15642TIP3    H168341   1.539   2.526   2.743  0.6866  0.8554 -0.1004
15642TIP3    H268342   1.427   2.545   2.842  0.5957 -0.8392  0.1600
15643TIP3   OH268343   6.790   5.779  14.490  0.1828  0.9891  0.1849
15643TIP3    H168344   6.738   5.816  14.419  0.8966  0.9461 -0.3594
15643TIP3    H268345   6.734   5.710  14.526  0.7472 -0.6462 -1.8963
15644TIP3   OH268346   2.545   3.547  12.947 -0.5717 -0.2471 -0.2962
15644TIP3    H168347   2.457   3.528  12.980 -1.0340  1.4719 -0.4543
15644TIP3    H268348   2.547   3.642  12.939  1.5147 -0.2124  0.2366
15645TIP3   OH268349   6.401   4.902  10.391  0.8071  0.6085  0.6204
15645TIP3    H168350   6.487   4.863  10.408  0.8540  0.3720 -0.1179
15645TIP3    H268351   6.404   4.987  10.435  1.8249  1.0790 -0.3276
15646TIP3   OH268352   3.215   1.848  13.606  0.3388  0.3617 -0.3801
15646TIP3    H168353   3.148   1.878  13.544 -0.5438  1.6109  1.0957
15646TIP3    H268354   3.294   1.897  13.582  0.8041 -1.1593 -2.1691
15647TIP3   OH268355   0.970   6.353   2.695  0.3826  0.3772  0.1389
15647TIP3    H168356   1.060   6.332   2.722 -0.3831 -0.7907  1.9720
15647TIP3    H268357   0.927   6.381   2.776 -0.5695  2.2800 -0.9649
15648TIP3   OH268358   4.901   4.453   5.449  0.5673  0.1274  0.5305
15648TIP3    H168359   4.991   4.444   5.481  0.7707  2.0582  0.5991
15648TIP3    H268360   4.889   4.377   5.392  1.3365 -1.5844  2.5008
15649TIP3   OH268361   2.653   4.981  16.356  0.2666  0.0756 -0.2781
15649TIP3    H168362   2.679   4.961  16.267 -0.5409 -1.4690 -0.2052
15649TIP3    H268363   2.564   5.016  16.348 -0.0364 -0.6281 -0.0431
15650TIP3   OH268364   1.811   0.050   4.332  0.0164 -0.0108  0.5532
15650TIP3    H168365   1.740  -0.013   4.325  1.0476 -1.3944  1.8388
15650TIP3    H268366   1.777   0.118   4.390 -0.9548  0.4516 -0.5084
15651TIP3   OH268367   1.767   5.821  12.099 -0.2432  0.6263 -0.1777
15651TIP3    H168368   1.850   5.868  12.105  0.1958 -0.2320  0.6178
15651TIP3    H268369   1.711   5.878  12.046  1.5672  0.1333 -2.7694
15652TIP3   OH268370   4.876   3.587  11.973  0.6186  0.4111 -0.0305
15652TIP3    H168371   4.970   3.601  11.964  0.7115 -0.8815 -1.2796
15652TIP3    H268372   4.868   3.532  12.051  1.0495 -0.7950 -0.8120
15653TIP3   OH268373   6.457   2.690   3.313 -0.8061  0.3917 -0.2506
15653TIP3    H168374   6.369   2.690   3.276 -0.2375  0.6559 -1.6894
15653TIP3    H268375   6.487   2.780   3.302  0.7975 -0.3316 -2.8272
15654TIP3   OH268376   3.958   5.317  15.652  0.0104  0.0322  0.8804
15654TIP3    H168377   3.909   5.367  15.717 -0.0207  0.1477  0.7706
15654TIP3    H268378   4.049   5.340  15.667  0.0532 -0.3660  1.2391
15655TIP3   OH268379   5.719   3.089   1.773  0.0463  0.4514 -0.0555
15655TIP3    H168380   5.643   3.042   1.737  0.4953  0.0596 -0.5019
15655TIP3    H268381   5.763   3.024   1.828 -0.2283  0.8356  0.6321
15656TIP3   OH268382   1.634   0.126  15.909 -0.4260  0.1838 -0.4335
15656TIP3    H168383   1.657   0.068  15.836  1.0285 -0.3773  0.4265
15656TIP3    H268384   1.541   0.146  15.896 -0.5211 -0.9634 -1.6897
15657TIP3   OH268385   4.556   2.664   2.301  0.3008  0.5545 -0.0912
15657TIP3    H168386   4.616   2.596   2.334  0.2608  1.2202  1.4388
15657TIP3    H268387   4.470   2.636   2.330  0.3179  1.3777  0.8072
15658TIP3   OH268388   3.380   0.486   5.268 -0.3316 -0.0713  0.6378
15658TIP3    H168389   3.400   0.575   5.297  0.0076  0.3642 -0.8597
15658TIP3    H268390   3.398   0.486   5.174  0.6037 -1.9781  0.7517
15659TIP3   OH268391   3.216   6.627  13.841  0.8333  0.8024  0.6824
15659TIP3    H168392   3.173   6.651  13.923  0.4893  3.0734 -0.0970
15659TIP3    H268393   3.222   6.532  13.845  1.4939  0.8667  3.6373
15660TIP3   OH268394   2.275   0.205   5.511 -0.2878 -0.1377  0.4468
15660TIP3    H168395   2.325   0.279   5.544 -0.0704  0.3840 -0.9963
15660TIP3    H268396   2.206   0.192   5.577 -1.7577  2.8396 -0.3374
15661TIP3   OH268397   6.042   0.671  12.042  0.0700 -0.4189 -0.6139
15661TIP3    H168398   6.048   0.750  12.095  1.2412 -0.1364 -1.1259
15661TIP3    H268399   6.103   0.610  12.082 -0.3483 -0.8346 -0.6043
15662TIP3   OH268400   0.289   4.577   4.311 -0.0806  0.1327 -0.4093
15662TIP3    H168401   0.287   4.605   4.220 -1.3597  1.3465 -0.0367
15662TIP3    H268402   0.270   4.656   4.361  0.9525 -0.4330  0.9445
15663TIP3   OH268403   5.852   5.661   2.855 -0.1755  0.1653 -0.3928
15663TIP3    H168404   5.788   5.605   2.897 -1.6876  0.6378 -1.9466
15663TIP3    H268405   5.905   5.696   2.927 -1.8415 -0.0209  0.9697
15664TIP3   OH268406   2.401   1.003  11.906 -0.4920 -0.2622 -0.1283
15664TIP3    H168407   2.359   0.968  11.984  0.1907  0.1961  0.4512
15664TIP3    H268408   2.493   0.977  11.914 -0.3054  0.2695 -0.4952
15665TIP3   OH268409   0.597   1.586   5.527  0.5760  0.1842  0.1301
15665TIP3    H168410   0.540   1.601   5.602  0.5148 -0.4535  0.2211
15665TIP3    H268411   0.546   1.614   5.451 -0.6373 -2.1089  0.0059
15666TIP3   OH268412   4.554   4.793  16.194 -0.2083 -0.0369  0.1420
15666TIP3    H168413   4.634   4.836  16.164 -0.0224  0.0710  0.7729
15666TIP3    H268414   4.584   4.714  16.238 -0.3668  0.4846  1.2302
15667TIP3   OH268415   0.987   1.967   6.263  0.3845 -0.1861  0.2359
15667TIP3    H168416   0.904   1.919   6.259  0.7828 -0.8602 -0.1515
15667TIP3    H268417   0.999   1.985   6.356 -0.3592  0.2198  0.2662
15668TIP3   OH268418   2.553   4.446  13.408 -0.3438 -0.0367 -0.1596
15668TIP3    H168419   2.586   4.513  13.348 -0.1579  0.9447  0.9978
15668TIP3    H268420   2.620   4.377  13.405 -0.3565 -0.0242 -1.0849
15669TIP3   OH268421   0.196   3.967   1.055  0.0005  0.0953 -0.3224
15669TIP3    H168422   0.226   4.041   1.002  0.6025 -0.8357 -1.3370
15669TIP3    H268423   0.205   3.996   1.145 -2.2481  2.2001 -0.6871
15670TIP3   OH268424   0.028   6.359  16.733  0.0527 -0.0637  0.2820
15670TIP3    H168425   0.023   6.325  16.822  0.0576 -0.3909  0.1589
15670TIP3    H268426   0.083   6.296  16.686  1.0138  0.7022  0.3218
15671TIP3   OH268427   1.916   6.504   4.952  0.4350 -0.2843 -0.1684
15671TIP3    H168428   2.002   6.486   4.992  1.0548  0.9545 -0.8867
15671TIP3    H268429   1.888   6.586   4.993 -0.1981 -0.4475 -0.2787
15672TIP3   OH268430   1.295   5.139  16.714  0.9887 -0.3336 -0.2719
15672TIP3    H168431   1.337   5.150  16.629  0.3183 -1.1583 -0.7255
15672TIP3    H268432   1.203   5.160  16.699  1.3494  2.5449  0.9509
15673TIP3   OH268433   2.499   0.082   1.566  0.2098 -0.3925  0.2973
15673TIP3    H168434   2.436   0.119   1.627 -0.7569 -1.2950 -0.1263
15673TIP3    H268435   2.506   0.148   1.496 -2.3963 -1.4112 -1.0513
15674TIP3   OH268436   3.007   1.736  11.567  0.0391 -0.3251  0.0128
15674TIP3    H168437   3.010   1.677  11.642  0.0376 -2.1382 -1.3616
15674TIP3    H268438   3.081   1.711  11.512  0.1981  1.1405 -0.4986
15675TIP3   OH268439   4.917   3.985   2.397  0.4422  0.1568  0.2516
15675TIP3    H168440   4.919   3.979   2.302 -1.7047 -1.0399  0.2152
15675TIP3    H268441   4.856   4.056   2.416 -1.6662 -1.6399  0.6479
15676TIP3   OH268442   1.675   5.050   2.709  0.2023  0.0889  0.4901
15676TIP3    H168443   1.752   5.031   2.655 -0.5989 -0.9760 -0.3012
15676TIP3    H268444   1.699   5.016   2.796  0.2505 -1.2107 -0.0011
15677TIP3   OH268445   5.532   1.632   4.498  0.7927 -0.5790  0.5644
15677TIP3    H168446   5.602   1.653   4.560  3.2494 -0.4161 -2.0612
15677TIP3    H268447   5.559   1.549   4.458  0.6369  0.4871 -1.9530
15678TIP3   OH268448   0.744   3.882  11.698 -0.4171  0.1156 -0.1677
15678TIP3    H168449   0.810   3.812  11.694  0.8537  1.2497  0.3932
15678TIP3    H268450   0.663   3.836  11.722  0.2799 -1.2271 -0.2513
15679TIP3   OH268451   4.653   0.486  14.777 -0.3828 -0.6349 -0.0502
15679TIP3    H168452   4.694   0.486  14.691 -1.5545 -1.5700 -0.6385
15679TIP3    H268453   4.559   0.489  14.759 -0.6272  0.3693  1.2302
15680TIP3   OH268454   2.660   4.864   1.428 -0.1473  0.0927 -0.7758
15680TIP3    H168455   2.742   4.897   1.390 -0.0022 -0.5821 -1.0671
15680TIP3    H268456   2.605   4.942   1.438  0.2707  0.4560 -1.2421
15681TIP3   OH268457   0.790   0.922   5.882 -0.1043 -0.4421  0.4472
15681TIP3    H168458   0.735   0.959   5.952  0.2644 -0.0304  0.5267
15681TIP3    H268459   0.738   0.850   5.846  0.4834 -1.8910  2.3867
15682TIP3   OH268460   0.941   4.326   0.362  0.2181  0.6566 -0.3918
15682TIP3    H168461   0.957   4.255   0.425  2.1023  1.4284  0.0668
15682TIP3    H268462   0.864   4.372   0.396 -0.0358 -0.1763  0.1923
15683TIP3   OH268463   0.783   1.533  14.217 -0.2546  0.9343 -1.2066
15683TIP3    H168464   0.873   1.547  14.191 -0.0767  0.3427 -0.9278
15683TIP3    H268465   0.738   1.614  14.194  0.2972  1.1423 -1.5577
15684TIP3   OH268466   6.446   6.359   2.195 -0.5962 -0.1718  0.3425
15684TIP3    H168467   6.422   6.379   2.286 -0.9198  1.7860 -0.1104
15684TIP3    H268468   6.508   6.287   2.201  0.2744  0.6614  2.2274
15685TIP3   OH268469   0.198   6.518  16.341  0.0346  0.0229 -0.0278
15685TIP3    H168470   0.123   6.471  16.306 -2.6209  0.1434  4.7167
15685TIP3    H268471   0.256   6.449  16.374  0.4347 -0.0044 -0.7676
15686TIP3   OH268472   3.298   2.466  15.776 -0.2376  0.0280 -1.0137
15686TIP3    H168473   3.225   2.449  15.715 -0.2607 -1.5130 -0.5994
15686TIP3    H268474   3.371   2.491  15.719 -0.7027  0.2224 -1.5372
15687TIP3   OH268475   0.928   0.885  14.712 -0.0041  0.4522 -0.6153
15687TIP3    H168476   0.895   0.795  14.709  0.2920  0.3567 -1.3727
15687TIP3    H268477   0.937   0.904  14.805 -0.4832 -0.1478 -0.4358
15688TIP3   OH268478   5.032   2.319  16.663 -0.2941 -0.0280  0.0379
15688TIP3    H168479   5.011   2.258  16.592 -1.1434 -1.5426  1.5180
15688TIP3    H268480   4.994   2.279  16.741 -0.5158  2.2132  1.1643
15689TIP3   OH268481   1.015   5.547   5.292  0.1289  0.2053  0.0136
15689TIP3    H168482   1.036   5.456   5.271 -0.2404 -0.1285  1.0332
15689TIP3    H268483   1.075   5.570   5.363 -0.9213  0.1989  0.9217
15690TIP3   OH268484   1.009   4.592   0.884  0.1953  0.0691 -0.6383
15690TIP3    H168485   1.019   4.575   0.978 -4.2648 -0.7364 -0.1074
15690TIP3    H268486   0.988   4.507   0.846 -0.7256  0.8080 -1.8592
15691TIP3   OH268487   6.238   4.248  17.014 -0.5206  0.2647 -0.0529
15691TIP3    H168488   6.244   4.205  16.928 -3.0962 -0.7640  0.1677
15691TIP3    H268489   6.143   4.253  17.030 -0.1157 -0.9505  3.3975
15692TIP3   OH268490   1.038   1.610   1.343  0.2381  0.6962  0.0459
15692TIP3    H168491   1.099   1.632   1.414 -0.5775 -0.2989  1.1082
15692TIP3    H268492   0.960   1.578   1.389 -1.4620  2.7619 -1.2360
15693TIP3   OH268493   4.159   2.827  14.553 -0.3416 -0.0503 -0.7188
15693TIP3    H168494   4.181   2.750  14.501  1.3196  0.4412 -0.7761
15693TIP3    H268495   4.230   2.889  14.538  0.2002  0.1474  2.0844
15694TIP3   OH268496   1.384   2.966   5.595  0.2181  0.3045 -0.1708
15694TIP3    H168497   1.443   2.915   5.649 -1.2963  0.2333  1.5216
15694TIP3    H268498   1.402   2.938   5.505 -0.0524 -2.7152  0.6137
15695TIP3   OH268499   1.704   4.555  13.797  0.4461  0.0951  0.1539
15695TIP3    H168500   1.620   4.594  13.771 -0.6180 -1.1092  1.5852
15695TIP3    H268501   1.679   4.470  13.835  2.2299  0.1252  1.4921
15696TIP3   OH268502   6.633   6.002   1.843 -0.4544 -0.1810  0.5427
15696TIP3    H168503   6.542   6.030   1.852 -0.7249 -0.6136 -0.5809
15696TIP3    H268504   6.684   6.070   1.885 -1.3106 -0.0119  1.3300
15697TIP3   OH268505   5.847   4.854   1.072  0.4195  0.2051 -0.0461
15697TIP3    H168506   5.788   4.782   1.048  1.2592 -0.8609  0.9319
15697TIP3    H268507   5.920   4.845   1.011  0.4533  0.3200 -0.0215
15698TIP3   OH268508   3.874   6.295  11.558 -0.7602 -0.6909  0.5650
15698TIP3    H168509   3.936   6.286  11.631  0.3395  1.1211 -0.0716
15698TIP3    H268510   3.800   6.239  11.583  0.3468 -1.5377  2.2008
15699TIP3   OH268511   6.527   5.157  16.264 -0.3572 -0.1315  0.2633
15699TIP3    H168512   6.567   5.222  16.321 -1.2224 -0.4297  1.2409
15699TIP3    H268513   6.437   5.150  16.296 -1.2369  0.5671 -1.8893
15700TIP3   OH268514   3.452   4.482  12.904 -0.3846 -0.4190 -0.0446
15700TIP3    H168515   3.420   4.455  12.990  1.5539 -1.0339  0.5456
15700TIP3    H268516   3.462   4.400  12.856 -0.2927 -0.1838 -0.4277
15701TIP3   OH268517   0.521   6.002  15.325  0.0239 -0.5931 -0.2446
15701TIP3    H168518   0.494   6.092  15.310 -2.6151 -1.2619  0.0041
15701TIP3    H268519   0.516   5.990  15.420  0.5477 -0.9475 -0.2551
15702TIP3   OH268520   0.329   6.292   5.243 -0.1251 -0.1010 -0.0776
15702TIP3    H168521   0.291   6.238   5.313 -0.4315 -0.9713 -0.8891
15702TIP3    H268522   0.326   6.381   5.277 -2.6870 -0.1378 -0.0022
15703TIP3   OH268523   5.545   6.411  15.091  0.0686  0.5573  0.3588
15703TIP3    H168524   5.451   6.429  15.084 -0.6364 -2.4987  0.3887
15703TIP3    H268525   5.551   6.344  15.159  2.3826  1.1327  0.8015
15704TIP3   OH268526   0.277   3.862  11.876 -0.3446 -0.4011  0.4954
15704TIP3    H168527   0.311   3.825  11.957  1.5356 -1.2766 -0.6433
15704TIP3    H268528   0.354   3.878  11.822 -1.6739 -3.5193 -2.6835
15705TIP3   OH268529   1.882   6.148   4.977  0.0507 -0.1428 -0.2952
15705TIP3    H168530   1.868   6.107   4.892 -0.4155 -2.3525  0.7623
15705TIP3    H268531   1.946   6.092   5.020  0.5546  1.1459  0.6905
15706TIP3   OH268532   1.535   0.239  13.943 -0.0411 -0.0077 -0.0230
15706TIP3    H168533   1.514   0.158  13.898  1.5677  1.0529 -2.9454
15706TIP3    H268534   1.484   0.306  13.896  0.4494  0.9626  0.8030
15707TIP3   OH268535   5.908   5.069   5.555  0.2931  0.0889 -0.2502
15707TIP3    H168536   5.967   5.076   5.630  0.4720  1.5001 -0.4856
15707TIP3    H268537   5.966   5.077   5.479  0.0093 -0.4391 -0.5264
15708TIP3   OH268538   5.409   0.480   4.155 -0.3058 -0.3633 -0.2709
15708TIP3    H168539   5.471   0.446   4.220 -0.0188 -0.7749 -0.7631
15708TIP3    H268540   5.399   0.410   4.092  1.2374  0.8451 -1.9738
15709TIP3   OH268541   2.453   1.182   3.290  0.1099 -0.5619 -0.2060
15709TIP3    H168542   2.424   1.116   3.227  2.1281 -0.2329 -1.5726
15709TIP3    H268543   2.455   1.263   3.240 -0.4613  0.1715  0.9293
15710TIP3   OH268544   4.622   6.065  14.061  0.2636  0.4370 -0.0899
15710TIP3    H168545   4.641   6.143  14.113 -0.8703  0.4621  0.2992
15710TIP3    H268546   4.546   6.025  14.103 -0.2262  0.0616 -1.2971
15711TIP3   OH268547   3.046   1.983   3.054  0.3662 -0.3154 -0.0162
15711TIP3    H168548   3.105   1.912   3.078  2.3508  1.4493  0.6321
15711TIP3    H268549   3.008   2.011   3.138 -2.6427 -2.3018 -0.5308
15712TIP3   OH268550   1.503   5.249   6.721 -0.6755 -0.2612 -0.0039
15712TIP3    H168551   1.587   5.203   6.726 -0.9839 -1.0040 -1.1892
15712TIP3    H268552   1.440   5.182   6.696 -1.5426  0.3923  0.3815
15713TIP3   OH268553   0.050   3.784   1.573 -0.0781  0.1863 -0.6475
15713TIP3    H168554   0.033   3.861   1.518 -0.1572  0.7010  0.0920
15713TIP3    H268555   0.036   3.815   1.662 -1.1917 -0.9658 -0.3984
15714TIP3   OH268556   2.827   4.912  11.835  0.1758 -0.5205  0.4937
15714TIP3    H168557   2.845   4.998  11.797 -1.3273 -0.9601 -1.3747
15714TIP3    H268558   2.890   4.903  11.906  1.6922  1.2798 -0.5511
15715TIP3   OH268559   2.807   3.071   3.719  0.8909 -0.2426 -0.0385
15715TIP3    H168560   2.862   3.038   3.647 -0.3835 -0.0556 -1.1327
15715TIP3    H268561   2.768   2.992   3.757  1.3596 -0.3221  0.2844
15716TIP3   OH268562   3.900   1.311  16.467  0.0107 -0.3388 -0.5880
15716TIP3    H168563   3.810   1.279  16.471  0.1685 -1.3794 -3.3189
15716TIP3    H268564   3.953   1.233  16.455  1.1981  0.3516 -0.0247
15717TIP3   OH268565   3.048   1.014  14.859 -0.9102 -0.6298  0.5618
15717TIP3    H168566   3.068   0.967  14.778  1.5886  1.7631 -0.3818
15717TIP3    H268567   2.957   1.040  14.850 -1.0137 -1.4062 -0.9339
15718TIP3   OH268568   4.268   3.523  13.810 -0.3577  0.2506 -0.0840
15718TIP3    H168569   4.279   3.432  13.838 -2.3284 -0.0726 -0.1933
15718TIP3    H268570   4.223   3.565  13.882 -0.2362  0.9183 -0.3923
15719TIP3   OH268571   5.165   0.568   3.852 -0.6091  0.3560 -0.5619
15719TIP3    H168572   5.188   0.660   3.858 -1.7099  0.5906  0.5172
15719TIP3    H268573   5.078   0.562   3.893 -0.2423 -1.2641  0.0548
15720TIP3   OH268574   3.349   6.503  11.780  0.3182  0.1198 -0.2678
15720TIP3    H168575   3.301   6.472  11.703  0.1184  0.4695 -0.2865
15720TIP3    H268576   3.440   6.506  11.751  0.1579  0.9280 -0.7193
15721TIP3   OH268577   1.939   3.436   2.186 -0.0844  0.0522  0.0835
15721TIP3    H168578   1.871   3.458   2.250  1.2091  1.1280  1.1224
15721TIP3    H268579   1.931   3.505   2.119  0.3583  0.5129  0.5027
15722TIP3   OH268580   6.406   0.816   1.991 -0.0954  0.1776 -0.0123
15722TIP3    H168581   6.317   0.791   2.015  0.2677  0.3629  1.6288
15722TIP3    H268582   6.400   0.841   1.899 -1.6910 -0.0016  0.0162
15723TIP3   OH268583   3.697   4.363   4.311 -0.2790  0.1451  0.3688
15723TIP3    H168584   3.675   4.349   4.219 -0.6374  1.5629  0.2278
15723TIP3    H268585   3.685   4.276   4.351 -2.0378 -0.0696 -0.5314
15724TIP3   OH268586   5.578   1.427  11.903 -0.2966 -0.6923  0.2587
15724TIP3    H168587   5.551   1.475  11.824 -0.5055 -1.3691 -0.0913
15724TIP3    H268588   5.604   1.341  11.870 -0.2951 -0.9486  0.9232
15725TIP3   OH268589   2.531   6.401  11.915  0.4441  0.2424  0.7544
15725TIP3    H168590   2.498   6.490  11.916 -0.9522 -0.2614  1.9021
15725TIP3    H268591   2.550   6.380  12.006 -1.0440 -1.2397  0.7841
15726TIP3   OH268592   0.669   0.117   0.331 -0.0525  0.3144  0.3207
15726TIP3    H168593   0.637   0.199   0.368  0.6827  0.1846  1.2787
15726TIP3    H268594   0.751   0.100   0.377  0.0505 -0.7166 -0.2075
15727TIP3   OH268595   1.316   2.129   2.031 -0.4259  0.1520 -0.1032
15727TIP3    H168596   1.239   2.073   2.023 -0.5682  0.3686 -0.2535
15727TIP3    H268597   1.311   2.189   1.957 -0.2191  0.2971 -0.0035
15728TIP3   OH268598   5.284   2.610  11.411  0.6179 -0.5732  0.1945
15728TIP3    H168599   5.273   2.546  11.481  0.0182 -1.1879 -0.4394
15728TIP3    H268600   5.208   2.667  11.418  0.4279 -0.7858 -0.0980
15729TIP3   OH268601   4.203   0.922  15.893  0.0145 -0.1029 -0.4458
15729TIP3    H168602   4.277   0.960  15.940 -1.2343 -0.4211  1.9021
15729TIP3    H268603   4.230   0.833  15.874  0.6879  0.1496 -0.6988
15730TIP3   OH268604   5.030   5.838   3.387 -0.6661  0.7753 -0.1549
15730TIP3    H168605   5.112   5.806   3.422 -0.2384  2.1638  0.1884
15730TIP3    H268606   5.000   5.903   3.451 -1.7130  0.7389 -0.5819
15731TIP3   OH268607   6.337   0.219  14.577  0.3081 -0.0847 -0.4377
15731TIP3    H168608   6.273   0.154  14.605  0.5863 -0.5268 -0.8023
15731TIP3    H268609   6.305   0.249  14.492  0.8628 -0.7170 -0.8857
15732TIP3   OH268610   2.892   3.862   4.406 -0.5324  0.2438  0.3258
15732TIP3    H168611   2.935   3.876   4.322 -1.1074 -0.6441 -0.1366
15732TIP3    H268612   2.811   3.912   4.401 -0.5720  0.1823  0.3435
15733TIP3   OH268613   5.252   5.795  16.477 -0.0011 -0.1332  0.0052
15733TIP3    H168614   5.177   5.795  16.537  0.0121  2.9998  0.1862
15733TIP3    H268615   5.325   5.762  16.530 -1.1110 -3.0531 -0.1194
15734TIP3   OH268616   0.168   6.571  14.018  0.1035 -0.6840 -0.6742
15734TIP3    H168617   0.225   6.635  13.974  0.9933  0.2547  1.6509
15734TIP3    H268618   0.227   6.523  14.076 -1.1347 -1.1817  0.2089
15735TIP3   OH268619   1.885   5.203   5.361  0.1379 -0.0775 -0.0895
15735TIP3    H168620   1.917   5.280   5.408  1.6723 -1.8269  1.9309
15735TIP3    H268621   1.942   5.196   5.285  0.7446  0.1532  0.3326
15736TIP3   OH268622   3.646   2.283  12.664 -0.5636 -0.8306  0.5144
15736TIP3    H168623   3.582   2.244  12.723 -1.3497 -0.7836 -0.2848
15736TIP3    H268624   3.607   2.366  12.636  1.6293  1.2726  3.1775
15737TIP3   OH268625   4.503   4.125   2.322  0.1893  1.1411 -0.0790
15737TIP3    H168626   4.443   4.199   2.314 -1.5346 -0.1130  0.5954
15737TIP3    H268627   4.479   4.083   2.405  4.2411  2.4351  2.0071
15738TIP3   OH268628   2.336   3.302   2.905 -0.3793  0.0131 -0.1343
15738TIP3    H168629   2.420   3.261   2.929 -1.1166 -0.4646  1.8140
15738TIP3    H268630   2.360   3.389   2.874  0.7691  0.4647  1.8375
15739TIP3   OH268631   1.234   3.167  12.124 -0.3779 -0.3398  0.0011
15739TIP3    H168632   1.272   3.128  12.203 -0.0149  0.3690  0.1898
15739TIP3    H268633   1.229   3.260  12.144 -0.1217 -0.1294 -0.8889
15740TIP3   OH268634   6.046   1.715   5.867 -0.1182  0.5019 -0.1147
15740TIP3    H168635   6.099   1.713   5.947 -0.9980 -1.8182  0.4887
15740TIP3    H268636   6.101   1.761   5.803  2.1426 -0.7105  0.8286
15741TIP3   OH268637   3.650   0.901   5.638  0.5829 -0.8194 -0.7610
15741TIP3    H168638   3.725   0.896   5.697  1.4599 -0.2005 -1.7873
15741TIP3    H268639   3.667   0.978   5.584 -1.5210  0.2288 -0.0507
15742TIP3   OH268640   0.641   2.080  15.686  0.1657 -0.2061 -0.1422
15742TIP3    H168641   0.631   2.020  15.760  1.7479 -1.9753 -1.2697
15742TIP3    H268642   0.732   2.110  15.691 -0.1180  0.7618 -0.5748
15743TIP3   OH268643   5.237   2.930   1.414  0.9047 -0.3033  0.6974
15743TIP3    H168644   5.146   2.938   1.440  0.7384  0.4924 -0.1052
15743TIP3    H268645   5.275   2.870   1.479  0.1823  0.5225  1.9140
15744TIP3   OH268646   4.744   1.113   0.184 -0.1228 -0.2304  0.0097
15744TIP3    H168647   4.828   1.094   0.224 -0.4659 -1.5415  0.1424
15744TIP3    H268648   4.700   1.170   0.248 -0.0228 -0.9713  0.7588
15745TIP3   OH268649   6.149   3.217  15.415  0.1734  0.8839  0.7122
15745TIP3    H168650   6.209   3.199  15.487  2.4184 -1.9184 -1.5917
15745TIP3    H268651   6.188   3.291  15.368 -0.1947  1.4146  1.2364
15746TIP3   OH268652   6.227   2.684   5.041  0.3079  0.2323  0.2089
15746TIP3    H168653   6.183   2.615   5.089  0.8488  0.0816  0.4991
15746TIP3    H268654   6.244   2.752   5.106 -0.5545  0.8101 -0.1515
15747TIP3   OH268655   6.694   1.714  13.115 -0.1659 -0.0088  0.9238
15747TIP3    H168656   6.670   1.622  13.125 -0.0857 -0.0306  0.9180
15747TIP3    H268657   6.731   1.738  13.200 -1.8280  0.5194  1.5417
15748TIP3   OH268658   1.163   2.108  15.944 -0.1152  0.3374 -0.4312
15748TIP3    H168659   1.220   2.127  15.870  2.8072 -0.9197  1.3072
15748TIP3    H268660   1.130   2.020  15.927  0.5914  0.0320 -0.2740
15749TIP3   OH268661   6.398   5.665   3.651 -0.0578 -0.3892 -0.1601
15749TIP3    H168662   6.437   5.588   3.608  3.3810  0.4144  1.1945
15749TIP3    H268663   6.405   5.646   3.745  0.0317  1.1979  0.1834
15750TIP3   OH268664   6.717   3.154  10.370 -0.1900 -0.4139  0.0551
15750TIP3    H168665   6.797   3.165  10.421 -0.9158 -2.3870  1.7878
15750TIP3    H268666   6.747   3.135  10.281  1.1328  2.4170 -0.2026
15751TIP3   OH268667   5.933   5.690  12.533 -0.2056 -0.5547 -0.2561
15751TIP3    H168668   5.973   5.652  12.611  1.1609 -0.7456 -1.0145
15751TIP3    H268669   5.891   5.770  12.564 -0.3488 -1.0258  0.8018
15752TIP3   OH268670   0.744   1.379  16.936  0.9627 -0.1907  0.0128
15752TIP3    H168671   0.684   1.351  16.867  1.2843  0.6772 -0.6412
15752TIP3    H268672   0.756   1.473  16.920  0.5809  0.1547  1.6168
15753TIP3   OH268673   1.507   2.657   0.059  0.6566 -0.7427 -0.2936
15753TIP3    H168674   1.457   2.635  -0.020  1.9925  0.2268 -1.4522
15753TIP3    H268675   1.490   2.584   0.119 -2.6930 -0.1448 -0.3053
15754TIP3   OH268676   5.897   2.597   2.084 -0.0098  0.3293  1.0387
15754TIP3    H168677   5.892   2.614   2.178  0.6233 -0.2311  1.1812
15754TIP3    H268678   5.982   2.632   2.058 -0.1300  0.3710  0.6951
15755TIP3   OH268679   5.069   3.987  12.512  0.0015 -0.1340  0.2920
15755TIP3    H168680   5.020   3.909  12.538  1.3028 -1.4464 -0.9952
15755TIP3    H268681   5.153   3.954  12.481  0.8378  1.8477  0.2520
15756TIP3   OH268682   2.386   5.326   4.687 -0.0370 -0.2078 -0.4216
15756TIP3    H168683   2.403   5.312   4.594  2.3683  0.4512 -0.1563
15756TIP3    H268684   2.469   5.306   4.729 -0.6725  0.8885  1.4360
15757TIP3   OH268685   1.179   1.087  13.137  0.0699 -0.1416 -0.7726
15757TIP3    H168686   1.253   1.122  13.186  0.0620 -1.2466  0.0791
15757TIP3    H268687   1.103   1.107  13.191  0.0032 -0.9072 -0.5638
15758TIP3   OH268688   1.200   5.990   6.462 -0.2429 -0.2834  0.3435
15758TIP3    H168689   1.142   5.924   6.422 -0.9023  1.1506 -1.1894
15758TIP3    H268690   1.173   5.994   6.553 -1.1092 -1.1674  0.1393
15759TIP3   OH268691   1.062   0.662   6.772  0.6591  0.2401 -0.1262
15759TIP3    H168692   0.984   0.716   6.788 -0.2306 -1.2348  0.7216
15759TIP3    H268693   1.043   0.615   6.691  1.5016  1.2587 -0.9492
15760TIP3   OH268694   5.121   2.979   2.327  0.7797  0.4067  0.0784
15760TIP3    H168695   5.029   2.986   2.299  1.2162  0.3191 -1.4867
15760TIP3    H268696   5.156   2.906   2.276  1.3201 -0.6614  1.8817
15761TIP3   OH268697   0.426   2.037  13.169  0.2686 -0.9959 -0.1412
15761TIP3    H168698   0.410   2.121  13.126 -0.6019 -1.1660 -0.1768
15761TIP3    H268699   0.425   2.057  13.263  0.6853 -0.8719 -0.1594
15762TIP3   OH268700   1.318   0.068  16.619  0.1734 -0.1684  0.1566
15762TIP3    H168701   1.277   0.033  16.698  0.7934  1.6332  1.3370
15762TIP3    H268702   1.409   0.084  16.643  0.1871  1.1690 -0.6485
15763TIP3   OH268703   4.833   1.129  13.353  0.1945  0.0113  0.9000
15763TIP3    H168704   4.906   1.089  13.305 -0.9908 -2.5844  1.0603
15763TIP3    H268705   4.791   1.187  13.289  0.4661 -1.0250 -0.2631
15764TIP3   OH268706   2.498   6.661  10.928 -0.1706 -0.0785  0.9561
15764TIP3    H168707   2.535   6.639  10.842  0.6004  0.2596  1.1955
15764TIP3    H268708   2.476   6.754  10.921 -1.6798 -0.4328  0.5749
15765TIP3   OH268709   3.668   3.423   1.785 -0.0383  0.0628  0.3395
15765TIP3    H168710   3.646   3.388   1.871 -0.0583  0.6653  0.5834
15765TIP3    H268711   3.607   3.496   1.772 -0.1489 -0.1281 -0.2551
15766TIP3   OH268712   4.375   1.505  12.223  0.0522 -0.2352  0.6053
15766TIP3    H168713   4.446   1.531  12.164 -0.3259  1.1857  0.7417
15766TIP3    H268714   4.401   1.541  12.308 -0.5912 -0.1235  0.7584
15767TIP3   OH268715   3.338   2.145  15.853 -0.2259  0.1337  0.7111
15767TIP3    H168716   3.297   2.059  15.865  0.9951 -0.3929  1.3083
15767TIP3    H268717   3.415   2.127  15.799 -0.1339  0.9168  0.5644
15768TIP3   OH268718   5.551   5.962   0.872  0.3953  0.2920 -0.0072
15768TIP3    H168719   5.579   5.913   0.794  0.0464 -0.3436  0.2666
15768TIP3    H268720   5.633   5.988   0.914  0.5889 -1.0247  0.4570
15769TIP3   OH268721   1.763   1.020  13.857 -0.5089 -0.3596  0.2919
15769TIP3    H168722   1.802   1.104  13.883 -0.2639 -0.4942  0.3602
15769TIP3    H268723   1.749   1.028  13.763 -0.4751 -0.2462  0.2965
15770TIP3   OH268724   1.571   1.622  14.523 -0.2922  0.0503 -0.2323
15770TIP3    H168725   1.620   1.556  14.572  0.4625  0.6894 -0.0887
15770TIP3    H268726   1.484   1.585  14.511 -1.5566  0.9893  4.1758
15771TIP3   OH268727   2.366   3.970   3.614  1.0668 -0.1167 -0.0953
15771TIP3    H168728   2.396   4.057   3.639 -0.3519  0.2519  0.4718
15771TIP3    H268729   2.415   3.948   3.534  2.3105  0.6718  0.4289
15772TIP3   OH268730   0.726   0.699  15.299 -0.5805  0.2558  0.2924
15772TIP3    H168731   0.735   0.739  15.385  0.1807 -2.0124  1.3554
15772TIP3    H268732   0.671   0.760  15.250 -0.4650  1.9527  2.1373
15773TIP3   OH268733   6.491   2.738  11.660 -0.3560 -0.8309 -0.8641
15773TIP3    H168734   6.444   2.670  11.708 -1.1309  0.8472  0.9030
15773TIP3    H268735   6.583   2.714  11.668 -0.5787 -1.3976  0.2239
15774TIP3   OH268736   6.519   3.249   3.455 -0.1113 -0.2152  0.1509
15774TIP3    H168737   6.449   3.185   3.469  0.6195 -2.1213 -3.6190
15774TIP3    H268738   6.598   3.207   3.488  0.2161 -0.9484 -1.4772
15775TIP3   OH268739   2.940   0.293   2.901  0.0932 -0.4392  0.2230
15775TIP3    H168740   3.001   0.243   2.954  1.0095  0.9446  0.5287
15775TIP3    H268741   2.971   0.383   2.907 -0.0685 -0.1489 -2.2431
15776TIP3   OH268742   2.454   5.175  16.287  1.1047  0.2821 -1.1184
15776TIP3    H168743   2.446   5.267  16.260  1.1184  0.3607 -0.8594
15776TIP3    H268744   2.388   5.129  16.235 -0.2110  0.7268  0.0858
15777TIP3   OH268745   6.752   5.000  14.701  0.0664 -0.1100 -0.5176
15777TIP3    H168746   6.711   5.068  14.755 -0.4807  0.7504 -1.9631
15777TIP3    H268747   6.846   5.016  14.709 -0.0461  0.6135 -0.5622
15778TIP3   OH268748   0.995   0.716   0.552  0.6011 -0.7950  0.4025
15778TIP3    H168749   1.074   0.765   0.530  0.8541 -1.3537  0.0433
15778TIP3    H268750   0.947   0.710   0.469 -0.3396  0.4281  0.8141
15779TIP3   OH268751   0.490   2.996   2.240 -0.3438 -0.0329  0.2250
15779TIP3    H168752   0.557   2.935   2.270 -1.1874 -0.8332  0.5059
15779TIP3    H268753   0.523   3.027   2.156  0.7130  0.1236  0.6834
15780TIP3   OH268754   0.407   3.884  12.932  0.1941  0.2402 -0.0419
15780TIP3    H168755   0.428   3.965  12.978  0.0093  2.4133 -3.4233
15780TIP3    H268756   0.328   3.905  12.881 -0.5833 -2.4937 -0.1088
15781TIP3   OH268757   2.704   3.474   2.468 -0.2265  0.0681  0.1044
15781TIP3    H168758   2.618   3.507   2.492 -0.7715 -2.2553  1.6533
15781TIP3    H268759   2.765   3.522   2.524 -0.8342 -0.4566  1.2372
15782TIP3   OH268760   4.168   5.086   2.616  0.0295  0.2861  0.0137
15782TIP3    H168761   4.263   5.083   2.627  0.0488 -1.3769 -0.3421
15782TIP3    H268762   4.152   5.047   2.530 -1.0046 -0.1275  0.3692
15783TIP3   OH268763   2.022   0.511   3.695 -0.4869  0.1421 -0.0442
15783TIP3    H168764   1.935   0.539   3.724 -0.3575 -0.4475  0.9770
15783TIP3    H268765   2.069   0.592   3.678 -0.9964  0.4871  0.1688
15784TIP3   OH268766   2.866   5.318   1.364  0.2706  0.3341 -0.5704
15784TIP3    H168767   2.910   5.394   1.402 -0.7467  0.5930  0.1388
15784TIP3    H268768   2.775   5.326   1.394 -0.0184 -0.7563 -1.1143
15785TIP3   OH268769   2.316   0.334  13.365  0.0858  0.5275  0.3974
15785TIP3    H168770   2.359   0.369  13.287 -0.4971  0.9588  0.2707
15785TIP3    H268771   2.369   0.257  13.388 -0.6862 -0.6095 -1.4040
15786TIP3   OH268772   6.552   3.237  12.344  0.4996 -0.0152  0.1123
15786TIP3    H168773   6.600   3.160  12.313 -1.0321 -0.5659 -0.9802
15786TIP3    H268774   6.536   3.289  12.266 -2.9984 -1.1819 -0.0811
15787TIP3   OH268775   0.372   5.022  11.177 -0.4700 -0.2576 -0.0243
15787TIP3    H168776   0.333   4.971  11.248  0.4204 -0.9214  0.0135
15787TIP3    H268777   0.396   4.956  11.112  1.6137 -0.0355  0.4518
15788TIP3   OH268778   0.803   6.683   0.951  0.0974 -0.2587 -0.1396
15788TIP3    H168779   0.746   6.717   1.021  0.4658  0.0345  0.0191
15788TIP3    H268780   0.744   6.673   0.876  0.0061  0.8845 -0.2418
15789TIP3   OH268781   4.609   6.585   1.256 -0.4845 -0.5000 -0.0828
15789TIP3    H168782   4.621   6.680   1.254 -0.3793 -0.5074 -1.6590
15789TIP3    H268783   4.570   6.567   1.341 -0.6060  0.9730  0.1989
15790TIP3   OH268784   6.764   0.507   3.468  0.1964 -0.2729  0.0382
15790TIP3    H168785   6.808   0.434   3.511  2.1227  1.4330  1.1641
15790TIP3    H268786   6.781   0.582   3.525 -0.1124  1.4335 -1.9789
15791TIP3   OH268787   5.928   2.274   5.793 -0.0157 -0.2444  0.4786
15791TIP3    H168788   6.004   2.307   5.745 -0.7390  1.0514  0.1912
15791TIP3    H268789   5.951   2.183   5.813  2.2863  0.5185  1.7530
15792TIP3   OH268790   4.994   0.818   5.906  0.3933  0.1113 -0.0610
15792TIP3    H168791   4.922   0.861   5.859 -0.9025 -1.4711  0.3606
15792TIP3    H268792   4.959   0.732   5.928  1.3942  0.3016  2.6531
15793TIP3   OH268793   4.754   1.123  17.020  0.0801  0.0935 -0.0257
15793TIP3    H168794   4.761   1.152  17.111  0.3859  1.7374 -0.5232
15793TIP3    H268795   4.827   1.168  16.976  0.2991 -1.1538 -0.9679
15794TIP3   OH268796   6.353   0.834  11.879 -0.2010 -0.2143 -0.6428
15794TIP3    H168797   6.381   0.763  11.936  0.2944 -1.7840 -2.7030
15794TIP3    H268798   6.424   0.898  11.884  0.0029 -0.4983  0.1945
15795TIP3   OH268799   1.870   2.606  16.000 -0.2907  0.3749 -0.4070
15795TIP3    H168800   1.825   2.663  16.063 -0.3168 -0.4429  0.3390
15795TIP3    H268801   1.917   2.543  16.055  1.3148  0.8453 -1.1710
15796TIP3   OH268802   0.609   1.030  13.050 -0.1719 -0.5424 -0.1559
15796TIP3    H168803   0.696   0.999  13.027 -0.1812 -0.8759  0.2495
15796TIP3    H268804   0.563   1.037  12.966  0.2937 -0.1959 -0.3869
15797TIP3   OH268805   2.987   0.980   1.925 -0.2805  0.1385 -0.5583
15797TIP3    H168806   3.009   0.992   2.017 -0.7395 -0.2749 -0.3879
15797TIP3    H268807   3.070   0.958   1.883 -0.0833  0.2549 -0.2326
15798TIP3   OH268808   3.216   3.340   3.374 -0.6391  0.4076  0.5836
15798TIP3    H168809   3.246   3.342   3.283 -0.0734  1.7625  0.7807
15798TIP3    H268810   3.126   3.307   3.369 -0.4464  0.0019 -0.4003
15799TIP3   OH268811   6.549   5.283  11.343 -0.3222  0.6114  0.4619
15799TIP3    H168812   6.551   5.188  11.334 -3.1755  0.5071 -0.0694
15799TIP3    H268813   6.558   5.299  11.437 -0.1048 -0.2021  0.5811
15800TIP3   OH268814   4.538   1.756  16.938  0.5301  0.2599  0.4569
15800TIP3    H168815   4.530   1.712  17.023 -0.7592 -1.7397 -0.6438
15800TIP3    H268816   4.467   1.820  16.938  0.9871  0.7882  1.1390
15801TIP3   OH268817   0.231   3.235   0.908  0.3307  0.1775  0.3030
15801TIP3    H168818   0.201   3.324   0.891 -1.8702 -0.7273 -1.0118
15801TIP3    H268819   0.253   3.200   0.821 -0.0583 -0.9428  0.6312
15802TIP3   OH268820   0.072   3.609  16.111 -0.0027  0.1399  0.1507
15802TIP3    H168821   0.087   3.519  16.081 -0.8982  0.4799 -1.3887
15802TIP3    H268822   0.052   3.658  16.031 -0.5870  1.4856  1.0934
15803TIP3   OH268823   3.662   0.332   3.181  0.0162 -0.2110  0.5070
15803TIP3    H168824   3.628   0.404   3.233  0.7188  0.0457  0.6234
15803TIP3    H268825   3.750   0.318   3.215 -0.0690 -1.0477  0.4037
15804TIP3   OH268826   2.261   2.340  10.847 -1.0564  0.3909 -0.0361
15804TIP3    H168827   2.296   2.310  10.931 -0.9924 -1.4075 -0.6557
15804TIP3    H268828   2.213   2.265  10.813 -1.5497  1.2681 -1.3613
15805TIP3   OH268829   5.678   4.789   0.086  0.1090 -0.3737  0.4392
15805TIP3    H168830   5.590   4.806   0.120 -0.0159 -0.0913 -0.0307
15805TIP3    H268831   5.725   4.753   0.161  0.1320  1.1860  1.1998
15806TIP3   OH268832   4.271   3.116  15.157  0.0367  0.0887  0.4128
15806TIP3    H168833   4.286   3.183  15.090  0.3168  1.1464  1.5018
15806TIP3    H268834   4.318   3.148  15.234 -3.0799  0.6811  2.2304
15807TIP3   OH268835   6.347   0.522  15.503  0.1494  0.3055 -0.0621
15807TIP3    H168836   6.322   0.445  15.452  0.3323 -0.3875  0.8624
15807TIP3    H268837   6.326   0.596  15.447 -2.5362 -0.2948  0.0471
15808TIP3   OH268838   1.974   6.075  13.252  0.0126 -0.4593 -0.3152
15808TIP3    H168839   1.959   5.983  13.269 -0.0084 -0.2462  0.8671
15808TIP3    H268840   1.947   6.087  13.161 -1.7911 -1.2376  0.0782
15809TIP3   OH268841   1.707   4.492  16.690  0.2529 -0.0385  0.1083
15809TIP3    H168842   1.778   4.518  16.630 -0.4587  1.5098 -0.1124
15809TIP3    H268843   1.641   4.452  16.634  0.1420  0.2501  0.0289
15810TIP3   OH268844   2.979   5.064  10.943 -0.0554 -0.9196  0.3107
15810TIP3    H168845   2.962   5.024  10.857  0.8270 -0.8174  0.0853
15810TIP3    H268846   2.899   5.047  10.993 -1.2216  0.3634 -1.0299
15811TIP3   OH268847   2.503   1.294   1.386  0.2541 -0.2572  0.4646
15811TIP3    H168848   2.456   1.371   1.354  0.5822 -0.5023 -0.6839
15811TIP3    H268849   2.477   1.285   1.477  0.1201  1.1459  0.5841
15812TIP3   OH268850   4.934   3.145  16.467 -0.6469 -0.0032  0.1600
15812TIP3    H168851   4.978   3.060  16.471 -0.9384 -0.3421 -2.2478
15812TIP3    H268852   5.000   3.207  16.500 -0.4002 -1.0950  1.8609
15813TIP3   OH268853   2.268   1.295  16.856 -0.0718 -0.1725  0.3539
15813TIP3    H168854   2.325   1.232  16.900 -1.2345 -1.1763  0.5058
15813TIP3    H268855   2.209   1.240  16.804  0.4280  0.9259 -1.4518
15814TIP3   OH268856   2.158   4.018  15.760  0.0986  0.3917  0.2760
15814TIP3    H168857   2.253   4.012  15.770  0.1978  2.1042  0.7776
15814TIP3    H268858   2.123   3.951  15.819  0.9762  1.5094  2.1656
15815TIP3   OH268859   5.684   2.536   5.303  0.1853  0.3727  0.7214
15815TIP3    H168860   5.645   2.571   5.383 -0.2729 -0.0737  0.6963
15815TIP3    H268861   5.615   2.482   5.264  0.3442  0.7210 -0.0620
15816TIP3   OH268862   4.487   2.969   1.127  0.1601  0.4822 -0.3198
15816TIP3    H168863   4.436   3.017   1.192  0.7177 -0.4424  0.8473
15816TIP3    H268864   4.538   3.036   1.082 -1.6121  1.3466 -1.1088
15817TIP3   OH268865   1.247   3.925  12.791 -0.2720  0.4018 -0.7015
15817TIP3    H168866   1.236   3.832  12.768  0.2189  0.2063 -0.1544
15817TIP3    H268867   1.182   3.970  12.736 -0.2221 -0.2151 -1.2927
15818TIP3   OH268868   1.477   5.200   3.316 -0.6182 -0.1715 -0.5396
15818TIP3    H168869   1.499   5.210   3.223  0.6417 -0.2634 -0.2693
15818TIP3    H268870   1.391   5.239   3.324 -0.3039  0.7890 -1.5464
15819TIP3   OH268871   5.224   1.895   0.386  0.1860 -0.1921  0.2928
15819TIP3    H168872   5.273   1.889   0.305  0.7238  1.3223  0.4747
15819TIP3    H268873   5.284   1.864   0.454  1.1469  2.1308  0.5831
15820TIP3   OH268874   5.572   6.575   1.978  0.4610 -0.0375 -0.9215
15820TIP3    H168875   5.624   6.587   1.898  0.6872 -0.0491 -0.7770
15820TIP3    H268876   5.582   6.482   2.000 -0.5230 -0.2907 -1.5110
15821TIP3   OH268877   6.285   0.507   0.220  0.4287 -0.6261 -0.4979
15821TIP3    H168878   6.203   0.538   0.181 -0.2412 -1.5832  0.1082
15821TIP3    H268879   6.338   0.586   0.229 -1.4022  0.4905  1.4149
15822TIP3   OH268880   4.442   2.602   1.561  0.0488  0.2120  0.3543
15822TIP3    H168881   4.440   2.669   1.492  0.4075  0.8186  0.9215
15822TIP3    H268882   4.410   2.646   1.639  1.0732 -0.0300  0.9395
15823TIP3   OH268883   3.934   5.425   4.059 -0.4101 -0.0801 -0.4255
15823TIP3    H168884   3.955   5.351   4.002 -1.7907  0.4573 -1.6939
15823TIP3    H268885   4.015   5.442   4.106  1.1005 -0.0128 -2.8616
15824TIP3   OH268886   4.780   5.543   4.977 -0.4868 -0.0978 -0.3909
15824TIP3    H168887   4.748   5.606   4.912 -1.2164 -0.3201 -0.2509
15824TIP3    H268888   4.853   5.499   4.934 -0.0628  0.7372 -0.5466
15825TIP3   OH268889   4.648   3.355   5.435  0.5973 -0.4477  0.6509
15825TIP3    H168890   4.641   3.261   5.452 -1.2054  0.0299  3.1185
15825TIP3    H268891   4.709   3.387   5.502 -0.2838  0.3687  1.0899
15826TIP3   OH268892   2.480   2.992   1.320 -0.7813  0.5139  0.4841
15826TIP3    H168893   2.442   2.923   1.265  0.7929  0.3471 -0.4426
15826TIP3    H268894   2.498   2.949   1.403 -1.4489  0.2825  0.5192
15827TIP3   OH268895   4.367   3.778  14.101 -0.8871  0.0825 -0.2042
15827TIP3    H168896   4.382   3.801  14.193 -1.4692 -0.2123 -0.0279
15827TIP3    H268897   4.418   3.699  14.087 -0.1055  0.6064 -0.3834
15828TIP3   OH268898   0.374   0.503  17.062 -0.2821  0.3807 -0.1546
15828TIP3    H168899   0.371   0.599  17.070  0.2535  0.5715 -1.9013
15828TIP3    H268900   0.317   0.483  16.988  1.3903 -0.4180 -1.2790
15829TIP3   OH268901   1.925   1.891   2.951 -0.0690  0.0671  0.5137
15829TIP3    H168902   1.974   1.952   2.896  1.0073 -0.4875  0.8295
15829TIP3    H268903   1.886   1.830   2.889  0.5596 -0.1380  0.3052
15830TIP3   OH268904   5.740   1.002  12.689  0.1042  0.6272  0.3122
15830TIP3    H168905   5.737   0.950  12.609 -0.4349  1.8836 -0.5061
15830TIP3    H268906   5.767   0.940  12.757 -1.9794 -1.1061 -0.3245
15831TIP3   OH268907   0.395   6.415  16.979 -0.2151  0.2026  0.0595
15831TIP3    H168908   0.434   6.497  17.009 -1.2645  0.6925  0.1229
15831TIP3    H268909   0.331   6.440  16.913  0.3521 -0.6841 -0.8607
15832TIP3   OH268910   0.945   5.936  15.975 -0.1478 -0.6586  0.4502
15832TIP3    H168911   0.980   5.960  16.061 -2.3780 -1.6533  1.7430
15832TIP3    H268912   0.986   5.851  15.956 -0.0886 -0.7105  0.8041
15833TIP3   OH268913   6.290   2.705   5.422 -0.5964  0.7543  0.0626
15833TIP3    H168914   6.239   2.648   5.365 -2.0924  1.0954  0.9994
15833TIP3    H268915   6.229   2.731   5.491  0.2916  2.7863  0.1477
15834TIP3   OH268916   0.841   3.610   3.375  0.0852  0.2264  0.7451
15834TIP3    H168917   0.808   3.577   3.291  3.0896  0.5518 -0.6959
15834TIP3    H268918   0.869   3.531   3.422  1.0898  0.2031  0.1445
15835TIP3   OH268919   4.068   0.158  10.451  1.0636  0.1611  0.1566
15835TIP3    H168920   4.036   0.068  10.445  1.7342 -0.1013  0.3546
15835TIP3    H268921   4.146   0.152  10.507  1.3513  0.8033 -0.1607
15836TIP3   OH268922   3.944   3.713   2.551 -0.3264 -0.0560  0.1817
15836TIP3    H168923   3.880   3.715   2.479  0.8993 -1.3624 -1.0187
15836TIP3    H268924   3.929   3.630   2.595 -0.2083  0.1498  0.6147
15837TIP3   OH268925   5.310   4.087   3.140 -0.0295  0.3946 -0.2697
15837TIP3    H168926   5.271   4.109   3.225 -0.9890  0.1254 -0.6270
15837TIP3    H268927   5.243   4.113   3.076  0.7431  0.7343 -0.9586
15838TIP3   OH268928   3.108   2.877   0.817 -0.3767 -0.2334  0.7018
15838TIP3    H168929   3.164   2.935   0.868  1.4311 -1.6257  0.3948
15838TIP3    H268930   3.022   2.921   0.816 -0.0358  0.6639  3.4408
15839TIP3   OH268931   0.824   3.194  11.619  0.0606  0.8312 -0.0112
15839TIP3    H168932   0.859   3.234  11.698 -1.2431  1.0215  0.4972
15839TIP3    H268933   0.791   3.269  11.568  0.2199  0.6440 -0.3927
15840TIP3   OH268934   3.401   6.613  13.639 -0.0107 -0.2310  0.0466
15840TIP3    H168935   3.335   6.618  13.708 -1.2623 -0.6865 -1.0746
15840TIP3    H268936   3.435   6.524  13.644 -2.3313 -1.3351 -1.8259
15841TIP3   OH268937   3.941   2.797  11.620  0.2593 -0.1764 -0.3471
15841TIP3    H168938   3.861   2.745  11.628 -0.5573  1.1150  0.0888
15841TIP3    H268939   3.927   2.872  11.677  2.1471 -0.3484  0.4088
15842TIP3   OH268940   6.153   1.943   6.298  0.8972  0.7551  0.2916
15842TIP3    H168941   6.075   1.979   6.256  1.3445  1.2319 -0.1400
15842TIP3    H268942   6.123   1.859   6.334 -0.1178  1.4673  1.1987
15843TIP3   OH268943   4.293   2.415   2.088  0.1303 -0.0465  0.3532
15843TIP3    H168944   4.341   2.357   2.147  1.1990 -0.3090 -0.7378
15843TIP3    H268945   4.293   2.369   2.004  2.0456  2.0027 -0.8703
15844TIP3   OH268946   4.404   2.323   4.758  0.4481 -0.7483  0.5366
15844TIP3    H168947   4.319   2.302   4.795  0.7272 -1.3765  0.8328
15844TIP3    H268948   4.397   2.301   4.666 -0.3877  1.2129  0.0715
15845TIP3   OH268949   5.438   1.497   1.089  0.4007 -0.2322  0.5394
15845TIP3    H168950   5.473   1.409   1.099 -0.7537 -0.7149  0.4493
15845TIP3    H268951   5.391   1.514   1.170  0.1447  0.0828  0.3255
15846TIP3   OH268952   5.949   6.621  13.793 -0.1211  0.2197 -0.6956
15846TIP3    H168953   5.927   6.713  13.802 -3.5232 -0.4692 -0.7466
15846TIP3    H268954   5.975   6.611  13.701 -1.9822  0.7909 -1.3257
15847TIP3   OH268955   2.845   0.619   4.556 -0.5008 -0.0728 -0.2391
15847TIP3    H168956   2.815   0.664   4.635  0.7457  0.6068 -0.1248
15847TIP3    H268957   2.938   0.602   4.572  0.2292  1.6512 -2.2658
15848TIP3   OH268958   6.554   3.225  10.559 -0.1439 -0.1022 -0.3391
15848TIP3    H168959   6.604   3.211  10.479 -1.0254 -2.4311 -0.5706
15848TIP3    H268960   6.468   3.187  10.540 -0.5830 -0.1012  1.4763
15849TIP3   OH268961   4.317   3.629   5.993  0.1463 -0.1026 -0.0946
15849TIP3    H168962   4.236   3.680   6.002  1.8132  2.3861  2.8327
15849TIP3    H268963   4.345   3.643   5.902 -1.9065  0.2081 -0.7194
15850TIP3   OH268964   0.316   5.046  11.528 -0.2789 -0.7563  0.1840
15850TIP3    H168965   0.409   5.022  11.528 -0.9829 -4.1742  1.5671
15850TIP3    H268966   0.302   5.086  11.614 -0.2549 -1.3031  0.4523
15851TIP3   OH268967   0.817   4.407  14.509  0.0285 -0.3232  0.4902
15851TIP3    H168968   0.736   4.367  14.479  0.8053 -1.1151 -0.6138
15851TIP3    H268969   0.838   4.473  14.443  1.0360 -1.1342 -0.0245
15852TIP3   OH268970   0.876   1.159   1.918 -0.2445  0.2078 -0.2329
15852TIP3    H168971   0.909   1.073   1.895  0.9861  0.9415 -1.3695
15852TIP3    H268972   0.906   1.173   2.008  0.3434 -0.1781 -0.3649
15853TIP3   OH268973   4.212   5.938   6.389 -0.0377  0.1896 -0.4469
15853TIP3    H168974   4.219   5.844   6.373 -0.1513 -0.4241  2.5885
15853TIP3    H268975   4.121   5.952   6.415  0.6092  0.5680  1.8734
15854TIP3   OH268976   5.030   3.454   5.145  0.2463 -0.2416  0.3389
15854TIP3    H168977   5.103   3.496   5.192 -0.6655  2.8804 -0.7380
15854TIP3    H268978   5.052   3.467   5.052 -1.4093  0.3863  0.0025
15855TIP3   OH268979   4.108   0.227   1.776 -0.1920 -0.0676  0.5101
15855TIP3    H168980   4.106   0.132   1.774  0.1171 -0.0653 -1.2005
15855TIP3    H268981   4.020   0.254   1.750 -0.5172  0.1365  1.7554
15856TIP3   OH268982   2.484   3.921   5.723 -0.2178 -0.3386  0.2934
15856TIP3    H168983   2.568   3.962   5.704 -1.2583  1.1573 -1.3752
15856TIP3    H268984   2.434   3.989   5.768 -0.7873 -0.9692  0.6386
15857TIP3   OH268985   0.844   4.555   3.684 -0.3006 -0.1047  0.1632
15857TIP3    H168986   0.840   4.471   3.638 -1.2482  0.1158 -0.1841
15857TIP3    H268987   0.752   4.578   3.699 -0.0310  0.3003  1.3122
15858TIP3   OH268988   2.066   2.413   4.914 -0.6608  0.0155  0.3378
15858TIP3    H168989   2.107   2.333   4.882  1.7892  1.2778  0.1210
15858TIP3    H268990   2.007   2.383   4.983  0.1507 -1.9845  0.2350
15859TIP3   OH268991   1.727   0.254   4.460  0.2474 -0.1185  0.1908
15859TIP3    H168992   1.796   0.312   4.494  1.7270  0.3408 -3.1734
15859TIP3    H268993   1.690   0.303   4.386 -0.7206 -2.1573 -0.7399
15860TIP3   OH268994   1.656   1.390  11.283 -0.0878 -0.6827 -0.0365
15860TIP3    H168995   1.573   1.344  11.270  0.1719 -1.2285  0.2144
15860TIP3    H268996   1.715   1.354  11.216 -0.2973  0.3298 -0.7888
15861TIP3   OH268997   0.819   6.538  12.317 -0.1455 -0.2837  0.0526
15861TIP3    H168998   0.753   6.523  12.384 -0.3743  0.3506 -0.0293
15861TIP3    H268999   0.901   6.511  12.357 -0.2990 -0.0293  0.5346
15862TIP3   OH269000   3.579   6.535   3.516 -0.7181  0.3470 -0.1158
15862TIP3    H169001   3.615   6.621   3.539  0.1412 -0.6183  2.5231
15862TIP3    H269002   3.543   6.502   3.598 -0.1959 -2.2020 -0.8371
15863TIP3   OH269003   0.791   6.448  14.506 -0.6536  0.0946  0.1181
15863TIP3    H169004   0.836   6.425  14.587 -1.5088  0.5737  0.7507
15863TIP3    H269005   0.861   6.472  14.445 -0.0884  2.1460  1.4905
15864TIP3   OH269006   0.567   4.519  13.178  0.0446  0.0132  0.0424
15864TIP3    H169007   0.529   4.607  13.175 -3.0868 -0.9393  3.6465
15864TIP3    H269008   0.648   4.530  13.228  0.0354  0.9657 -0.1348
15865TIP3   OH269009   3.427   0.237   1.942 -0.2765  0.0956 -0.6789
15865TIP3    H169010   3.478   0.311   1.910  1.2349 -0.9200 -0.7374
15865TIP3    H269011   3.490   0.165   1.949 -1.4193 -0.8512  0.6049
15866TIP3   OH269012   3.418   1.688  14.031  0.1439 -0.2225  0.0553
15866TIP3    H169013   3.412   1.683  13.936  0.3759  0.8888 -0.0232
15866TIP3    H269014   3.509   1.713  14.049  0.2364 -0.9109  0.5935
15867TIP3   OH269015   0.768   1.486   0.260  0.3605 -0.7867  0.0591
15867TIP3    H169016   0.830   1.495   0.188  1.6814 -0.6766  1.1718
15867TIP3    H269017   0.762   1.391   0.275  0.8600 -0.7619  0.4405
15868TIP3   OH269018   3.278   3.419   1.067 -0.1310  0.2070 -0.0545
15868TIP3    H169019   3.246   3.352   1.007 -0.2268  1.7620 -1.8587
15868TIP3    H269020   3.199   3.453   1.110 -0.4665  1.0755 -1.2867
15869TIP3   OH269021   1.023   5.933   0.370 -0.3525  0.2157 -0.1819
15869TIP3    H169022   0.949   5.966   0.420  0.2449  0.1412  0.7707
15869TIP3    H269023   1.062   6.011   0.330 -0.0784  0.4393  0.5095
15870TIP3   OH269024   6.245   2.814  13.894 -0.0124 -0.2099  0.6367
15870TIP3    H169025   6.275   2.743  13.836 -4.6283 -0.0980 -2.4414
15870TIP3    H269026   6.220   2.769  13.975  1.0217 -1.3862  0.3497
15871TIP3   OH269027   0.808   4.979  13.057  0.2625  0.1597 -0.5656
15871TIP3    H169028   0.755   5.042  13.009 -1.6109 -0.3651  0.6733
15871TIP3    H269029   0.777   4.893  13.027 -0.9359 -0.1788  1.4456
15872TIP3   OH269030   1.572   5.145   2.378 -0.5391 -0.0666 -0.1548
15872TIP3    H169031   1.557   5.158   2.284  0.6192  0.9122 -0.2320
15872TIP3    H269032   1.659   5.182   2.393 -0.3650 -0.9539  1.1623
15873TIP3   OH269033   1.124   0.769  13.019 -0.4862 -0.4490 -0.4637
15873TIP3    H169034   1.031   0.790  13.006 -0.5378 -0.5648 -0.2832
15873TIP3    H269035   1.156   0.841  13.074 -0.4682 -0.4101 -0.5248
15874TIP3   OH269036   0.546   6.186   3.644  0.0845  0.6737  0.4864
15874TIP3    H169037   0.460   6.147   3.631 -0.2092 -0.1824  4.0546
15874TIP3    H269038   0.607   6.113   3.631 -0.0825  0.2480  1.9109
15875TIP3   OH269039   1.724   3.148   2.747 -0.0423  0.3880  0.4080
15875TIP3    H169040   1.714   3.121   2.838 -3.5950  0.7768  0.2445
15875TIP3    H269041   1.759   3.237   2.753 -0.8267  0.6480  1.4224
15876TIP3   OH269042   3.674   5.906   1.013  0.5195  0.1099 -0.6210
15876TIP3    H169043   3.658   5.936   0.923 -1.3760  1.2844  0.0363
15876TIP3    H269044   3.650   5.981   1.067 -1.1486 -1.4914  0.9812
15877TIP3   OH269045   1.992   6.410   3.399 -0.0158 -0.5727 -0.1455
15877TIP3    H169046   1.919   6.470   3.415  2.2134  2.2026  0.4710
15877TIP3    H269047   2.016   6.379   3.487  1.0364  0.5336 -0.0062
15878TIP3   OH269048   4.796   3.467  15.736  0.0255 -0.3253  0.6144
15878TIP3    H169049   4.769   3.525  15.808 -0.7535 -0.2655  0.2918
15878TIP3    H269050   4.758   3.508  15.658 -0.2285 -1.0772  0.3366
15879TIP3   OH269051   2.732   5.330   4.368 -0.2190 -0.0542  0.3797
15879TIP3    H169052   2.775   5.372   4.443 -0.7447  0.2911  0.4873
15879TIP3    H269053   2.804   5.288   4.320  0.5521  2.0899 -0.4843
15880TIP3   OH269054   1.802   0.153  13.202 -0.0838 -0.0359 -0.0945
15880TIP3    H169055   1.832   0.238  13.172 -1.1103  0.3689 -0.0011
15880TIP3    H269056   1.780   0.166  13.294 -1.1993 -0.1447 -0.3408
15881TIP3   OH269057   6.573   1.717   4.636  0.3395 -0.2503 -0.8667
15881TIP3    H169058   6.493   1.673   4.665  0.9390 -2.3668 -2.1384
15881TIP3    H269059   6.639   1.689   4.700 -0.1145  2.6397  1.0264
15882TIP3   OH269060   4.885   0.082   3.948 -0.1252 -0.0354 -0.3174
15882TIP3    H169061   4.926   0.093   3.862 -0.2120  1.1977 -0.2082
15882TIP3    H269062   4.798   0.047   3.928 -0.4605  1.0436 -0.7995
15883TIP3   OH269063   3.472   4.954   3.203  0.0464  0.0558  0.2051
15883TIP3    H169064   3.560   4.990   3.215  1.2709 -2.0785 -1.6373
15883TIP3    H269065   3.418   5.030   3.183  1.5694  1.3600  0.8371
15884TIP3   OH269066   3.815   2.541  16.540  0.2609 -0.8715  0.3765
15884TIP3    H169067   3.799   2.625  16.497 -1.2154 -0.4489  1.6471
15884TIP3    H269068   3.855   2.565  16.624 -1.1041 -1.3083  1.1993
15885TIP3   OH269069   1.625   0.587  16.586 -0.3334 -0.2761 -0.1834
15885TIP3    H169070   1.621   0.523  16.515  0.4809 -0.9285  0.3433
15885TIP3    H269071   1.559   0.653  16.563  0.1697 -0.2767 -1.7366
15886TIP3   OH269072   4.545   2.270   3.364 -0.8024 -0.2260  0.1071
15886TIP3    H169073   4.489   2.262   3.441 -1.1700 -0.2838 -0.1625
15886TIP3    H269074   4.617   2.326   3.392 -1.3108  0.3438  0.2848
15887TIP3   OH269075   4.690   2.865  13.615 -0.0412  0.3634  0.1299
15887TIP3    H169076   4.618   2.870  13.678 -0.7804  0.4701 -0.6941
15887TIP3    H269077   4.681   2.779  13.574 -1.9873  1.6811 -2.5371
15888TIP3   OH269078   5.787   2.491  12.181  0.1297 -0.0683 -0.6483
15888TIP3    H169079   5.780   2.451  12.094  2.1207  1.1047 -1.4140
15888TIP3    H269080   5.881   2.491  12.200 -0.1542  0.8491  0.9461
15889TIP3   OH269081   4.975   0.547   0.489 -0.6088 -0.4976  0.3239
15889TIP3    H169082   4.941   0.611   0.427  0.7163  0.0100  0.0883
15889TIP3    H269083   4.986   0.597   0.571 -1.4001 -0.9134  0.6910
15890TIP3   OH269084   6.716   5.516  10.248 -0.4465 -0.7884 -0.7574
15890TIP3    H169085   6.787   5.537  10.188 -1.1806  0.0236 -1.3586
15890TIP3    H269086   6.718   5.420  10.255 -0.2187 -0.8839 -1.9225
15891TIP3   OH269087   2.065   2.265  16.947  0.7304 -0.3925  0.1555
15891TIP3    H169088   1.974   2.295  16.939  0.6881 -0.8446 -1.1380
15891TIP3    H269089   2.059   2.170  16.946  1.1295 -0.4471  1.3223
15892TIP3   OH269090   0.024   4.022  15.619  0.3883  0.0440  0.3070
15892TIP3    H169091   0.103   4.061  15.581 -0.7727  1.6108 -0.6185
15892TIP3    H269092   0.051   3.992  15.706  1.3404  3.2621  1.2336
15893TIP3   OH269093   4.362   3.790   5.687  0.2576  0.4597 -0.3572
15893TIP3    H169094   4.336   3.804   5.596 -1.4339 -0.3684 -0.0327
15893TIP3    H269095   4.285   3.813   5.738  0.1109 -1.9394  0.6669
15894TIP3   OH269096   0.222   3.470   3.975  0.0069  0.6048 -0.1020
15894TIP3    H169097   0.318   3.475   3.977  0.0942 -0.2837 -1.2438
15894TIP3    H269098   0.201   3.446   3.885 -1.2909  0.6473  0.1715
15895TIP3   OH269099   1.797   4.259  15.991  0.3043  0.2025 -0.1730
15895TIP3    H169100   1.702   4.269  15.986  0.1821 -0.8948 -0.2559
15895TIP3    H269101   1.822   4.309  16.069 -0.0749  2.1431 -1.2355
15896TIP3   OH269102   5.979   5.187   4.707 -0.3627 -0.3128  1.1094
15896TIP3    H169103   5.967   5.277   4.734  0.5294  0.2247 -0.1619
15896TIP3    H269104   5.905   5.140   4.745 -0.7058  0.8974  1.9941
15897TIP3   OH269105   5.219   3.232  12.922 -0.3239 -0.4123 -0.2796
15897TIP3    H169106   5.188   3.249  13.011 -0.8727  1.2389 -0.7546
15897TIP3    H269107   5.154   3.172  12.886 -0.7866 -0.1096  0.0346
15898TIP3   OH269108   5.329   1.593  12.369 -0.0247  0.0049  0.0389
15898TIP3    H169109   5.360   1.610  12.280  1.2553  1.1879  0.6802
15898TIP3    H269110   5.290   1.675  12.397 -0.6266 -0.4331  0.5172
15899TIP3   OH269111   6.014   1.404   2.452  0.1167  0.3835 -0.3291
15899TIP3    H169112   5.923   1.390   2.479  0.3267 -0.0557  0.1905
15899TIP3    H269113   6.016   1.493   2.417 -0.4223  0.5504  0.0494
15900TIP3   OH269114   6.470   3.921   1.352 -0.1122 -0.0401 -0.3845
15900TIP3    H169115   6.419   3.844   1.376 -0.5074  0.6370  1.0690
15900TIP3    H269116   6.409   3.976   1.303  0.0716 -0.4722 -1.1200
15901TIP3   OH269117   5.023   3.397  15.041 -0.0572 -0.0574  0.3624
15901TIP3    H169118   5.029   3.379  14.948  0.7378 -0.4925  0.4898
15901TIP3    H269119   4.963   3.331  15.075 -0.2105 -0.0059  0.1879
15902TIP3   OH269120   6.473   2.988  13.900  0.0468 -0.5326  0.1832
15902TIP3    H169121   6.495   2.919  13.961 -1.2724 -1.3983 -0.2889
15902TIP3    H269122   6.380   2.977  13.882  0.1063  0.5082 -0.9599
15903TIP3   OH269123   4.867   6.738  15.342  0.2275 -0.1790 -0.2152
15903TIP3    H169124   4.838   6.807  15.402  0.8212 -0.2459  0.1564
15903TIP3    H269125   4.848   6.656  15.389  0.7114 -0.2307 -0.1018
15904TIP3   OH269126   6.127   1.761  16.252 -0.4743  0.2992 -0.4464
15904TIP3    H169127   6.042   1.765  16.295  0.2861  2.6780  1.0122
15904TIP3    H269128   6.132   1.841  16.201  1.3496  0.8194  0.4766
15905TIP3   OH269129   1.395   5.877  15.549 -0.3749 -0.4856 -0.2881
15905TIP3    H169130   1.484   5.863  15.580 -0.5128  0.1702  0.4291
15905TIP3    H269131   1.356   5.789  15.548  0.2395 -0.7634 -0.5201
15906TIP3   OH269132   5.786   1.005  11.678 -0.1554 -0.3788  0.1903
15906TIP3    H169133   5.745   0.970  11.599  0.7621 -0.7309 -0.1446
15906TIP3    H269134   5.799   0.928  11.734  0.0562 -0.2747  0.2855
15907TIP3   OH269135   2.091   3.623  14.160  0.5544 -0.1465  0.2265
15907TIP3    H169136   2.186   3.630  14.155  0.6305 -1.4989 -0.5405
15907TIP3    H269137   2.062   3.712  14.183  1.9021  0.5860 -0.7584
15908TIP3   OH269138   5.113   4.858   1.463  0.3631 -0.4574 -0.4202
15908TIP3    H169139   5.155   4.794   1.521 -2.3669 -1.7897  0.2890
15908TIP3    H269140   5.115   4.940   1.512  0.4315 -0.9595  0.4507
15909TIP3   OH269141   4.830   2.375  12.166  0.3870 -0.3247  0.3377
15909TIP3    H169142   4.886   2.405  12.094  0.2775  2.8245  1.3914
15909TIP3    H269143   4.741   2.393  12.136  0.2726 -0.0855  0.8166
15910TIP3   OH269144   2.903   3.559   2.644 -0.4365 -0.1808  0.3366
15910TIP3    H169145   2.859   3.636   2.682  2.5095  1.6228  0.4686
15910TIP3    H269146   2.947   3.519   2.719  0.4628 -0.2003 -0.1894
15911TIP3   OH269147   3.078   2.154   0.726 -0.2313  0.1359 -0.4989
15911TIP3    H169148   3.156   2.106   0.754  1.1317  1.1628 -2.2551
15911TIP3    H269149   3.035   2.096   0.664 -0.8887 -0.4331  0.4729
15912TIP3   OH269150   4.743   5.075  13.750  0.2165 -0.1731 -0.1990
15912TIP3    H169151   4.833   5.043  13.741  0.5925  0.5295  0.8204
15912TIP3    H269152   4.720   5.106  13.663  1.1510  0.0988 -0.3674
15913TIP3   OH269153   2.081   1.969   2.337  0.7079 -0.7748 -0.1557
15913TIP3    H169154   2.136   1.953   2.261  0.4624 -0.9451 -0.2994
15913TIP3    H269155   2.139   2.010   2.401  0.8623 -0.4236 -0.5145
15914TIP3   OH269156   0.826   0.144  11.833  0.6864  0.1844  0.0227
15914TIP3    H169157   0.785   0.112  11.914 -0.1241 -0.1684 -0.5171
15914TIP3    H269158   0.909   0.098  11.829  0.1669 -0.7850 -0.0017
15915TIP3   OH269159   5.902   6.210  14.876 -0.2433  0.5020  0.7067
15915TIP3    H169160   5.869   6.291  14.914 -1.8839  0.1545  0.0861
15915TIP3    H269161   5.936   6.160  14.951 -0.3017  1.2499  1.2423
15916TIP3   OH269162   4.143   0.748  16.972  0.1394  0.0806  0.1934
15916TIP3    H169163   4.103   0.765  17.057  1.4748  1.0725  0.6549
15916TIP3    H269164   4.093   0.675  16.936  0.0744 -0.9145  2.1673
15917TIP3   OH269165   6.113   5.268  14.911  0.5266  0.2800 -0.4922
15917TIP3    H169166   6.070   5.333  14.856 -0.2566 -0.0820 -0.3228
15917TIP3    H269167   6.147   5.203  14.850 -2.5663 -1.5081 -0.5553
15918TIP3   OH269168   1.822   3.416   2.701  0.6904  0.6792  0.6794
15918TIP3    H169169   1.824   3.512   2.702 -1.7542  0.8605 -1.3065
15918TIP3    H269170   1.888   3.392   2.636 -0.8667  1.3185 -1.2851
15919TIP3   OH269171   5.966   5.562   3.857 -0.2400  0.1832  0.2210
15919TIP3    H169172   6.016   5.515   3.790  0.0639  0.2124  0.4242
15919TIP3    H269173   6.027   5.628   3.890 -0.0473 -0.5048  1.2513
15920TIP3   OH269174   1.995   0.195   5.314  0.2001 -0.0456  0.3763
15920TIP3    H169175   1.955   0.170   5.230  0.1263 -0.6820  0.5914
15920TIP3    H269176   2.042   0.116   5.342 -2.1531 -0.8941  2.3492
15921TIP3   OH269177   2.665   0.061   4.942  0.5878 -0.4216 -0.5336
15921TIP3    H169178   2.607   0.123   4.898 -1.6159 -1.8630  0.1623
15921TIP3    H269179   2.702   0.111   5.014 -0.0136  0.4859 -0.8313
15922TIP3   OH269180   4.912   5.388  17.003 -0.3373 -0.4215 -0.6235
15922TIP3    H169181   4.994   5.346  17.029  0.6099  1.7087  0.1060
15922TIP3    H269182   4.853   5.373  17.076  0.6878  1.2268  0.6224
15923TIP3   OH269183   0.100   1.695  10.430 -0.1024 -0.0885 -0.0496
15923TIP3    H169184   0.067   1.765  10.373  1.4596  0.6655 -0.0687
15923TIP3    H269185   0.195   1.708  10.432  0.2223 -2.1470  0.0546
15924TIP3   OH269186   0.490   0.842   3.178  0.0466 -0.9744  0.7320
15924TIP3    H169187   0.518   0.933   3.182  0.7555 -0.8253 -3.0755
15924TIP3    H269188   0.399   0.843   3.209  0.4089  0.7679  1.8824
15925TIP3   OH269189   1.830   1.417   5.108  0.1994 -0.0983 -0.2266
15925TIP3    H169190   1.892   1.484   5.079  0.5094 -0.3238 -0.0965
15925TIP3    H269191   1.863   1.336   5.069  1.4313 -0.6572  1.8026
15926TIP3   OH269192   1.606   1.399   1.096  0.1921  0.2047  0.2392
15926TIP3    H169193   1.532   1.338   1.104  0.5494 -0.4472 -1.1280
15926TIP3    H269194   1.570   1.473   1.047  0.0634  0.5674  0.8776
15927TIP3   OH269195   2.544   3.648   4.157 -0.3922  0.0279  0.1746
15927TIP3    H169196   2.475   3.632   4.092 -0.5721  1.8076 -0.1093
15927TIP3    H269197   2.594   3.721   4.121  2.4784 -1.9545 -0.2559
15928TIP3   OH269198   4.554   2.922   5.128  0.6034  0.1385 -0.4998
15928TIP3    H169199   4.463   2.945   5.146 -0.2136 -2.6317 -0.5290
15928TIP3    H269200   4.596   2.924   5.214  0.0468 -0.2932 -0.2101
15929TIP3   OH269201   4.517   6.517  11.057 -0.3978 -0.3668 -0.2201
15929TIP3    H169202   4.444   6.565  11.019  0.5414  1.3015  0.0049
15929TIP3    H269203   4.590   6.533  10.998  0.6411  0.8346  1.3062
15930TIP3   OH269204   2.284   5.427   2.515 -0.5711  0.1176  0.3467
15930TIP3    H169205   2.272   5.521   2.519  1.2390  0.4321 -0.6901
15930TIP3    H269206   2.294   5.408   2.422 -0.0473 -0.9719  0.6070
15931TIP3   OH269207   2.238   0.799   3.807 -0.1047 -0.6816  0.9374
15931TIP3    H169208   2.239   0.844   3.722 -3.0073 -2.5988 -0.2675
15931TIP3    H269209   2.219   0.869   3.870  2.2892  0.8126  0.1387
15932TIP3   OH269210   3.564   6.095  16.884  0.1508  0.5016 -0.0451
15932TIP3    H169211   3.622   6.019  16.875  1.5979  1.3961  1.2687
15932TIP3    H269212   3.560   6.133  16.796 -0.1594 -0.7556 -0.6012
15933TIP3   OH269213   3.720   0.751   2.790  0.3249 -0.3063  0.3120
15933TIP3    H169214   3.632   0.743   2.752  0.4037  0.3667 -0.0278
15933TIP3    H269215   3.736   0.846   2.792  1.2791 -0.4481 -0.1743
15934TIP3   OH269216   5.275   4.583  11.626 -0.2359  0.4482  0.0325
15934TIP3    H169217   5.343   4.644  11.653 -0.2161  0.3709  0.1617
15934TIP3    H269218   5.315   4.496  11.636 -0.7197  0.3425  1.1742
15935TIP3   OH269219   1.387   3.256   5.538 -0.3128 -0.0512  0.2914
15935TIP3    H169220   1.358   3.165   5.541 -0.5477  0.0149  0.0368
15935TIP3    H269221   1.443   3.260   5.461 -1.8813  0.4752 -0.8764
15936TIP3   OH269222   6.672   3.624  15.905 -0.1353 -0.0024  0.3067
15936TIP3    H169223   6.718   3.562  15.848 -2.2373  0.5829 -2.2051
15936TIP3    H269224   6.618   3.569  15.961  1.8559 -0.5795  1.7926
15937TIP3   OH269225   3.017   6.352   5.173  0.1296 -0.2227 -0.5847
15937TIP3    H169226   2.953   6.309   5.229 -0.6864 -0.6402 -1.8009
15937TIP3    H269227   2.992   6.327   5.084  0.6841  1.3598 -1.2163
15938TIP3   OH269228   3.488   0.623  16.962 -0.1432  0.3300 -0.5860
15938TIP3    H169229   3.556   0.665  17.015 -0.1829 -0.0031 -0.2700
15938TIP3    H269230   3.465   0.544  17.010 -0.1849  0.0269 -1.0944
15939TIP3   OH269231   3.782   6.044   0.343  0.0505  0.3734 -0.0816
15939TIP3    H169232   3.818   6.035   0.255  0.4181  1.3919 -0.0447
15939TIP3    H269233   3.789   5.956   0.381 -0.6316 -0.2100 -1.2509
15940TIP3   OH269234   3.146   4.199  16.572  0.9167  0.4825  0.5400
15940TIP3    H169235   3.158   4.287  16.607  2.1135  0.4490  0.2620
15940TIP3    H269236   3.096   4.153  16.639  0.4247  1.3259  0.7623
15941TIP3   OH269237   3.905   4.282   0.360 -0.3334  0.4014  0.5581
15941TIP3    H169238   3.820   4.253   0.393 -0.3723  0.6284  0.6569
15941TIP3    H269239   3.894   4.288   0.266 -1.0088  2.3329  0.7316
15942TIP3   OH269240   4.222   6.260  17.049  0.4237  0.4796  0.2880
15942TIP3    H169241   4.184   6.224  16.969  1.5455  1.2113 -0.6166
15942TIP3    H269242   4.230   6.354  17.032 -1.3001  1.0243  2.1201
15943TIP3   OH269243   1.022   2.062   1.139 -0.1028  0.0689 -0.2847
15943TIP3    H169244   1.034   2.106   1.055 -1.7116 -0.5936 -0.9046
15943TIP3    H269245   1.009   1.970   1.116 -0.3314 -0.1625  0.7115
15944TIP3   OH269246   3.277   1.430  11.606 -0.2724  0.1661  0.4790
15944TIP3    H169247   3.225   1.376  11.546 -0.3575  0.6889  0.0788
15944TIP3    H269248   3.338   1.369  11.646  0.7209  0.0444 -1.1608
15945TIP3   OH269249   4.127   5.446  12.491  0.5563  0.3345 -0.5473
15945TIP3    H169250   4.100   5.537  12.503 -0.0718  0.0863 -0.0790
15945TIP3    H269251   4.094   5.400  12.568  0.0275 -0.4743 -1.2390
15946TIP3   OH269252   4.354   2.520  12.742  0.8468 -0.0611 -0.5455
15946TIP3    H169253   4.405   2.515  12.822  0.2920  1.8813 -0.0265
15946TIP3    H269254   4.418   2.544  12.674  0.7475  2.2284  0.0768
15947TIP3   OH269255   5.406   0.185   1.819 -0.4609 -0.1586  0.0830
15947TIP3    H169256   5.351   0.139   1.882 -0.8405  0.9329  0.5765
15947TIP3    H269257   5.411   0.126   1.744 -0.0325 -1.4711  1.1037
15948TIP3   OH269258   3.853   4.569  16.942 -0.3809  0.0388 -0.0745
15948TIP3    H169259   3.869   4.645  16.997 -0.1235 -1.5653  2.1781
15948TIP3    H269260   3.828   4.606  16.857  2.5035  2.6514  0.0161
15949TIP3   OH269261   0.989   0.493  14.115  0.0591  0.3616  0.5146
15949TIP3    H169262   1.004   0.581  14.147 -1.9662  1.6004 -1.6058
15949TIP3    H269263   1.030   0.491  14.028 -0.8718 -0.3516  0.0625
15950TIP3   OH269264   1.475   3.674   4.533 -0.3281  0.1502  0.0319
15950TIP3    H169265   1.481   3.759   4.578 -0.7483 -0.9727  2.3333
15950TIP3    H269266   1.555   3.628   4.558 -0.4266 -0.3951 -0.6500
15951TIP3   OH269267   4.567   6.292   5.380 -0.3538  0.3813 -0.2177
15951TIP3    H169268   4.544   6.220   5.322  0.1377 -0.2451  0.3447
15951TIP3    H269269   4.483   6.324   5.413 -0.5432 -0.4806  0.1645
15952TIP3   OH269270   5.324   1.177   0.968 -0.3043  0.5587 -0.0876
15952TIP3    H169271   5.417   1.183   0.992 -0.1252  2.1001 -1.0487
15952TIP3    H269272   5.278   1.216   1.042 -0.5182 -2.7896  1.7829
15953TIP3   OH269273   5.548   1.063  16.288  0.0114  0.1848  0.5380
15953TIP3    H169274   5.519   0.972  16.283 -1.7635  0.6902  0.9233
15953TIP3    H269275   5.507   1.106  16.213  2.0015  0.4095 -0.4828
15954TIP3   OH269276   3.031   4.204   4.574 -0.0531 -0.9378  1.1416
15954TIP3    H169277   3.094   4.177   4.507 -0.2641 -1.5466  1.1848
15954TIP3    H269278   2.949   4.215   4.526  0.2385  0.6442  0.9339
15955TIP3   OH269279   4.921   2.042   0.363  0.0448  0.0289  0.7739
15955TIP3    H169280   4.918   1.954   0.401 -0.0206  0.6881  2.3869
15955TIP3    H269281   4.833   2.076   0.377  0.0179  0.2853 -0.0227
15956TIP3   OH269282   5.493   4.565   1.655 -0.2037  0.3182  0.1479
15956TIP3    H169283   5.442   4.625   1.710 -0.3524 -0.3104  0.7207
15956TIP3    H269284   5.428   4.503   1.621 -0.0810  0.5873 -0.5898
15957TIP3   OH269285   0.907   6.098  14.023 -0.2277 -0.0219 -0.1515
15957TIP3    H169286   0.949   6.127  13.942  0.8881 -0.3201  0.3009
15957TIP3    H269287   0.920   6.003  14.023 -2.9268 -0.4704 -1.1121
15958TIP3   OH269288   6.769   6.483  12.610  0.1402  0.2992  0.3382
15958TIP3    H169289   6.723   6.413  12.656 -1.4287  0.6702 -0.5834
15958TIP3    H269290   6.762   6.459  12.517  1.0777  0.8265  0.1147
15959TIP3   OH269291   4.914   5.467   5.219 -0.4130  0.1329  0.3758
15959TIP3    H169292   4.962   5.526   5.278  0.3875  0.0283 -0.1479
15959TIP3    H269293   4.898   5.519   5.141 -1.2656  0.1977  0.5848
15960TIP3   OH269294   6.523   6.272  13.758  0.1707  0.1734  0.3355
15960TIP3    H169295   6.445   6.226  13.726  0.1959  0.8380 -0.7212
15960TIP3    H269296   6.495   6.363  13.768  0.5905  0.2621  0.7492
15961TIP3   OH269297   4.917   0.736  16.743  0.6869  0.0369  0.0261
15961TIP3    H169298   4.859   0.813  16.740  1.2909  0.4709 -1.3247
15961TIP3    H269299   4.866   0.670  16.789 -1.0143  0.3143 -1.3567
15962TIP3   OH269300   1.034   4.190  12.327 -0.2271  0.5573  0.0218
15962TIP3    H169301   1.007   4.160  12.414 -0.0902  0.8433  0.1655
15962TIP3    H269302   0.951   4.204  12.280 -0.2926 -1.0941 -0.4304
15963TIP3   OH269303   4.515   1.755   2.764 -0.2198 -0.3426  0.0099
15963TIP3    H169304   4.498   1.804   2.844 -0.9057 -2.2819  1.1399
15963TIP3    H269305   4.558   1.817   2.706  1.9783  0.6758  2.5250
15964TIP3   OH269306   5.640   3.713   0.610  0.2628 -0.3871  0.1141
15964TIP3    H169307   5.609   3.764   0.535  2.6529 -1.3760 -1.6626
15964TIP3    H269308   5.680   3.778   0.668  0.6288  0.1418 -0.6990
15965TIP3   OH269309   0.806   4.090  14.341  0.2125 -0.2157  0.8353
15965TIP3    H169310   0.827   4.007  14.385 -1.5644 -1.0902  0.1276
15965TIP3    H269311   0.793   4.065  14.249 -0.8271  0.7669  0.7021
15966TIP3   OH269312   2.223   6.382   1.713 -0.7613  0.5084  0.6040
15966TIP3    H169313   2.167   6.456   1.690 -1.8433 -0.6080 -0.4966
15966TIP3    H269314   2.170   6.328   1.772 -0.8895 -0.5686 -0.4612
15967TIP3   OH269315   6.116   2.406  12.910  0.1883 -0.5613  0.4496
15967TIP3    H169316   6.047   2.447  12.858  1.1490  1.0392  0.3434
15967TIP3    H269317   6.089   2.315  12.919 -0.9564 -0.4356 -1.2388
15968TIP3   OH269318   6.714   5.681   4.395 -0.2870  0.3266  0.2299
15968TIP3    H169319   6.717   5.773   4.368 -0.9034  0.1827 -0.3609
15968TIP3    H269320   6.632   5.673   4.442  0.0026  0.1884  0.7109
15969TIP3   OH269321   1.640   0.187   1.432  0.0141 -0.5477 -0.4491
15969TIP3    H169322   1.597   0.193   1.347 -1.9670  0.2423  0.5465
15969TIP3    H269323   1.649   0.093   1.448 -0.9802 -0.7305 -0.8900
15970TIP3   OH269324   0.997   5.004  14.610 -0.8101  0.1525  0.3563
15970TIP3    H169325   1.079   4.971  14.646 -1.6956 -1.3527  1.0770
15970TIP3    H269326   0.938   4.929  14.609 -2.8531  1.6039  1.8278
15971TIP3   OH269327   0.680   5.356  13.400  0.1888 -0.2143 -0.2441
15971TIP3    H169328   0.587   5.376  13.389  0.5845  1.9413 -0.1639
15971TIP3    H269329   0.720   5.378  13.315  1.0687  2.2648  0.6989
15972TIP3   OH269330   4.582   5.561   2.144  0.3750  0.2234 -0.0419
15972TIP3    H169331   4.599   5.649   2.178  0.0275  0.2009  0.1893
15972TIP3    H269332   4.613   5.565   2.053  2.3995 -0.0643  0.5868
15973TIP3   OH269333   3.278   5.854   5.774  0.3309  0.3190 -0.2588
15973TIP3    H169334   3.357   5.873   5.825  0.0390  0.8787 -0.0048
15973TIP3    H269335   3.262   5.934   5.724  0.5297 -0.1774 -1.1207
15974TIP3   OH269336   2.626   2.830   6.073 -0.1241  0.4150 -0.5757
15974TIP3    H169337   2.718   2.854   6.074  0.5528 -1.9169 -0.4177
15974TIP3    H269338   2.604   2.815   6.165  0.2816 -2.0313 -0.8072
15975TIP3   OH269339   1.694   0.257   2.763  0.2052 -0.0711  0.3316
15975TIP3    H169340   1.699   0.286   2.672 -0.8884 -0.3050  0.1795
15975TIP3    H269341   1.769   0.198   2.773 -0.6909 -1.5410 -1.0039
15976TIP3   OH269342   1.887   6.097  12.971  0.6152  0.6141 -0.4123
15976TIP3    H169343   1.969   6.145  12.970 -0.1194  1.9392 -2.0376
15976TIP3    H269344   1.872   6.072  12.880 -1.2512  1.3182 -0.3552
15977TIP3   OH269345   3.458   3.587  10.662 -0.0370 -0.6594 -0.0092
15977TIP3    H169346   3.503   3.503  10.652  0.3768 -0.5292  0.6622
15977TIP3    H269347   3.501   3.628  10.737 -2.1337 -1.1185  1.5386
15978TIP3   OH269348   4.685   0.800  15.150 -0.4663  0.5553 -0.0280
15978TIP3    H169349   4.747   0.742  15.106 -1.2770 -1.0882  0.9046
15978TIP3    H269350   4.626   0.741  15.196 -0.9834  2.1443  1.4476
15979TIP3   OH269351   4.865   5.671   0.792 -0.0833  0.1094 -0.5714
15979TIP3    H169352   4.795   5.640   0.849  0.5709  1.0634  0.8013
15979TIP3    H269353   4.825   5.673   0.705 -1.9126  1.0219  0.2250
15980TIP3   OH269354   1.658   0.154   1.141 -0.3562  0.3483 -0.2244
15980TIP3    H169355   1.706   0.228   1.177 -0.0272 -0.1037  0.2784
15980TIP3    H269356   1.646   0.176   1.049  0.0287  0.8739 -0.1545
15981TIP3   OH269357   2.600   3.866  12.065 -0.6097  0.0239  0.1618
15981TIP3    H169358   2.623   3.783  12.023  0.8310  0.0330  0.8890
15981TIP3    H269359   2.554   3.841  12.145  2.0145 -0.2170  1.6928
15982TIP3   OH269360   3.160   4.400  13.154 -0.1549 -0.4464 -0.4077
15982TIP3    H169361   3.254   4.406  13.140 -0.3262  0.9606 -1.1311
15982TIP3    H269362   3.147   4.312  13.190  1.2525 -1.2356 -1.7132
15983TIP3   OH269363   1.596   5.670  12.656  0.0136 -0.0170  0.2788
15983TIP3    H169364   1.525   5.647  12.596  0.0575 -2.8365  1.1436
15983TIP3    H269365   1.563   5.743  12.707 -2.6428 -1.7178  1.1782
15984TIP3   OH269366   2.823   0.739  15.163 -0.4274  0.2754 -0.0183
15984TIP3    H169367   2.914   0.754  15.139 -0.5029 -0.2268 -0.6513
15984TIP3    H269368   2.774   0.754  15.082 -0.8669  0.2028  0.2302
15985TIP3   OH269369   2.847   6.706   4.797  0.4306 -0.2553  0.0431
15985TIP3    H169370   2.836   6.657   4.878  0.2949  1.0143  0.8207
15985TIP3    H269371   2.775   6.770   4.797  0.3012 -0.3813 -1.1856
15986TIP3   OH269372   2.383   6.427   1.334 -0.6944 -0.1615 -0.3520
15986TIP3    H169373   2.288   6.427   1.347 -0.5594 -0.3929  0.7848
15986TIP3    H269374   2.415   6.498   1.389 -0.0230 -1.5166  1.1019
15987TIP3   OH269375   6.197   0.773   4.343 -0.0402  0.1629 -0.5790
15987TIP3    H169376   6.268   0.806   4.287 -0.2523  0.8741 -0.4438
15987TIP3    H269377   6.178   0.686   4.310  0.1927  0.3762 -1.2838
15988TIP3   OH269378   5.102   0.657   0.171 -0.0110  0.0039  0.4431
15988TIP3    H169379   5.132   0.626   0.086 -0.3711 -3.2261  1.3700
15988TIP3    H269380   5.179   0.699   0.209  0.3103  0.9802 -1.2120
15989TIP3   OH269381   6.074   2.513   4.812  0.5277 -0.2118  0.0811
15989TIP3    H169382   6.017   2.527   4.888 -0.1654  0.2791 -0.5184
15989TIP3    H269383   6.021   2.460   4.752  0.7396  0.1745 -0.4455
15990TIP3   OH269384   4.755   5.288   0.108  0.1563  0.5729 -0.1695
15990TIP3    H169385   4.714   5.324   0.186 -0.3516 -0.4914  0.0790
15990TIP3    H269386   4.777   5.198   0.132 -2.6431 -0.7908 -2.1122
15991TIP3   OH269387   1.629   4.246   5.769  0.0997 -0.2531  0.7027
15991TIP3    H169388   1.716   4.265   5.805 -0.3986 -0.1994  1.9202
15991TIP3    H269389   1.610   4.319   5.711  0.9788 -0.4117  0.1872
15992TIP3   OH269390   3.581   3.242  15.593 -1.0391 -0.0644 -0.5750
15992TIP3    H169391   3.559   3.188  15.517 -0.1396  0.1350 -0.9906
15992TIP3    H269392   3.513   3.222  15.657 -0.7622 -1.6670 -0.7347
15993TIP3   OH269393   3.224   6.370   3.297 -0.0391 -0.3484 -0.3765
15993TIP3    H169394   3.213   6.346   3.389  0.0655 -0.5118 -0.4071
15993TIP3    H269395   3.316   6.396   3.290 -0.1327  0.0012 -0.3581
15994TIP3   OH269396   1.475   3.028   3.046 -0.1929 -0.2694 -0.1562
15994TIP3    H169397   1.398   3.033   3.102 -1.1957  0.7531 -1.5539
15994TIP3    H269398   1.457   2.957   2.985 -0.0893  0.0606 -0.5768
15995TIP3   OH269399   1.079   3.066  13.806  0.2859 -0.3515 -0.1392
15995TIP3    H169400   1.154   3.125  13.809  0.5121 -0.6702  1.2413
15995TIP3    H269401   1.116   2.980  13.827 -0.1509 -0.8834 -1.4555
15996TIP3   OH269402   1.661   3.382  17.048 -0.6160 -0.4053  0.3660
15996TIP3    H169403   1.651   3.416  16.959  1.5005  0.5108  0.4086
15996TIP3    H269404   1.653   3.287  17.039  0.0967 -0.3636 -0.8945
15997TIP3   OH269405   6.300   1.562  12.718 -0.0039  0.1149 -0.3027
15997TIP3    H169406   6.329   1.576  12.808  1.4138 -0.9784 -0.5393
15997TIP3    H269407   6.363   1.499  12.683 -1.6835 -0.9691 -1.4705
15998TIP3   OH269408   5.087   1.751   2.242  0.8960 -0.5529 -0.2334
15998TIP3    H169409   5.124   1.747   2.154 -1.1286  1.7685 -1.3150
15998TIP3    H269410   5.130   1.825   2.284  0.5078 -0.4710  0.0326
15999TIP3   OH269411   5.241   5.889  12.661  0.5281  0.2116  0.4049
15999TIP3    H169412   5.263   5.931  12.744 -0.5419  1.0975  0.2605
15999TIP3    H269413   5.198   5.808  12.685  0.4281  0.3555  0.7141
16000TIP3   OH269414   4.143   1.297   3.422  0.1054  0.5537  0.7337
16000TIP3    H169415   4.125   1.281   3.329  0.0398 -0.4271  0.9056
16000TIP3    H269416   4.081   1.241   3.468  0.8979  0.1728  1.3613
16001TIP3   OH269417   5.878   3.876  16.235 -0.0117 -0.3220  0.3543
16001TIP3    H169418   5.856   3.791  16.197 -0.0229 -0.7933  1.3988
16001TIP3    H269419   5.798   3.904  16.279 -0.2479  0.5965 -0.6138
16002TIP3   OH269420   4.865   6.257   5.282  0.1046  1.1212  0.1014
16002TIP3    H169421   4.778   6.247   5.319  0.4322 -0.1517  0.5912
16002TIP3    H269422   4.856   6.233   5.190 -0.0456  0.9445  0.1641
16003TIP3   OH269423   4.699   5.281  16.573 -0.4408  0.4943  0.2281
16003TIP3    H169424   4.767   5.248  16.631 -0.6826 -1.1214 -0.3639
16003TIP3    H269425   4.710   5.376  16.575 -1.1820  0.6504  3.7890
16004TIP3   OH269426   2.619   4.580   1.454 -0.0710  0.2713 -0.4215
16004TIP3    H169427   2.542   4.562   1.399 -1.1620  1.0474  0.7879
16004TIP3    H269428   2.647   4.668   1.428 -1.4398  1.2233  1.1519
16005TIP3   OH269429   4.258   6.455   0.255 -0.4246  0.1569 -0.4406
16005TIP3    H169430   4.243   6.467   0.348 -0.3664  0.1640 -0.4322
16005TIP3    H269431   4.291   6.540   0.225 -2.1398  0.7235 -0.8075
16006TIP3   OH269432   5.959   3.421   2.887 -0.2450 -0.4334  0.0355
16006TIP3    H169433   6.031   3.476   2.918  0.1952 -0.1949 -1.3350
16006TIP3    H269434   5.916   3.390   2.967  1.5400 -0.8130  0.9055
16007TIP3   OH269435   5.961   5.713  12.061 -0.4038 -0.0798  0.0142
16007TIP3    H169436   6.032   5.680  12.006  0.7260  0.0614  1.3151
16007TIP3    H269437   6.004   5.772  12.123 -1.3527 -1.3763  2.0099
16008TIP3   OH269438   5.633   4.923   3.778 -0.3947 -0.0142  0.0835
16008TIP3    H169439   5.630   4.924   3.873 -0.6992  0.6961  0.0771
16008TIP3    H269440   5.725   4.909   3.756  0.0355  1.8346  0.5120
16009TIP3   OH269441   0.691   0.101  15.431  0.8824 -0.6167 -0.1557
16009TIP3    H169442   0.770   0.135  15.389  0.1940  2.5177  0.8219
16009TIP3    H269443   0.620   0.123  15.371  0.5103 -1.5744 -0.0895
16010TIP3   OH269444   2.937   1.822   0.061  0.9443 -0.7444 -0.4495
16010TIP3    H169445   2.882   1.900   0.058  1.9378  0.1960  2.5188
16010TIP3    H269446   2.985   1.823  -0.022 -1.7560 -0.3660 -2.1194
16011TIP3   OH269447   4.821   1.019  14.904  0.0590  0.2206  0.0396
16011TIP3    H169448   4.767   1.061  14.837 -2.4085 -0.2450  1.6016
16011TIP3    H269449   4.842   0.933  14.869 -1.5555 -0.1772  0.0151
16012TIP3   OH269450   0.628   3.203   1.702 -0.1012 -0.3264  0.0339
16012TIP3    H169451   0.714   3.191   1.661  0.9623  0.9344  1.7371
16012TIP3    H269452   0.614   3.297   1.703 -1.4771 -0.5088 -0.1164
16013TIP3   OH269453   2.895   0.526  11.988  0.2781  0.1957 -0.3385
16013TIP3    H169454   2.916   0.618  11.975  3.5320 -0.5379 -1.1850
16013TIP3    H269455   2.840   0.503  11.913 -2.2922  1.8036  0.9193
16014TIP3   OH269456   4.683   5.130  15.166 -0.4560  0.1618 -0.0181
16014TIP3    H169457   4.715   5.040  15.157 -1.3841 -0.0613 -1.3010
16014TIP3    H269458   4.597   5.121  15.208 -1.1932  0.3053 -1.4370
16015TIP3   OH269459   4.792   2.419  12.828  0.2387 -0.6121  0.1956
16015TIP3    H169460   4.858   2.416  12.898  0.0925 -2.4722  0.3151
16015TIP3    H269461   4.709   2.404  12.873 -0.1029  0.1674 -0.1551
16016TIP3   OH269462   0.250   1.063  11.689  0.0096 -0.3339  0.1698
16016TIP3    H169463   0.175   1.122  11.695 -0.3898 -0.9419  2.0040
16016TIP3    H269464   0.237   1.015  11.607 -0.3086  1.2288 -0.7258
16017TIP3   OH269465   4.254   2.816  12.395 -0.0967 -0.4458 -0.1583
16017TIP3    H169466   4.295   2.778  12.473 -0.4543 -0.7070 -0.0943
16017TIP3    H269467   4.202   2.745  12.358 -1.1524  0.0954  0.2224
16018TIP3   OH269468   0.595   3.678  13.537 -0.5160 -0.4524  0.5825
16018TIP3    H169469   0.522   3.671  13.475  0.9288 -3.1494 -0.9925
16018TIP3    H269470   0.553   3.677  13.623 -2.4152  0.5313 -0.2475
16019TIP3   OH269471   5.829   3.036  13.830 -0.2455 -0.1299  0.1721
16019TIP3    H169472   5.904   3.007  13.779  1.5256  0.1928  2.4105
16019TIP3    H269473   5.821   2.970  13.900 -0.1382  1.3923  1.6816
16020TIP3   OH269474   6.301   0.282   4.873  0.1160 -0.1340 -0.3965
16020TIP3    H169475   6.224   0.229   4.891  0.6380 -1.0849 -0.9293
16020TIP3    H269476   6.374   0.221   4.878  0.9262  0.8790  0.7494
16021TIP3   OH269477   3.592   3.343  10.645 -0.6415  0.0065  0.0157
16021TIP3    H169478   3.619   3.258  10.679 -1.0880  0.4787  1.6484
16021TIP3    H269479   3.565   3.325  10.555  0.1827 -1.3857  0.0068
16022TIP3   OH269480   2.149   6.157  12.269  0.8565  0.7048  0.2350
16022TIP3    H169481   2.229   6.169  12.218  1.2562 -0.2702  0.6078
16022TIP3    H269482   2.110   6.077  12.234  0.4112  0.7910  0.5286
16023TIP3   OH269483   2.767   4.510  16.112 -0.1724  0.1538 -0.5990
16023TIP3    H169484   2.686   4.530  16.065 -0.8378  0.5394  0.6883
16023TIP3    H269485   2.823   4.585  16.095 -1.0275  1.0965  0.5447
16024TIP3   OH269486   4.188   1.945   1.594  0.5282 -0.3209  0.2981
16024TIP3    H169487   4.167   1.859   1.629  0.9234 -0.7933 -0.5724
16024TIP3    H269488   4.264   1.973   1.643 -0.0293 -0.1462  1.0749
16025TIP3   OH269489   5.666   5.057  13.336  0.1874  0.1699 -0.6403
16025TIP3    H169490   5.613   5.133  13.312 -0.6394 -0.0605  0.3784
16025TIP3    H269491   5.602   4.989  13.356  0.8101  0.1944  1.6775
16026TIP3   OH269492   2.017   2.863   4.795  0.3237 -0.2667  0.2292
16026TIP3    H169493   2.080   2.879   4.865  0.9138  1.3608 -0.6267
16026TIP3    H269494   2.000   2.769   4.799  1.0592 -0.3607  1.9351
16027TIP3   OH269495   1.889   5.969   2.503 -0.2766 -0.0165 -0.1172
16027TIP3    H169496   1.859   5.878   2.502 -0.7410  0.1359 -0.3992
16027TIP3    H269497   1.844   6.008   2.578  1.6172 -0.5636  1.3820
16028TIP3   OH269498   6.730   2.728   2.901  0.2478  0.3556 -0.0681
16028TIP3    H169499   6.645   2.686   2.913  0.0441  0.8003  0.0656
16028TIP3    H269500   6.790   2.677   2.955 -0.3328  1.2817  1.5037
16029TIP3   OH269501   0.949   4.415  11.479 -0.4177 -0.1466 -0.6967
16029TIP3    H169502   0.977   4.362  11.405 -0.1467 -1.7461  0.5031
16029TIP3    H269503   0.945   4.505  11.444 -1.1372 -0.9417 -2.8456
16030TIP3   OH269504   3.939   0.946  12.985  0.1965 -0.2445 -0.3244
16030TIP3    H169505   3.856   0.953  12.937  0.1308  0.6385 -0.1112
16030TIP3    H269506   3.921   0.881  13.053 -0.5287  0.3834  0.1018
16031TIP3   OH269507   3.492   3.662   4.517 -0.1854  0.2518 -0.1092
16031TIP3    H169508   3.398   3.648   4.526 -0.1862  0.2529 -0.1150
16031TIP3    H269509   3.531   3.603   4.581 -0.1391 -0.6909 -0.9675
16032TIP3   OH269510   4.640   3.700  14.393 -0.4622  0.1900  0.3100
16032TIP3    H169511   4.669   3.780  14.349 -1.3328 -0.1492 -0.9276
16032TIP3    H269512   4.549   3.689  14.365  0.6265 -3.2286 -2.6273
16033TIP3   OH269513   0.166   0.607   1.669  0.0583 -0.1389 -0.1173
16033TIP3    H169514   0.119   0.595   1.751  0.5202  0.4051  0.2339
16033TIP3    H269515   0.141   0.694   1.638 -0.6070 -0.5907 -0.8848
16034TIP3   OH269516   1.125   0.561  16.095 -0.5790 -0.5394 -0.8472
16034TIP3    H169517   1.100   0.483  16.143  0.2010 -0.0559  0.4033
16034TIP3    H269518   1.045   0.590  16.051 -1.6106 -0.4342  1.0008
16035TIP3   OH269519   5.977   2.747   4.460 -0.2967 -0.2494  0.0576
16035TIP3    H169520   5.938   2.691   4.392  1.6861 -2.0737  0.3065
16035TIP3    H269521   5.947   2.835   4.439 -1.0304 -0.9696 -2.2489
16036TIP3   OH269522   0.126   2.371   3.502 -0.1227  0.1917 -0.3180
16036TIP3    H169523   0.037   2.406   3.509  0.2722  1.0973  0.3307
16036TIP3    H269524   0.113   2.281   3.472 -1.3178 -0.0231  0.7370
16037TIP3   OH269525   0.068   3.308   1.531  0.2758  0.3884 -0.5476
16037TIP3    H169526   0.114   3.277   1.609 -0.6556 -0.5059 -0.3388
16037TIP3    H269527   0.034   3.395   1.556 -1.2677 -0.4909  0.5949
16038TIP3   OH269528   3.198   4.673  16.355  0.0405 -0.4383 -0.4019
16038TIP3    H169529   3.180   4.623  16.275  0.7268 -1.9207  0.3363
16038TIP3    H269530   3.292   4.689  16.353 -0.4363  2.9075 -1.7557
16039TIP3   OH269531   0.573   2.261  11.512  0.4641  0.2101  0.1146
16039TIP3    H169532   0.522   2.217  11.443  0.6451  0.5057 -0.2137
16039TIP3    H269533   0.530   2.346  11.522 -1.1207 -0.7341  2.1433
16040TIP3   OH269534   0.227   1.032   5.405 -0.4895 -0.1744 -0.3828
16040TIP3    H169535   0.323   1.024   5.401 -0.5262 -0.6573 -0.2719
16040TIP3    H269536   0.198   0.951   5.444 -0.8793  0.3729  0.4833
16041TIP3   OH269537   0.220   5.027  15.177  0.1329 -0.7473  0.5892
16041TIP3    H169538   0.127   5.041  15.156  0.4103 -1.3076 -1.1272
16041TIP3    H269539   0.230   5.065  15.264 -1.4813  0.2198  0.4025
16042TIP3   OH269540   6.080   3.066  13.996 -0.0413 -0.4251 -0.1145
16042TIP3    H169541   6.102   2.975  14.017 -0.6609 -0.5978 -0.1850
16042TIP3    H269542   6.024   3.060  13.918  0.5148  0.0695 -0.5634
16043TIP3   OH269543   5.954   6.502  15.763  0.1687  0.8146  0.4296
16043TIP3    H169544   6.040   6.478  15.796 -0.4068  0.4482  1.6958
16043TIP3    H269545   5.892   6.449  15.814 -0.6913 -2.4124 -3.4570
16044TIP3   OH269546   4.980   1.515   5.289 -0.9833 -0.2851  0.4657
16044TIP3    H169547   5.050   1.506   5.354 -0.0409  1.0957 -0.3148
16044TIP3    H269548   4.904   1.546   5.340 -0.6020 -0.3524  1.0881
16045TIP3   OH269549   1.742   2.159  14.972  0.3197  0.0252 -0.1344
16045TIP3    H169550   1.665   2.215  14.981  0.1342 -0.3290  0.4918
16045TIP3    H269551   1.752   2.147  14.877 -0.8798 -0.5911 -0.1970
16046TIP3   OH269552   0.391   0.596   4.152 -0.0624 -0.0960  0.2982
16046TIP3    H169553   0.300   0.605   4.181  0.1388 -0.9945  1.2710
16046TIP3    H269554   0.388   0.525   4.088  0.1983 -1.3646  1.6433
16047TIP3   OH269555   0.270   3.307   2.646  0.7420 -0.0086 -0.1199
16047TIP3    H169556   0.265   3.274   2.556  1.9113 -1.5894  0.3558
16047TIP3    H269557   0.358   3.344   2.652 -0.1088  2.1541 -0.2568
16048TIP3   OH269558   4.077   3.107  13.390 -0.9309  0.2803 -0.3627
16048TIP3    H169559   4.006   3.137  13.333  0.8907  2.8729 -1.4242
16048TIP3    H269560   4.097   3.182  13.446  2.0843  0.2900 -1.2743
16049TIP3   OH269561   0.907   6.245   1.292  0.6676  0.4409  0.0463
16049TIP3    H169562   0.994   6.282   1.308  1.3426 -0.7418 -0.7288
16049TIP3    H269563   0.871   6.298   1.221  1.4831 -0.1241 -0.8166
16050TIP3   OH269564   0.782   4.877   1.561  0.6679 -0.5127 -0.5128
16050TIP3    H169565   0.815   4.791   1.589 -0.0578  0.0160  2.2592
16050TIP3    H269566   0.861   4.929   1.547  1.1079 -0.9615  0.1870
16051TIP3   OH269567   3.222   2.558  11.187 -0.4511  0.1149  0.0953
16051TIP3    H169568   3.222   2.475  11.139  0.4195  0.1327  0.0582
16051TIP3    H269569   3.221   2.532  11.279  0.8455  0.0281  0.1081
16052TIP3   OH269570   4.543   5.073  14.311  0.2054 -0.1174  0.0490
16052TIP3    H169571   4.485   5.135  14.267  1.3506  0.2599 -0.9851
16052TIP3    H269572   4.537   4.993  14.258 -0.0576 -0.3708  0.4600
16053TIP3   OH269573   4.811   6.444  13.055  0.4848  0.0497 -0.1706
16053TIP3    H169574   4.758   6.398  12.989  1.0818 -2.7737  1.1804
16053TIP3    H269575   4.882   6.384  13.075  0.1365  0.6228  3.3014
16054TIP3   OH269576   4.846   4.750   1.163  0.1081  0.0442 -0.2951
16054TIP3    H169577   4.809   4.662   1.175 -0.6276  0.2396 -1.0003
16054TIP3    H269578   4.881   4.749   1.074 -0.0577  0.5131 -0.3671
16055TIP3   OH269579   2.637   3.439  15.877 -0.1195  0.5365 -0.6417
16055TIP3    H169580   2.721   3.435  15.923 -0.6395 -1.2349  0.2130
16055TIP3    H269581   2.658   3.412  15.787  0.4960  1.7710 -0.8866
16056TIP3   OH269582   1.346   0.312   4.303 -0.0880  0.3630  0.4154
16056TIP3    H169583   1.429   0.277   4.335  0.3498 -1.2458 -2.1686
16056TIP3    H269584   1.367   0.401   4.275  0.9488 -0.2037 -0.7012
16057TIP3   OH269585   5.269   6.682  14.041 -0.1313 -0.1614 -0.3512
16057TIP3    H169586   5.314   6.611  14.088 -0.0852  0.3108  0.3255
16057TIP3    H269587   5.185   6.691  14.086 -0.7405 -0.7268 -1.3220
16058TIP3   OH269588   5.081   6.573   2.770 -0.2155  0.1257 -0.0422
16058TIP3    H169589   5.121   6.486   2.767  2.3772  0.9977  3.3530
16058TIP3    H269590   4.992   6.556   2.804  0.4755 -1.1972  1.2427
16059TIP3   OH269591   5.464   5.834   5.393  0.0432  0.3028 -0.1331
16059TIP3    H169592   5.492   5.875   5.475  0.8030  1.2957 -0.8463
16059TIP3    H269593   5.546   5.810   5.349 -0.2966  0.7013 -1.0307
16060TIP3   OH269594   2.535   6.663   1.434  0.5004  0.0045  0.3783
16060TIP3    H169595   2.503   6.720   1.503 -0.3921  0.6999 -0.5737
16060TIP3    H269596   2.534   6.717   1.355 -1.1155 -1.4933 -0.7193
16061TIP3   OH269597   2.626   6.432  12.233  0.5775 -0.6053  0.2407
16061TIP3    H169598   2.599   6.494  12.302  0.5272  1.0298 -1.1662
16061TIP3    H269599   2.709   6.467  12.201 -0.0807 -0.5202 -1.4498
16062TIP3   OH269600   2.774   6.135  10.812  0.6650 -0.4112  0.6287
16062TIP3    H169601   2.857   6.179  10.793  1.0741 -0.9042  1.2607
16062TIP3    H269602   2.785   6.048  10.775 -0.1612  0.0047 -0.6640
16063TIP3   OH269603   2.019   5.966  12.134 -0.3263  0.2699 -0.0820
16063TIP3    H169604   2.054   5.976  12.045 -1.0334  1.8277 -0.2169
16063TIP3    H269605   1.954   6.036  12.142 -0.1889  0.2283  1.7124
16064TIP3   OH269606   3.504   6.769   1.487  0.0951 -0.2903 -0.3000
16064TIP3    H169607   3.470   6.707   1.422 -0.3028 -0.1391 -0.2396
16064TIP3    H269608   3.598   6.772   1.470  0.6558 -3.1353  1.5623
16065TIP3   OH269609   5.809   6.293  15.313  0.5069 -0.3041  0.3917
16065TIP3    H169610   5.888   6.311  15.262 -0.2188  2.0922  0.0078
16065TIP3    H269611   5.809   6.360  15.381 -2.0568  0.9091 -0.6775
16066TIP3   OH269612   0.995   3.594   0.770 -0.4909  0.2379  0.0866
16066TIP3    H169613   0.956   3.622   0.853 -1.3717 -2.3898  0.6565
16066TIP3    H269614   0.921   3.587   0.710  0.0215  1.2585 -0.6846
16067TIP3   OH269615   2.341   4.444  16.490  0.3073  0.2591 -0.5455
16067TIP3    H169616   2.265   4.499  16.509  0.9982  0.4390  2.1453
16067TIP3    H269617   2.338   4.376  16.558  0.9787 -1.4929 -2.1503
16068TIP3   OH269618   1.363   3.930   1.071 -0.5015  0.1411  0.4294
16068TIP3    H169619   1.317   4.002   1.114  0.6106  0.3691  1.3087
16068TIP3    H269620   1.310   3.852   1.089 -0.6293  0.4150  1.2883
16069TIP3   OH269621   5.916   4.896  15.017 -0.1746  0.2466  0.4408
16069TIP3    H169622   5.949   4.887  14.928 -0.3090 -0.5059  0.4604
16069TIP3    H269623   5.927   4.809  15.056  0.9847  0.8624  1.5434
16070TIP3   OH269624   0.876   4.828  12.370  0.7654  0.1725  0.3444
16070TIP3    H169625   0.931   4.892  12.415 -2.7408  2.3142  2.0308
16070TIP3    H269626   0.830   4.782  12.440 -0.5974 -0.5452 -0.9610
16071TIP3   OH269627   3.765   4.377  16.682 -0.1848 -0.3743  0.3733
16071TIP3    H169628   3.757   4.471  16.697  0.3174 -0.6395  2.5971
16071TIP3    H269629   3.855   4.356  16.707 -0.6600 -1.6275  1.1346
16072TIP3   OH269630   3.009   0.303   1.703  0.5465 -0.1739  0.1786
16072TIP3    H169631   3.076   0.260   1.757 -0.6153 -1.0961  0.9334
16072TIP3    H269632   2.929   0.296   1.755 -0.1416  0.8937 -0.7176
16073TIP3   OH269633   1.011   4.937   1.793 -0.1442 -0.1507 -0.0258
16073TIP3    H169634   0.986   5.029   1.805 -1.0477 -0.4523  0.5021
16073TIP3    H269635   1.086   4.926   1.852 -1.0825 -0.1688  1.2162
16074TIP3   OH269636   5.346   6.598   3.381 -0.8790 -0.5893  1.0675
16074TIP3    H169637   5.413   6.533   3.360  0.1410 -0.0293  2.4869
16074TIP3    H269638   5.292   6.556   3.449 -1.2107 -0.5534  0.8314
16075TIP3   OH269639   4.433   5.279   0.073  0.2157 -0.1391  0.7162
16075TIP3    H169640   4.477   5.273  -0.011  1.4592  0.8281  1.2682
16075TIP3    H269641   4.502   5.303   0.135 -0.7128 -0.5866  1.9746
16076TIP3   OH269642   4.660   5.985  16.388 -0.0875 -0.6579 -0.1968
16076TIP3    H169643   4.649   6.072  16.350 -1.3085 -0.5703  0.3008
16076TIP3    H269644   4.582   5.973  16.443 -1.4258 -3.1881 -2.4267
16077TIP3   OH269645   6.378   0.233  12.331 -0.3006  0.0346 -0.5013
16077TIP3    H169646   6.384   0.168  12.401 -0.8143  1.4057  0.8611
16077TIP3    H269647   6.428   0.308  12.363 -0.5310  0.6926 -1.6243
16078TIP3   OH269648   1.007   3.380   5.382 -0.1817  0.0759  0.0872
16078TIP3    H169649   1.052   3.304   5.345 -0.9016 -0.9483  1.2403
16078TIP3    H269650   0.916   3.352   5.393 -0.4865  1.1441  0.4324
16079TIP3   OH269651   6.366   5.839  12.815 -0.2367 -0.1022 -0.0690
16079TIP3    H169652   6.410   5.764  12.857 -0.5075  0.0608  0.5070
16079TIP3    H269653   6.275   5.811  12.807 -0.0118 -0.5283 -1.4661
16080TIP3   OH269654   5.970   3.805  10.943 -0.0723  0.2110 -0.0688
16080TIP3    H169655   5.948   3.717  10.912  0.5909 -0.3830  1.0687
16080TIP3    H269656   6.048   3.829  10.894  0.1714 -0.1494  0.1337
16081TIP3   OH269657   6.434   3.082  11.072 -0.1827  0.2559  0.6442
16081TIP3    H169658   6.372   3.087  10.999 -0.8515 -0.6810  1.1155
16081TIP3    H269659   6.513   3.046  11.033  0.1700  1.6681 -0.0120
16082TIP3   OH269660   4.674   0.973  13.006  0.2244  0.3196  0.3722
16082TIP3    H169661   4.685   1.038  12.937  0.0468 -1.2066 -1.1500
16082TIP3    H269662   4.580   0.964  13.016  0.2347  1.1201  1.4446
16083TIP3   OH269663   4.929   4.632   3.503  0.5519 -0.3131  0.6233
16083TIP3    H169664   4.991   4.672   3.443 -0.9949  1.4269  0.0773
16083TIP3    H269665   4.972   4.634   3.588  0.9727  1.5862  0.4043
16084TIP3   OH269666   4.583   5.017   2.784  0.4439 -0.1235 -0.3216
16084TIP3    H169667   4.565   4.933   2.742 -1.0993  0.5709 -1.1356
16084TIP3    H269668   4.571   5.082   2.715 -0.9689  0.9505  0.8650
16085TIP3   OH269669   6.473   3.648  11.888  0.3469 -0.4127  0.1170
16085TIP3    H169670   6.464   3.731  11.841  0.5367 -0.9682 -0.9489
16085TIP3    H269671   6.521   3.670  11.968  0.4223  0.4942 -0.1703
16086TIP3   OH269672   5.365   5.100  10.861 -0.3952  0.1041  0.4686
16086TIP3    H169673   5.438   5.153  10.828 -2.0780  2.6375  0.5549
16086TIP3    H269674   5.346   5.040  10.789  1.0860  0.0837  0.0436
16087TIP3   OH269675   3.152   5.701  15.983  0.4796  0.0540  0.4474
16087TIP3    H169676   3.230   5.757  15.981 -0.3735  1.2850 -1.6710
16087TIP3    H269677   3.154   5.661  16.070  2.7731  1.0260  0.9251
16088TIP3   OH269678   6.038   3.943  14.573 -0.1016  0.0701  0.4451
16088TIP3    H169679   5.997   3.858  14.556  1.1661 -0.6531  0.8795
16088TIP3    H269680   6.011   3.966  14.662  0.0838 -0.2032  0.5748
16089TIP3   OH269681   0.829   3.428   2.967  0.5088  0.0001 -0.4531
16089TIP3    H169682   0.750   3.414   3.019  0.9348  1.9909  0.8252
16089TIP3    H269683   0.800   3.484   2.895  1.0185  2.3759  1.0731
16090TIP3   OH269684   2.641   5.585  11.782  0.3217 -0.0083 -0.8966
16090TIP3    H169685   2.625   5.535  11.702  1.5588  0.1588 -1.2758
16090TIP3    H269686   2.685   5.665  11.752 -1.6480  1.3647 -0.3009
16091TIP3   OH269687   3.713   0.121   2.911  0.0618 -0.3174  1.1117
16091TIP3    H169688   3.712   0.214   2.931 -1.1753  0.0239 -0.3594
16091TIP3    H269689   3.795   0.107   2.864 -0.5344  0.4274 -0.2158
16092TIP3   OH269690   5.696   1.358   5.640  0.4349  0.2331 -0.2603
16092TIP3    H169691   5.695   1.328   5.731 -1.8380 -1.0816 -0.6467
16092TIP3    H269692   5.677   1.452   5.646  1.0661  0.3161  0.6373
16093TIP3   OH269693   1.584   0.323  15.465 -0.2425  0.1674  0.1100
16093TIP3    H169694   1.666   0.325  15.516  0.6057  0.5621 -1.2256
16093TIP3    H269695   1.574   0.412  15.433 -0.8179 -0.0537 -0.3280
16094TIP3   OH269696   4.730   3.535   4.189 -0.0928  0.0289 -0.2805
16094TIP3    H169697   4.665   3.465   4.179 -0.6789  0.1179  2.3415
16094TIP3    H269698   4.810   3.490   4.216  0.0324  0.2191 -0.3306
16095TIP3   OH269699   3.930   4.734   5.061  0.2512 -0.1013 -0.2874
16095TIP3    H169700   4.024   4.751   5.060 -0.0379  1.6709 -0.6488
16095TIP3    H269701   3.892   4.804   5.008 -1.4153  0.1818  1.1752
16096TIP3   OH269702   1.724   4.478  13.486 -0.0938 -0.2836 -0.1761
16096TIP3    H169703   1.685   4.564  13.473 -1.2166 -0.3238  2.3877
16096TIP3    H269704   1.650   4.417  13.478  0.6153 -1.0233 -1.5557
16097TIP3   OH269705   3.956   0.490   0.659 -0.0537  0.1183  0.5791
16097TIP3    H169706   4.006   0.512   0.580  1.2501 -0.3380  1.2317
16097TIP3    H269707   3.879   0.444   0.626  0.1382  0.4996 -0.4602
16098TIP3   OH269708   4.677   6.428  15.835 -0.0470 -0.2648 -0.0136
16098TIP3    H169709   4.697   6.473  15.916  0.1685 -0.4964  0.0638
16098TIP3    H269710   4.583   6.411  15.839 -0.6237  2.2836 -1.1143
16099TIP3   OH269711   4.040   6.027   5.685  0.2986 -0.4053 -0.9257
16099TIP3    H169712   4.007   6.115   5.664  1.4749  0.0707 -0.8773
16099TIP3    H269713   4.066   6.032   5.777 -0.0250 -0.9377 -0.8022
16100TIP3   OH269714   6.407   0.970  12.147  0.2179  0.1385  0.0393
16100TIP3    H169715   6.424   0.999  12.237 -0.2993  0.7708 -0.0614
16100TIP3    H269716   6.463   1.025  12.093  0.6440 -0.3452 -0.0259
16101TIP3   OH269717   0.845   4.417  16.990 -0.0009  0.2534  0.3574
16101TIP3    H169718   0.786   4.405  16.915  0.7438 -0.1823 -0.1700
16101TIP3    H269719   0.933   4.416  16.952  0.3758  0.3445  1.2047
16102TIP3   OH269720   1.560   2.259   1.574 -0.6117 -0.1469 -0.5834
16102TIP3    H169721   1.560   2.263   1.670 -1.5765  2.8075 -0.6004
16102TIP3    H269722   1.640   2.213   1.552  1.1643  1.6217  1.6422
16103TIP3   OH269723   2.363   5.761   1.228  0.5840 -0.1493  0.0656
16103TIP3    H169724   2.310   5.689   1.192  0.9704 -1.2776  1.6261
16103TIP3    H269725   2.333   5.839   1.181 -1.5790 -0.9341  0.0422
16104TIP3   OH269726   5.426   5.087   2.189 -0.4817 -0.3782  0.0830
16104TIP3    H169727   5.448   5.015   2.249  0.3718 -0.7947 -0.7053
16104TIP3    H269728   5.389   5.044   2.112  0.4116 -0.0188 -0.5633
16105TIP3   OH269729   1.285   0.017   1.654  0.0902  0.2066 -0.3125
16105TIP3    H169730   1.254  -0.048   1.717  1.2937 -0.0556  0.0509
16105TIP3    H269731   1.294  -0.032   1.572  0.2801  0.0979 -0.2266
16106TIP3   OH269732   2.127   0.073   4.799  0.1225 -0.1557 -0.4422
16106TIP3    H169733   2.198   0.094   4.737  0.3835 -1.7630 -0.7356
16106TIP3    H269734   2.172   0.029   4.871 -0.5204 -0.8562 -0.4599
16107TIP3   OH269735   3.505   0.909  11.897  0.4963  0.4910  0.0716
16107TIP3    H169736   3.531   0.842  11.961 -3.3428 -1.4764 -0.1434
16107TIP3    H269737   3.474   0.982  11.950  1.9144  0.9186  0.3459
16108TIP3   OH269738   3.542   1.204   0.521 -0.6180  0.2374 -0.2808
16108TIP3    H169739   3.569   1.239   0.606  0.1266  1.0715 -0.8467
16108TIP3    H269740   3.466   1.150   0.541  0.1934 -0.4688  1.0703
16109TIP3   OH269741   4.945   6.168  10.675  0.1691 -0.3335  0.2192
16109TIP3    H169742   4.951   6.254  10.717  3.6684 -0.3087 -0.0294
16109TIP3    H269743   4.966   6.185  10.583 -0.6166 -1.3010 -0.1583
16110TIP3   OH269744   1.700   2.448  14.443  0.5443  0.0498  0.0136
16110TIP3    H169745   1.703   2.356  14.417 -0.8914 -0.2940  0.9553
16110TIP3    H269746   1.766   2.456  14.511  1.1948 -0.1027 -0.5944
16111TIP3   OH269747   3.309   1.855   5.430  0.1722 -0.2044  0.1832
16111TIP3    H169748   3.380   1.905   5.390 -0.7689  0.1163 -1.1761
16111TIP3    H269749   3.298   1.779   5.373 -0.9673  0.0675  0.0140
16112TIP3   OH269750   0.202   5.972  14.948 -0.4954  0.3811  0.5542
16112TIP3    H169751   0.260   6.031  14.900 -0.3098 -1.6900 -2.0239
16112TIP3    H269752   0.121   6.021  14.960  0.5127  2.0315  0.8988
16113TIP3   OH269753   5.013   4.280  16.918  0.3788 -0.4992  0.1874
16113TIP3    H169754   5.037   4.264  16.827  1.5015  1.1512  0.1604
16113TIP3    H269755   4.978   4.196  16.948 -0.0961 -1.0540 -1.7680
16114TIP3   OH269756   6.034   0.394  13.291  0.1362 -0.0661 -0.1210
16114TIP3    H169757   6.048   0.455  13.364 -1.6145 -0.4104  0.5349
16114TIP3    H269758   5.985   0.321  13.329  1.5059 -1.5607 -1.0659
16115TIP3   OH269759   2.535   4.946  11.161  0.2545  0.4490  0.1196
16115TIP3    H169760   2.513   5.039  11.175 -0.5993  0.2193  0.3655
16115TIP3    H269761   2.455   4.899  11.182  0.9106 -0.4203  0.7481
16116TIP3   OH269762   4.596   6.594  12.481 -0.5058 -0.2632  0.4741
16116TIP3    H169763   4.517   6.573  12.531 -1.0587 -0.3828 -0.4261
16116TIP3    H269764   4.563   6.633  12.399  0.3580 -0.4466  0.0258
16117TIP3   OH269765   0.729   4.028  12.978 -0.2688  0.2342 -0.4035
16117TIP3    H169766   0.647   4.045  13.024 -2.0667  0.7038 -3.5511
16117TIP3    H269767   0.758   4.114  12.948 -0.0897 -0.2074 -1.5627
16118TIP3   OH269768   5.624   4.470  11.119  0.1192 -0.3407 -0.0755
16118TIP3    H169769   5.671   4.404  11.067 -0.1044 -1.4024  1.0256
16118TIP3    H269770   5.685   4.493  11.189  0.2058  0.6791 -0.4611
16119TIP3   OH269771   3.059   3.017   1.105  0.5257 -0.0523  0.2262
16119TIP3    H169772   3.017   3.062   1.178  2.6475 -1.5669  2.5698
16119TIP3    H269773   3.083   3.086   1.044  1.3366  1.7382  2.4326
16120TIP3   OH269774   0.689   1.637  16.872 -0.5907  0.6801 -0.2085
16120TIP3    H169775   0.600   1.615  16.846 -0.5506  0.0119  0.1945
16120TIP3    H269776   0.680   1.713  16.930 -1.0897 -0.5801  1.4165
16121TIP3   OH269777   0.727   1.704   4.147 -0.3370 -0.2998 -0.1877
16121TIP3    H169778   0.711   1.739   4.234  2.1001 -0.8207  0.5452
16121TIP3    H269779   0.667   1.752   4.090 -2.0260  0.0193  1.7439
16122TIP3   OH269780   6.611   5.975   5.337 -0.0569  0.0925  0.2436
16122TIP3    H169781   6.588   6.064   5.363  1.3263  0.4795  0.1682
16122TIP3    H269782   6.591   5.922   5.415  0.0965  0.6227  0.6492
16123TIP3   OH269783   1.678   6.741   2.672 -0.4444  0.0856 -0.3433
16123TIP3    H169784   1.669   6.793   2.752 -0.4045 -1.7644  0.9305
16123TIP3    H269785   1.589   6.708   2.656 -0.4542  0.4699 -1.0980
16124TIP3   OH269786   5.327   0.941   2.971  0.0152 -0.1033  0.4816
16124TIP3    H169787   5.322   0.997   3.048  3.0525  0.1479  0.5884
16124TIP3    H269788   5.244   0.957   2.925 -0.9349  1.3738  2.5577
16125TIP3   OH269789   6.686   4.391   1.509 -0.1659  0.4518  0.2352
16125TIP3    H169790   6.751   4.414   1.443 -0.3485  0.6773  0.1345
16125TIP3    H269791   6.726   4.319   1.558  0.7786  1.5236  1.1032
16126TIP3   OH269792   2.243   6.114  15.310  0.1604 -0.0393 -0.3618
16126TIP3    H169793   2.189   6.187  15.340  0.6263 -0.6429  2.2417
16126TIP3    H269794   2.287   6.146  15.232  0.0832  2.3517  0.4981
16127TIP3   OH269795   0.569   5.995  10.478 -0.3058 -0.2006 -0.0675
16127TIP3    H169796   0.598   6.086  10.475  1.2706 -0.6705 -0.2722
16127TIP3    H269797   0.638   5.947  10.432 -0.8756 -1.5531  0.4441
16128TIP3   OH269798   1.083   2.366   4.071 -0.0001  0.2397 -0.4438
16128TIP3    H169799   1.048   2.410   3.994 -0.5076 -0.7564 -0.7973
16128TIP3    H269800   1.102   2.437   4.133 -2.4880  0.8594 -0.2931
16129TIP3   OH269801   5.986   4.522   0.626  0.8046 -0.1061  0.1711
16129TIP3    H169802   6.034   4.526   0.709  2.2463 -2.6435 -0.4233
16129TIP3    H269803   6.052   4.542   0.559  0.4320 -1.1515 -0.5313
16130TIP3   OH269804   5.027   2.576   3.360 -0.2080 -0.0431 -0.2544
16130TIP3    H169805   5.014   2.556   3.267 -4.6566 -0.4620  0.2085
16130TIP3    H269806   5.063   2.495   3.398 -0.2859 -0.5821 -1.3009
16131TIP3   OH269807   5.822   2.156   3.375  0.2720 -0.3966 -0.4777
16131TIP3    H169808   5.743   2.194   3.338 -0.9295 -0.6348  1.6649
16131TIP3    H269809   5.859   2.226   3.429 -0.7012 -1.4483  1.6628
16132TIP3   OH269810   3.654   2.207   0.805  0.0543 -0.0539  0.3690
16132TIP3    H169811   3.664   2.112   0.800  0.0018 -0.1118  1.1627
16132TIP3    H269812   3.564   2.220   0.835 -0.6560  0.3222 -1.7662
16133TIP3   OH269813   0.628   3.449  13.866  0.4941 -0.7659  0.3617
16133TIP3    H169814   0.569   3.380  13.894 -0.0260 -1.3195 -1.9042
16133TIP3    H269815   0.579   3.530  13.881 -0.7194 -1.1900 -1.0799
16134TIP3   OH269816   3.426   2.563   0.193 -0.5631 -0.8775 -0.0713
16134TIP3    H169817   3.470   2.647   0.198  0.1519 -1.2548  0.1165
16134TIP3    H269818   3.475   2.514   0.127 -0.9964 -1.1302 -0.2095
16135TIP3   OH269819   5.386   5.965  10.671  0.1241  0.0765 -0.6443
16135TIP3    H169820   5.459   5.982  10.612 -0.6076 -0.6910 -1.8060
16135TIP3    H269821   5.347   5.884  10.639 -1.7083  0.8650 -0.5231
16136TIP3   OH269822   0.210   0.004   0.675 -0.0497  0.8202 -0.5579
16136TIP3    H169823   0.260  -0.064   0.629 -0.0638  0.1634  0.3620
16136TIP3    H269824   0.223  -0.016   0.768 -3.9428 -0.8926 -0.1928
16137TIP3   OH269825   4.143   5.364   1.839 -0.0068 -0.6841  0.3428
16137TIP3    H169826   4.119   5.384   1.929  2.0144  2.0818  0.3826
16137TIP3    H269827   4.226   5.317   1.846 -1.3036 -3.1859 -0.0567
16138TIP3   OH269828   3.920   4.796  11.793  0.4141  0.1606 -0.3172
16138TIP3    H169829   3.869   4.745  11.731  0.8239  1.5663 -1.8676
16138TIP3    H269830   3.905   4.753  11.877  2.0051 -3.5606 -1.6959
16139TIP3   OH269831   1.303   0.092  13.515 -0.3988 -0.0757 -0.1192
16139TIP3    H169832   1.247   0.053  13.448 -1.7696 -0.6299  1.2899
16139TIP3    H269833   1.246   0.155  13.559 -0.1604 -1.1538  1.8100
16140TIP3   OH269834   0.943   6.246  15.484 -0.1279  0.4779 -0.1669
16140TIP3    H169835   0.914   6.336  15.475  0.8991  0.8393 -0.0292
16140TIP3    H269836   0.882   6.195  15.431 -0.6101  1.2732 -0.3836
16141TIP3   OH269837   5.149   5.989  10.388  0.1976  0.0155 -0.0540
16141TIP3    H169838   5.084   5.920  10.374  0.1269  0.4243 -1.9729
16141TIP3    H269839   5.232   5.942  10.396  0.0845 -0.3450 -0.8753
16142TIP3   OH269840   1.287   6.772  11.203  0.2531 -0.3277 -0.2700
16142TIP3    H169841   1.251   6.861  11.197  0.1662 -0.3008  0.4874
16142TIP3    H269842   1.360   6.771  11.142 -0.7805 -0.2606 -1.5666
16143TIP3   OH269843   4.638   6.614   5.959 -0.1602  0.1316  0.5221
16143TIP3    H169844   4.555   6.573   5.937  0.9814 -1.5701 -0.7882
16143TIP3    H269845   4.644   6.690   5.901 -0.1634 -0.5640 -0.4019
16144TIP3   OH269846   0.133   0.933   0.588  0.2574 -0.2003  0.2481
16144TIP3    H169847   0.106   1.025   0.601  1.5482  0.1651  0.4212
16144TIP3    H269848   0.150   0.926   0.495  1.7021  0.1957  0.4552
16145TIP3   OH269849   5.793   6.331  14.622 -0.0701 -0.5129  0.3319
16145TIP3    H169850   5.846   6.292  14.691 -1.8342 -1.4047  1.2431
16145TIP3    H269851   5.703   6.310  14.645 -0.8040  0.2050 -1.6180
16146TIP3   OH269852   1.131   1.612  15.319  0.4048 -0.0574  0.1406
16146TIP3    H169853   1.197   1.548  15.292  1.5197  1.5992 -1.3122
16146TIP3    H269854   1.152   1.691  15.268 -3.3553  0.2304 -1.2772
16147TIP3   OH269855   6.146   3.887  16.323  0.1325 -0.0070  0.2838
16147TIP3    H169856   6.121   3.954  16.386  0.1242 -0.9283  1.2827
16147TIP3    H269857   6.070   3.881  16.264  0.5019  1.4801 -0.3772
16148TIP3   OH269858   6.367   0.143   0.532  0.1012  0.3548 -0.6266
16148TIP3    H169859   6.353   0.221   0.586  1.8644  0.1245  0.2230
16148TIP3    H269860   6.399   0.077   0.593 -2.5294 -1.5169 -1.0784
16149TIP3   OH269861   0.986   2.562  12.010 -0.1773 -0.2393 -0.1938
16149TIP3    H169862   0.927   2.536  12.081 -0.0976 -0.3679 -0.1738
16149TIP3    H269863   1.043   2.628  12.049 -1.4013  1.1577 -0.6636
16150TIP3   OH269864   0.045   6.190   1.876 -0.4227  0.9540 -0.4081
16150TIP3    H169865   0.085   6.219   1.794  2.9812 -0.0110  0.7322
16150TIP3    H269866   0.039   6.269   1.929 -0.8851  1.2646 -0.9154
16151TIP3   OH269867   3.456   1.689  16.323 -0.0820  0.1876 -0.3548
16151TIP3    H169868   3.540   1.656  16.293 -0.0571  1.0703 -1.3113
16151TIP3    H269869   3.477   1.768  16.373 -0.3071  0.0667 -0.0602
16152TIP3   OH269870   6.543   4.141   5.277 -0.4790  0.1778 -0.2465
16152TIP3    H169871   6.576   4.207   5.338  0.9278  0.7334 -1.5551
16152TIP3    H269872   6.621   4.109   5.231 -1.4962 -0.0315 -1.9190
16153TIP3   OH269873   6.615   4.687  12.270  0.2212 -0.6665  0.5091
16153TIP3    H169874   6.550   4.685  12.199  1.8045 -0.3543 -1.0297
16153TIP3    H269875   6.651   4.776  12.266  0.4754 -0.7144  1.6002
16154TIP3   OH269876   1.406   1.461  16.379  0.4442  0.2032  0.4164
16154TIP3    H169877   1.396   1.453  16.284 -0.9944  0.1831  0.5465
16154TIP3    H269878   1.335   1.520  16.406  1.6255  1.2725  1.3343
16155TIP3   OH269879   3.260   4.112   2.227  0.3091  0.0620  0.6653
16155TIP3    H169880   3.239   4.175   2.158 -0.1344 -1.4353 -0.6143
16155TIP3    H269881   3.196   4.131   2.296 -0.1607  0.6660  0.0824
16156TIP3   OH269882   2.071   2.404  12.717 -0.4961 -0.4320 -0.2157
16156TIP3    H169883   2.085   2.491  12.681  0.4257 -0.6130 -0.3320
16156TIP3    H269884   2.083   2.415  12.812  0.8359 -0.6371 -0.3387
16157TIP3   OH269885   5.022   1.396   0.273  0.7955 -0.2555  0.3775
16157TIP3    H169886   5.010   1.473   0.328 -1.5226 -1.4477  1.6957
16157TIP3    H269887   4.958   1.407   0.202 -0.1201 -1.2878  1.0134
16158TIP3   OH269888   0.903   4.223  16.622 -0.1802  0.2331 -0.1367
16158TIP3    H169889   0.968   4.290  16.642 -0.0184  0.9032 -2.5788
16158TIP3    H269890   0.819   4.268  16.630 -0.3219 -0.2930  1.7620
16159TIP3   OH269891   4.306   1.291  13.767  0.2102  0.4872 -0.2192
16159TIP3    H169892   4.255   1.365  13.734  0.4960  1.2312  0.9610
16159TIP3    H269893   4.268   1.272  13.852  2.9220  2.2250  1.5453
16160TIP3   OH269894   1.444   6.495   1.783 -0.1866 -0.2216  0.4415
16160TIP3    H169895   1.491   6.534   1.857  2.3173 -0.4616 -0.9138
16160TIP3    H269896   1.511   6.446   1.735 -1.5583  0.4338 -2.3351
16161TIP3   OH269897   4.995   2.986   1.533  0.4957  0.2071 -0.1116
16161TIP3    H169898   4.976   3.073   1.496  1.5376  0.9646  1.0589
16161TIP3    H269899   4.913   2.959   1.573  0.0894  0.5307 -0.7024
16162TIP3   OH269900   6.483   3.571   0.303 -0.4045  0.3592  0.3628
16162TIP3    H169901   6.551   3.571   0.369 -0.6207  0.9519  0.5935
16162TIP3    H269902   6.404   3.541   0.349 -0.4636  0.3752  0.2734
16163TIP3   OH269903   3.480   3.073   5.590  0.0530  0.2555 -0.6897
16163TIP3    H169904   3.569   3.092   5.619 -0.3515 -0.7952  1.3794
16163TIP3    H269905   3.430   3.151   5.614 -0.1273 -0.3038  0.8231
16164TIP3   OH269906   0.335   4.836  16.835 -0.2878 -0.5597  0.1331
16164TIP3    H169907   0.350   4.755  16.883  1.1050 -2.1719 -2.7683
16164TIP3    H269908   0.400   4.835  16.764 -1.4744  2.1687 -1.1616
16165TIP3   OH269909   3.777   3.835   5.298 -0.8308  0.2477 -0.2026
16165TIP3    H169910   3.769   3.740   5.306 -0.0252  0.1493 -0.4142
16165TIP3    H269911   3.764   3.853   5.205 -0.2547  0.2545 -0.2865
16166TIP3   OH269912   2.804   6.713  11.854 -0.3894  0.2394 -0.2958
16166TIP3    H169913   2.803   6.623  11.886  1.2956 -0.2143 -1.3738
16166TIP3    H269914   2.884   6.751  11.890 -0.7053  1.0852 -0.4426
16167TIP3   OH269915   6.692   0.176  12.440  0.2985  0.0584  0.1624
16167TIP3    H169916   6.728   0.100  12.486  0.5457  0.6348  0.9319
16167TIP3    H269917   6.637   0.220  12.504  0.6134  0.8447 -0.0909
16168TIP3   OH269918   1.304   5.700  16.918 -0.3896 -0.2140  0.3427
16168TIP3    H169919   1.244   5.774  16.928 -2.5324 -1.6825 -0.7656
16168TIP3    H269920   1.308   5.661  17.005  0.2285  0.7922  0.7825
16169TIP3   OH269921   4.016   0.512  13.047 -0.0264  0.4685  0.7258
16169TIP3    H169922   4.012   0.416  13.052  1.5233  0.3632  0.6037
16169TIP3    H269923   3.977   0.542  13.129  1.2945 -0.3554  1.7069
16170TIP3   OH269924   1.278   5.699  11.726 -0.6304 -0.4352  0.0252
16170TIP3    H169925   1.238   5.771  11.775 -1.3888 -0.2837 -0.7809
16170TIP3    H269926   1.371   5.722  11.720 -0.7439  0.1237  0.3873
16171TIP3   OH269927   5.139   0.229   0.768 -0.0508  0.2836 -0.1858
16171TIP3    H169928   5.177   0.314   0.746 -2.2123  1.6386  1.0101
16171TIP3    H269929   5.098   0.199   0.687  0.6073  0.4259 -0.5784
16172TIP3   OH269930   2.486   2.716  12.097 -0.0911 -0.4563 -0.9360
16172TIP3    H169931   2.498   2.636  12.046 -1.0502  0.0637 -2.0320
16172TIP3    H269932   2.573   2.758  12.096  0.6453 -1.8527  0.3806
16173TIP3   OH269933   5.319   2.285   1.922 -0.0653  0.2268 -0.3441
16173TIP3    H169934   5.332   2.190   1.924  3.0561  0.5633 -0.2060
16173TIP3    H269935   5.347   2.312   1.835 -1.0412  1.0487 -0.4317
16174TIP3   OH269936   3.748   3.847  13.297  0.7698  0.0854 -0.5472
16174TIP3    H169937   3.786   3.769  13.336 -0.2623 -0.8509 -1.3489
16174TIP3    H269938   3.660   3.820  13.269 -0.8725  2.3228  1.8909
16175TIP3   OH269939   5.674   1.743  16.077  0.6817 -0.1113 -0.0823
16175TIP3    H169940   5.620   1.757  16.000  1.8841 -0.0731 -0.9388
16175TIP3    H269941   5.620   1.687  16.134 -0.7593  0.9652 -0.3243
16176TIP3   OH269942   3.908   6.759   1.808  0.1923 -1.1966  0.9271
16176TIP3    H169943   3.927   6.666   1.800 -1.8316 -1.5768 -0.0733
16176TIP3    H269944   3.868   6.783   1.725  3.5977  1.4050 -0.2117
16177TIP3   OH269945   1.000   6.041  13.418 -0.4716 -0.3116 -0.3561
16177TIP3    H169946   1.072   6.040  13.355  1.2751  0.0851  1.5411
16177TIP3    H269947   0.969   6.132  13.419  0.2522 -0.0668  0.1608
16178TIP3   OH269948   1.350   0.196  14.756 -0.2504  0.6202  0.2493
16178TIP3    H169949   1.356   0.234  14.669 -0.0898  0.2648  0.1043
16178TIP3    H269950   1.298   0.116  14.744 -0.6567  0.8328  0.5639
16179TIP3   OH269951   5.858   2.902  13.506  0.4352 -0.2574 -0.4127
16179TIP3    H169952   5.882   2.820  13.461 -1.5179 -2.0532  1.5630
16179TIP3    H269953   5.922   2.910  13.576  1.0721  0.3617 -1.0464
16180TIP3   OH269954   5.928   0.926   6.794 -0.1488  0.1140  0.1772
16180TIP3    H169955   5.915   0.963   6.706 -0.9632  1.5926  0.8770
16180TIP3    H269956   6.015   0.956   6.820  0.4618 -1.0463 -0.4234
16181TIP3   OH269957   5.319   4.248  14.576  0.2173 -0.1277 -0.0227
16181TIP3    H169958   5.323   4.194  14.497 -0.6692 -1.1700  0.6188
16181TIP3    H269959   5.403   4.233  14.620  2.0474  2.7726 -2.1516
16182TIP3   OH269960   6.093   2.061  13.571 -0.1184 -0.4411  0.2632
16182TIP3    H169961   6.087   2.093  13.662 -0.5244 -2.4045  0.9632
16182TIP3    H269962   6.187   2.051  13.556 -0.0358  0.1150  0.3809
16183TIP3   OH269963   3.582   0.605  16.186  0.1166  0.0597  0.2966
16183TIP3    H169964   3.502   0.606  16.238  1.6138 -0.9383  2.8033
16183TIP3    H269965   3.640   0.668  16.230  2.2207 -2.3929  1.3428
16184TIP3   OH269966   5.529   0.199   2.464 -0.0633  0.4237  0.2876
16184TIP3    H169967   5.471   0.166   2.532 -1.1496  2.2816  0.3232
16184TIP3    H269968   5.475   0.260   2.414  1.1496  0.2719 -1.2983
16185TIP3   OH269969   5.150   3.649   2.311  0.3442  0.7664  0.3463
16185TIP3    H169970   5.169   3.617   2.399 -0.7303  0.5216  0.5007
16185TIP3    H269971   5.223   3.617   2.257  1.4603  1.6464  1.2856
16186TIP3   OH269972   5.671   0.666   1.719  0.4342 -0.5569  0.0741
16186TIP3    H169973   5.626   0.583   1.731 -1.1705  0.4135  1.0883
16186TIP3    H269974   5.682   0.700   1.808 -0.6288  1.1682 -0.4218
16187TIP3   OH269975   6.666   4.808   0.530 -0.1556  0.0065 -0.7959
16187TIP3    H169976   6.586   4.782   0.485  0.5562 -0.9502 -1.5637
16187TIP3    H269977   6.639   4.878   0.589 -1.5689 -0.3729 -0.9568
16188TIP3   OH269978   0.982   5.298   0.890 -0.4935  0.2131  0.0069
16188TIP3    H169979   0.943   5.323   0.974  1.2213 -0.2011  0.9634
16188TIP3    H269980   0.982   5.380   0.840 -0.0144  0.8879  1.0489
16189TIP3   OH269981   0.269   6.627   4.208  0.0985  0.1659  0.2511
16189TIP3    H169982   0.350   6.611   4.256  0.1380 -0.7999 -0.1119
16189TIP3    H269983   0.273   6.719   4.183  1.3413 -0.0065 -0.2361
16190TIP3   OH269984   3.287   4.063  16.187  0.0880  0.3172  1.0912
16190TIP3    H169985   3.299   3.999  16.117 -0.8782  1.7417 -0.4482
16190TIP3    H269986   3.372   4.107  16.194  0.2669 -0.0095  0.9900
16191TIP3   OH269987   3.315   1.866  14.356 -0.7200 -0.1185  0.2224
16191TIP3    H169988   3.321   1.772  14.372 -0.5336 -0.2787 -0.7386
16191TIP3    H269989   3.333   1.906  14.441 -0.5656 -0.9442  0.5872
16192TIP3   OH269990   5.132   1.596  14.321  0.4979  0.1860  0.1263
16192TIP3    H169991   5.044   1.627  14.301  0.4817  0.0678  0.0161
16192TIP3    H269992   5.186   1.675  14.317  0.4223  0.2341  0.0494
16193TIP3   OH269993   5.498   1.625  10.899  0.1830  0.0338 -0.1560
16193TIP3    H169994   5.482   1.695  10.962 -2.6849 -0.7274  0.1210
16193TIP3    H269995   5.534   1.554  10.952 -0.0472  0.1780  0.2037
16194TIP3   OH269996   3.106   6.243  15.465 -0.5330  0.2913 -0.0128
16194TIP3    H169997   3.094   6.268  15.373  0.6215 -2.8771 -1.1718
16194TIP3    H269998   3.023   6.203  15.490 -0.2270 -0.5660 -0.3370
16195TIP3   OH269999   3.444   1.454  15.692  0.5266  0.0421  0.3686
16195TIP3    H170000   3.405   1.464  15.605 -0.9298 -1.2583  0.8218
16195TIP3    H270001   3.406   1.525  15.744 -0.5384 -0.6237  0.5430
16196TIP3   OH270002   1.667   1.892   2.471  0.0377 -0.2312  0.1236
16196TIP3    H170003   1.687   1.876   2.379 -0.3363 -1.9933  0.3200
16196TIP3    H270004   1.587   1.944   2.470  0.2874  0.1517 -0.5435
16197TIP3   OH270005   4.983   6.443   4.893  0.1849 -0.3954 -0.2005
16197TIP3    H170006   5.032   6.402   4.964 -0.4925  0.4279  0.7860
16197TIP3    H270007   5.013   6.534   4.892 -1.1908  0.0997  0.3580
16198TIP3   OH270008   5.202   0.974   6.005  0.0127 -0.0941  0.3240
16198TIP3    H170009   5.168   1.025   6.078  0.1728  0.2177  0.1796
16198TIP3    H270010   5.129   0.917   5.980 -0.6610  1.0574 -0.4390
16199TIP3   OH270011   2.227   5.150  11.279 -0.0178  0.5902  0.1243
16199TIP3    H170012   2.216   5.066  11.322 -2.8137  0.8634  0.1123
16199TIP3    H270013   2.226   5.214  11.350 -1.4201  0.8062 -0.0473
16200TIP3   OH270014   3.598   3.930  11.239  0.0995 -0.1415  0.9738
16200TIP3    H170015   3.657   3.867  11.198  0.4973 -0.2399  1.6820
16200TIP3    H270016   3.598   3.907  11.332  2.9197  2.9239  1.9213
16201TIP3   OH270017   2.739   2.011  11.363 -0.5201  0.2893  0.1728
16201TIP3    H170018   2.817   2.024  11.308 -0.2436  0.3073  0.5688
16201TIP3    H270019   2.717   2.099  11.393 -0.7583  0.2981 -0.0204
16202TIP3   OH270020   4.206   4.412  10.931 -0.0990  0.3049 -0.9370
16202TIP3    H170021   4.295   4.425  10.965  0.4331 -0.9952 -1.7373
16202TIP3    H270022   4.216   4.417  10.836 -0.8001 -0.2715 -1.0497
16203TIP3   OH270023   6.507   3.050   4.352 -0.2619  0.5372 -0.4214
16203TIP3    H170024   6.548   3.029   4.436 -0.7854  2.2858  0.3332
16203TIP3    H270025   6.562   3.120   4.316 -1.2801  1.3525 -0.4411
16204TIP3   OH270026   4.301   4.671   0.092 -0.1210  0.7829 -0.7659
16204TIP3    H170027   4.326   4.757   0.059 -2.0103  1.7163  0.0917
16204TIP3    H270028   4.273   4.623   0.014 -0.1551  1.3420 -1.1064
16205TIP3   OH270029   2.474   5.616   6.022  0.2670 -0.0900 -0.4266
16205TIP3    H170030   2.554   5.562   6.027  0.5091  0.3158  0.2315
16205TIP3    H270031   2.423   5.589   6.098  0.5801  0.8920  0.1510
16206TIP3   OH270032   1.431   3.796   1.379  0.3919 -0.6891 -0.0346
16206TIP3    H170033   1.493   3.767   1.445  1.7836  0.6519 -0.6950
16206TIP3    H270034   1.346   3.794   1.423  1.0482 -1.5337  1.2224
16207TIP3   OH270035   3.624   4.796  12.189 -0.3624  0.0170  0.3304
16207TIP3    H170036   3.630   4.708  12.226 -0.7357  0.4563  1.4875
16207TIP3    H270037   3.625   4.783  12.094 -0.4697 -1.2265  0.4899
16208TIP3   OH270038   0.094   6.624   5.119 -0.0135  0.4362 -0.0172
16208TIP3    H170039   0.056   6.536   5.122  0.7444  0.1139  0.4482
16208TIP3    H270040   0.181   6.611   5.082  1.2027  0.5497  2.5399
16209TIP3   OH270041   2.642   6.626  14.884  0.4160  0.1776  0.5179
16209TIP3    H170042   2.619   6.627  14.792 -1.3119  1.6892  0.9193
16209TIP3    H270043   2.738   6.633  14.885  0.4009  0.9634 -1.1374
16210TIP3   OH270044   3.009   4.163  16.321  0.1032 -0.2424 -0.1440
16210TIP3    H170045   2.943   4.097  16.341 -0.3122  0.4348  0.7804
16210TIP3    H270046   3.065   4.167  16.399  0.5866 -0.0353 -0.4903
16211TIP3   OH270047   5.599   6.554  11.174  0.3102  0.4716  0.2286
16211TIP3    H170048   5.683   6.521  11.143 -0.2048  0.4746 -1.2442
16211TIP3    H270049   5.587   6.637  11.128 -0.6215  0.3348  0.2026
16212TIP3   OH270050   0.333   0.764   2.553  0.3560 -0.8017 -0.2298
16212TIP3    H170051   0.405   0.726   2.603 -0.8502 -2.2157  0.5286
16212TIP3    H270052   0.290   0.824   2.615  0.3266 -0.6672 -0.3792
16213TIP3   OH270053   0.177   1.553   5.590  0.4219  0.0741  0.3925
16213TIP3    H170054   0.269   1.548   5.615  0.2437  0.9606  1.2573
16213TIP3    H270055   0.131   1.578   5.670 -0.4980  0.2245 -0.1663
16214TIP3   OH270056   5.312   5.034   3.725  0.0317  0.3867 -0.8314
16214TIP3    H170057   5.331   5.105   3.664 -0.1671  1.6563  0.5393
16214TIP3    H270058   5.218   5.039   3.740  0.2629  0.9522  0.5772
16215TIP3   OH270059   2.258   0.903   0.925  0.0503  0.2914 -0.2457
16215TIP3    H170060   2.319   0.973   0.901  0.0845  0.2192 -0.3698
16215TIP3    H270061   2.171   0.942   0.914 -0.0901 -0.6964 -3.6852
16216TIP3   OH270062   2.363   5.854   5.696  0.5273 -0.3415 -0.2984
16216TIP3    H170063   2.393   5.865   5.786 -0.1364  0.2397 -0.1392
16216TIP3    H270064   2.408   5.776   5.665  2.5136  0.7163 -0.2079
16217TIP3   OH270065   5.050   3.853  12.945  0.8485 -0.2130  0.4409
16217TIP3    H170066   5.083   3.785  12.886 -0.2382 -0.7736  0.4554
16217TIP3    H270067   5.094   3.933  12.917 -1.1697  0.0106 -2.5625
16218TIP3   OH270068   0.971   1.468  14.836  0.6121 -0.1794 -0.3531
16218TIP3    H170069   1.029   1.540  14.862 -0.1857  0.2623  0.2381
16218TIP3    H270070   0.883   1.502  14.851  0.2220 -1.2389 -0.1921
16219TIP3   OH270071   1.331   6.234   5.282 -0.1733  0.0585  0.1630
16219TIP3    H170072   1.306   6.268   5.196 -0.1016  0.5231  0.3228
16219TIP3    H270073   1.384   6.156   5.263  1.1487  1.0267 -0.2621
16220TIP3   OH270074   5.462   1.737  16.949 -0.4305  0.2421  0.3300
16220TIP3    H170075   5.429   1.682  16.877  0.0538  2.2561 -1.5098
16220TIP3    H270076   5.553   1.710  16.961 -0.5814 -0.2601  0.3852
16221TIP3   OH270077   3.781   0.265  13.450  0.8282  0.0243 -0.4197
16221TIP3    H170078   3.825   0.209  13.386  0.5143  1.4102 -1.9395
16221TIP3    H270079   3.852   0.314  13.491  0.9856 -0.4144 -0.1657
16222TIP3   OH270080   0.499   1.022  17.038  0.0326 -0.3500 -0.1711
16222TIP3    H170081   0.586   1.063  17.037  0.5840 -1.4638 -1.7185
16222TIP3    H270082   0.439   1.091  17.011  0.3299  0.5659  1.3655
16223TIP3   OH270083   5.071   1.054   4.536 -0.3194 -0.5263 -0.3494
16223TIP3    H170084   5.152   1.038   4.584  0.5915  1.9658 -0.8955
16223TIP3    H270085   5.073   0.992   4.463 -0.2314 -2.2566  1.0580
16224TIP3   OH270086   3.302   1.248  16.917  0.1558  0.0876  0.1562
16224TIP3    H170087   3.223   1.269  16.868 -0.2798  0.9227  1.1658
16224TIP3    H270088   3.289   1.289  17.003  1.2236 -0.6576  0.7084
16225TIP3   OH270089   1.593   3.536   2.874  0.4890 -0.3246 -0.5141
16225TIP3    H170090   1.673   3.484   2.871 -0.3050 -1.9214  2.6025
16225TIP3    H270091   1.545   3.504   2.950 -1.7625  2.5979 -0.5046
16226TIP3   OH270092   4.989   1.305   3.511  0.2670 -0.2485 -0.2233
16226TIP3    H170093   5.052   1.277   3.577 -1.0197 -1.3191  0.5797
16226TIP3    H270094   5.043   1.348   3.444  1.6298  0.5945  1.3496
16227TIP3   OH270095   2.711   4.189   5.227  0.0526  0.6816 -0.3371
16227TIP3    H170096   2.723   4.266   5.171 -1.7238  1.6004  0.4566
16227TIP3    H270097   2.663   4.223   5.303 -1.4181 -1.3539 -0.3062
16228TIP3   OH270098   5.612   4.555  15.159  0.1155  0.4041 -0.2152
16228TIP3    H170099   5.662   4.605  15.223  1.3340 -1.2797  0.2173
16228TIP3    H270100   5.521   4.565  15.186  0.5291  0.5396  1.1940
16229TIP3   OH270101   2.874   2.689  13.822 -0.4453  0.4478 -0.4636
16229TIP3    H170102   2.950   2.666  13.875  0.6208  1.6584 -1.3809
16229TIP3    H270103   2.860   2.614  13.765  0.8199  0.6787 -1.0938
16230TIP3   OH270104   1.734   0.262   0.878  0.2172 -0.2482  0.1732
16230TIP3    H170105   1.679   0.235   0.805 -0.3346  0.6962  0.2239
16230TIP3    H270106   1.699   0.347   0.905  0.5991 -0.4319  1.3413
16231TIP3   OH270107   2.387   1.047  16.679  0.6923 -0.0692  0.0435
16231TIP3    H170108   2.395   1.009  16.592 -0.2972  0.8746 -0.4882
16231TIP3    H270109   2.446   0.996  16.733 -1.9950 -3.7417 -0.1316
16232TIP3   OH270110   5.474   1.659  12.601 -0.1349  0.2531  0.4267
16232TIP3    H170111   5.569   1.665  12.601 -0.0750  1.4846 -3.1272
16232TIP3    H270112   5.454   1.585  12.544 -1.2937  0.7761  0.1157
16233TIP3   OH270113   5.693   5.011   4.953 -0.4071  0.4197 -0.6772
16233TIP3    H170114   5.649   5.001   5.037 -1.3664 -1.2180 -1.3288
16233TIP3    H270115   5.697   5.105   4.939 -0.2868  0.7230  1.1551
16234TIP3   OH270116   0.922   3.879   3.344  0.3412  0.1015  0.5156
16234TIP3    H170117   0.880   3.793   3.340  0.0720  0.2886 -1.5515
16234TIP3    H270118   0.849   3.941   3.334  0.8985  0.4504 -2.0710
16235TIP3   OH270119   2.722   0.022  15.607  0.0339 -0.1627  0.0576
16235TIP3    H170120   2.684  -0.005  15.523  0.2247 -1.9202  0.5087
16235TIP3    H270121   2.662  -0.014  15.672  0.6207  0.0359  0.7084
16236TIP3   OH270122   6.595   3.000  12.786  0.2735  0.1598 -0.2335
16236TIP3    H170123   6.587   2.911  12.821  0.4419 -0.3456 -1.4308
16236TIP3    H270124   6.668   3.039  12.835  0.9396 -0.7562 -0.4755
16237TIP3   OH270125   4.087   4.841   1.409  0.1404 -0.0944  0.6467
16237TIP3    H170126   4.180   4.861   1.415  0.2780 -1.1642  2.6833
16237TIP3    H270127   4.077   4.795   1.325  1.7601 -1.5067  1.1867
16238TIP3   OH270128   2.198   0.195  10.993 -0.2427 -0.0248 -0.0408
16238TIP3    H170129   2.280   0.187  10.944  0.0120  1.8046  0.0294
16238TIP3    H270130   2.132   0.158  10.935  0.6238 -1.7320 -0.0154
16239TIP3   OH270131   3.832   6.584  16.257 -0.1935  0.0835  0.0273
16239TIP3    H170132   3.836   6.657  16.195 -0.4393  0.5111  0.5011
16239TIP3    H270133   3.785   6.620  16.332  0.5741 -0.2462  0.6872
16240TIP3   OH270134   5.419   1.803   4.737  0.0183  0.2096  0.1365
16240TIP3    H170135   5.409   1.739   4.807 -0.3458  1.1899  1.0008
16240TIP3    H270136   5.360   1.773   4.668  0.7273 -1.0222  0.0305
16241TIP3   OH270137   5.930   5.331   2.982  0.3514  0.2627 -0.1587
16241TIP3    H170138   5.917   5.239   2.958  0.1034  0.7458 -2.0212
16241TIP3    H270139   5.846   5.359   3.017  0.2334 -0.0609 -0.1831
16242TIP3   OH270140   2.782   3.262   0.679 -0.1596 -0.1193  0.2277
16242TIP3    H170141   2.768   3.264   0.774  0.3785 -0.8074  0.3366
16242TIP3    H270142   2.707   3.213   0.645  0.4389 -1.2693  0.4895
16243TIP3   OH270143   2.811   0.420  14.308 -0.7038  0.1576  0.5000
16243TIP3    H170144   2.822   0.327  14.326  0.4859  0.2103  0.1385
16243TIP3    H270145   2.732   0.445  14.356 -0.6437 -0.8811  1.1604
16244TIP3   OH270146   1.616   5.999   0.977 -0.5129 -0.6041 -1.0890
16244TIP3    H170147   1.585   5.955   0.898 -1.2844  1.2866 -1.8851
16244TIP3    H270148   1.540   6.000   1.036 -0.2324 -1.1042 -0.7047
16245TIP3   OH270149   5.524   5.276  13.203 -0.9773 -0.1700  0.2900
16245TIP3    H170150   5.558   5.346  13.258  2.6346 -1.4455 -0.0564
16245TIP3    H270151   5.530   5.310  13.114  0.7296 -0.8077  0.1259
16246TIP3   OH270152   2.285   0.651  13.457 -0.3569 -0.0300 -0.1122
16246TIP3    H170153   2.377   0.676  13.456 -0.5329  0.6245 -0.8445
16246TIP3    H270154   2.260   0.653  13.549  0.2287  0.2965  0.0431
16247TIP3   OH270155   2.585   3.235  12.018  0.4189  0.4591  0.2347
16247TIP3    H170156   2.532   3.175  11.965 -0.4862  0.7341  0.8052
16247TIP3    H270157   2.558   3.218  12.108  1.8073  0.1291  0.6018
16248TIP3   OH270158   3.716   2.706  13.426  0.1489 -0.4667  0.3434
16248TIP3    H170159   3.809   2.713  13.448 -0.1446  2.0017  1.1177
16248TIP3    H270160   3.674   2.680  13.508  0.0521 -0.7520  0.2050
16249TIP3   OH270161   4.012   0.667  13.387 -0.2565  0.1472 -0.0851
16249TIP3    H170162   4.024   0.574  13.406  1.6859  0.6474  1.5325
16249TIP3    H270163   3.939   0.693  13.443 -1.9867 -0.6990 -1.8397
16250TIP3   OH270164   2.516   3.207   0.581 -0.5063 -0.1208 -0.3210
16250TIP3    H170165   2.499   3.301   0.570  1.6732  0.1829 -1.7673
16250TIP3    H270166   2.459   3.165   0.516  0.8826  0.5216 -2.0555
16251TIP3   OH270167   1.652   3.230   5.856  0.4755  0.3668  0.3147
16251TIP3    H170168   1.707   3.153   5.865 -0.6837 -1.2646 -4.0559
16251TIP3    H270169   1.565   3.202   5.885 -0.3355 -0.7144 -2.8139
16252TIP3   OH270170   5.157   4.079   0.185 -0.4493  0.4169 -0.6629
16252TIP3    H170171   5.126   4.031   0.261 -0.7101  0.1814 -0.9151
16252TIP3    H270172   5.161   4.171   0.213  3.0341 -0.0344  0.8326
16253TIP3   OH270173   3.230   2.814  16.660  0.4233  0.2998 -0.0483
16253TIP3    H170174   3.189   2.863  16.731  1.9645  1.7994 -0.1065
16253TIP3    H270175   3.272   2.881  16.606  0.1259 -0.8804 -1.8373
16254TIP3   OH270176   6.710   3.129   4.811  0.3989 -1.0638  0.1274
16254TIP3    H170177   6.688   3.214   4.849 -0.2192 -1.1659  0.0063
16254TIP3    H270178   6.796   3.142   4.771 -0.7174  0.2351 -2.0508
16255TIP3   OH270179   3.846   4.067  13.159  0.8089 -0.3598 -0.1886
16255TIP3    H170180   3.822   3.992  13.213 -2.1937  0.7873  0.2503
16255TIP3    H270181   3.865   4.137  13.222 -0.4401  0.3460 -0.5757
16256TIP3   OH270182   0.975   5.162  17.011 -0.4284  0.4497 -0.1334
16256TIP3    H170183   1.000   5.117  17.093  0.7439  0.8685 -0.2329
16256TIP3    H270184   0.940   5.092  16.956 -3.0696  0.4598  1.3771
16257TIP3   OH270185   5.918   1.089  12.093 -0.4007  0.2785 -0.5757
16257TIP3    H170186   5.980   1.023  12.063 -0.6492 -0.6370  0.8602
16257TIP3    H270187   5.835   1.042  12.104 -1.5828  1.5906 -3.0301
16258TIP3   OH270188   1.373   0.954  13.531 -0.0497 -0.2483  0.1683
16258TIP3    H170189   1.349   0.880  13.587 -2.2154 -0.2044 -0.6079
16258TIP3    H270190   1.365   0.920  13.442  0.1643  0.5923 -0.1781
16259TIP3   OH270191   5.716   5.614   5.913 -0.2004 -0.6982 -0.0171
16259TIP3    H170192   5.723   5.707   5.891  2.0043 -0.6308  0.7629
16259TIP3    H270193   5.668   5.613   5.996 -0.2012 -0.2719 -0.0106
16260TIP3   OH270194   0.056   4.162   1.228  0.3917 -0.0348  0.3351
16260TIP3    H170195   0.114   4.128   1.296  0.4687 -1.7221 -0.5197
16260TIP3    H270196  -0.021   4.105   1.232 -0.1016  0.5756 -0.2334
16261TIP3   OH270197   0.380   4.641  15.651 -0.7207  0.1649  0.4462
16261TIP3    H170198   0.423   4.604  15.574  3.2464  1.2039  1.9408
16261TIP3    H270199   0.329   4.715  15.617 -0.8923 -0.7387 -1.3717
16262TIP3   OH270200   3.769   4.627  13.968 -0.3249  0.3815 -0.1300
16262TIP3    H170201   3.856   4.660  13.991 -0.4241  1.5469 -1.3137
16262TIP3    H270202   3.784   4.537  13.941  0.5562  0.6188 -0.4943
16263TIP3   OH270203   1.230   6.358  13.545 -0.2999  0.0407  0.1388
16263TIP3    H170204   1.280   6.384  13.467  0.9413 -1.4513  0.3921
16263TIP3    H270205   1.261   6.269  13.565 -0.9639  0.1942  2.0432
16264TIP3   OH270206   4.519   2.192   5.312  0.2911 -0.4198 -0.0976
16264TIP3    H170207   4.606   2.219   5.343  0.8991 -0.5526 -1.5994
16264TIP3    H270208   4.509   2.102   5.345 -1.2647  0.9977  3.9596
16265TIP3   OH270209   0.063   6.380   2.699 -0.4472 -0.2976  0.0724
16265TIP3    H170210  -0.015   6.343   2.659  0.0460 -0.3591 -0.8676
16265TIP3    H270211   0.099   6.438   2.632 -0.2313  0.5062  0.8606
16266TIP3   OH270212   0.324   0.465   4.758  0.0311 -0.1674 -0.2392
16266TIP3    H170213   0.240   0.501   4.787 -0.1185 -0.0307 -0.8156
16266TIP3    H270214   0.385   0.484   4.829 -0.1175  0.9557 -0.4017
16267TIP3   OH270215   6.308   0.994  13.920 -0.3361 -0.1432  0.2184
16267TIP3    H170216   6.307   1.087  13.895 -0.3540 -0.8140 -2.6863
16267TIP3    H270217   6.389   0.961  13.882 -0.4502 -1.3705  1.0210
16268TIP3   OH270218   4.409   4.035   0.247 -0.3060  0.1174  0.2447
16268TIP3    H170219   4.383   4.120   0.284  2.0191  1.7374 -1.5440
16268TIP3    H270220   4.379   4.038   0.157  2.4748  0.5109 -0.7842
16269TIP3   OH270221   6.535   4.508   1.014 -0.6204 -0.3847 -0.3537
16269TIP3    H170222   6.483   4.429   1.016  0.8151 -1.3494  0.4617
16269TIP3    H270223   6.584   4.503   0.931 -0.6270 -0.2805 -0.3651
16270TIP3   OH270224   3.386   3.243  14.187 -0.2528  0.9905  0.2488
16270TIP3    H170225   3.348   3.287  14.111 -0.3420 -0.2706 -0.4597
16270TIP3    H270226   3.447   3.307  14.224 -1.7006  2.3717  0.3428
16271TIP3   OH270227   2.994   1.448   4.527 -0.2748  0.2637 -0.5813
16271TIP3    H170228   3.072   1.393   4.534  0.1002  0.6700 -1.3472
16271TIP3    H270229   2.995   1.502   4.606 -0.4078 -0.5152 -0.0404
16272TIP3   OH270230   2.257   4.492  11.527  0.7767  0.6409  0.2378
16272TIP3    H170231   2.293   4.559  11.585  1.4466  0.6000 -0.1233
16272TIP3    H270232   2.208   4.434  11.585 -0.6903  2.0013  0.4385
16273TIP3   OH270233   2.380   4.712   0.731 -0.6359 -0.3606 -0.0769
16273TIP3    H170234   2.398   4.769   0.657  2.1611  1.2731  1.6744
16273TIP3    H270235   2.349   4.630   0.692 -1.6538  1.1957 -2.8404
16274TIP3   OH270236   6.776   3.215  11.146  0.4230  0.0211  0.0390
16274TIP3    H170237   6.745   3.134  11.105  1.5479  0.4173 -1.6814
16274TIP3    H270238   6.697   3.253  11.186  0.0715 -2.4161  1.8625
16275TIP3   OH270239   0.127   0.245   6.217 -0.1491 -0.4676  0.1952
16275TIP3    H170240   0.134   0.179   6.286  0.9744  2.4334  3.1083
16275TIP3    H270241   0.081   0.318   6.259 -1.0829  0.8049 -2.7649
16276TIP3   OH270242   6.472   6.022   1.455  0.1852 -0.1881 -0.2434
16276TIP3    H170243   6.401   5.958   1.463  0.3027 -0.6389 -2.3479
16276TIP3    H270244   6.548   5.970   1.429  0.5523  0.6742 -0.9349
16277TIP3   OH270245   6.567   4.897   0.045  0.1129 -0.0961  0.2104
16277TIP3    H170246   6.557   4.992   0.039  1.0931 -0.0561 -1.8777
16277TIP3    H270247   6.622   4.883   0.122  0.2386  1.0618  0.3440
16278TIP3   OH270248   0.589   1.543  11.438  0.2391 -0.0769  0.4053
16278TIP3    H170249   0.655   1.587  11.492 -0.4011 -1.7114  2.6816
16278TIP3    H270250   0.633   1.466  11.403 -0.0077 -0.3033  0.5886
16279TIP3   OH270251   0.508   4.357  11.656 -0.1691  0.5048  0.1049
16279TIP3    H170252   0.565   4.353  11.579 -0.8845  1.8835 -0.5308
16279TIP3    H270253   0.432   4.304  11.633  0.8296 -1.3922  0.9805
16280TIP3   OH270254   4.054   2.114  14.597 -0.5614  0.1871 -0.3109
16280TIP3    H170255   4.009   2.085  14.677  0.7340 -0.6632  0.1397
16280TIP3    H270256   4.145   2.087  14.610 -0.2580  0.3634 -1.9281
16281TIP3   OH270257   5.541   6.291  14.780  0.2303 -0.2923 -0.6401
16281TIP3    H170258   5.505   6.376  14.753  0.5108  0.3546  0.9141
16281TIP3    H270259   5.563   6.303  14.873  0.4143 -2.0273 -0.4332
16282TIP3   OH270260   6.271   1.675  12.983 -0.5814 -0.1933 -0.2433
16282TIP3    H170261   6.180   1.703  12.985 -0.1338  1.3789 -0.5916
16282TIP3    H270262   6.274   1.601  13.044 -2.2472 -0.8575 -0.9125
16283TIP3   OH270263   1.640   6.284  11.046  0.5286  0.0441 -0.1581
16283TIP3    H170264   1.623   6.253  11.135  1.2021 -1.8130 -0.6250
16283TIP3    H270265   1.731   6.312  11.048  1.1875 -1.9329 -0.7230
16284TIP3   OH270266   1.075   3.037  15.547 -0.2984  0.1475 -0.3061
16284TIP3    H170267   1.025   2.998  15.619 -1.5185  1.2501 -0.5221
16284TIP3    H270268   1.122   3.110  15.588  1.4750 -1.0948 -0.0320
16285TIP3   OH270269   5.529   5.564  14.021  0.2433 -0.3189  0.4605
16285TIP3    H170270   5.514   5.615  13.942 -1.1732 -0.5387  0.5556
16285TIP3    H270271   5.538   5.474  13.991 -1.2483 -0.5408  0.5866
16286TIP3   OH270272   2.896   0.662  16.045 -0.2887  0.0191  0.2325
16286TIP3    H170273   2.974   0.707  16.015 -0.0470 -0.7132 -0.2762
16286TIP3    H270274   2.923   0.617  16.126 -0.1732 -0.2566  0.0415
16287TIP3   OH270275   5.524   1.900   2.726  0.1448 -0.0724  0.5954
16287TIP3    H170276   5.509   1.923   2.634  0.2999  1.9818  1.0387
16287TIP3    H270277   5.619   1.901   2.736  0.1578 -0.9515  0.6454
16288TIP3   OH270278   3.015   6.660   2.933  0.1963  0.5004 -0.1886
16288TIP3    H170279   3.070   6.732   2.902 -2.3484  3.1910  1.1619
16288TIP3    H270280   3.056   6.632   3.015  1.4095  0.0606 -0.9098
16289TIP3   OH270281   3.819   4.318  14.886 -0.0977  0.0298  0.2218
16289TIP3    H170282   3.789   4.232  14.859 -0.8157  0.0987  0.7469
16289TIP3    H270283   3.914   4.311  14.889 -0.1900 -1.1403  1.4962
16290TIP3   OH270284   4.567   4.935   2.110 -0.7551  0.2408  0.0391
16290TIP3    H170285   4.581   4.843   2.133  1.0240  0.3336 -0.4653
16290TIP3    H270286   4.623   4.983   2.171 -1.2315  0.9602 -0.0784
16291TIP3   OH270287   4.587   2.423   6.175 -0.7487  0.4227  0.0969
16291TIP3    H170288   4.516   2.487   6.181 -0.9315  0.3217 -0.8180
16291TIP3    H270289   4.662   2.473   6.143 -1.0953  0.0491 -1.3410
16292TIP3   OH270290   3.010   3.800  14.499 -0.2028 -0.0995  0.3210
16292TIP3    H170291   3.038   3.738  14.566 -0.9287 -1.0533 -0.2330
16292TIP3    H270292   2.929   3.762  14.463 -1.4470  1.8266  0.8995
16293TIP3   OH270293   2.805   5.739   0.313  0.4412 -0.1683 -0.0506
16293TIP3    H170294   2.762   5.721   0.230 -1.6362  0.1507  0.8954
16293TIP3    H270295   2.735   5.734   0.378  2.0485 -0.6905  1.7316
16294TIP3   OH270296   2.324   3.135   1.658 -0.1779  0.3647 -0.3435
16294TIP3    H170297   2.301   3.180   1.577  0.3006  1.5320  0.1482
16294TIP3    H270298   2.244   3.089   1.685 -0.5103  0.4735 -1.1452
16295TIP3   OH270299   3.459   2.901   2.739  0.5161  0.0990 -0.6203
16295TIP3    H170300   3.419   2.986   2.759  1.2051  0.2036  0.4690
16295TIP3    H270301   3.420   2.874   2.656 -0.7581  0.8238 -0.2884
16296TIP3   OH270302   3.090   2.806   1.710 -0.1785 -0.1061  0.0526
16296TIP3    H170303   3.048   2.823   1.626 -0.5691 -0.3817  0.1864
16296TIP3    H270304   3.057   2.874   1.768  0.9848  0.7838 -0.3025
16297TIP3   OH270305   1.599   4.338   0.966  0.2890 -0.4852 -0.1357
16297TIP3    H170306   1.504   4.328   0.960  0.2729 -1.2249  0.9906
16297TIP3    H270307   1.616   4.348   1.060  1.2880  0.1215 -0.3639
16298TIP3   OH270308   6.506   1.516  11.883  0.0179 -0.2029  0.1684
16298TIP3    H170309   6.560   1.587  11.919  0.8773 -0.9440  0.4008
16298TIP3    H270310   6.519   1.444  11.944 -0.1820 -0.8145 -0.5005
16299TIP3   OH270311   6.066   6.219  13.776 -0.1176  0.0715 -0.2144
16299TIP3    H170312   6.012   6.279  13.724  0.3325  1.1100  0.4906
16299TIP3    H270313   6.151   6.220  13.733 -0.0724  0.0378 -0.1265
16300TIP3   OH270314   0.787   1.227  13.884  0.0505 -0.2081  0.2810
16300TIP3    H170315   0.821   1.202  13.970  0.2570 -0.0535  0.2476
16300TIP3    H270316   0.863   1.265  13.839 -0.6560  2.1854  0.9955
16301TIP3   OH270317   3.997   4.165  16.250  0.9527  0.1070 -0.3860
16301TIP3    H170318   3.994   4.203  16.162 -0.1839 -1.4051 -1.0427
16301TIP3    H270319   3.915   4.116  16.257  1.0534  0.1583  1.5112
16302TIP3   OH270320   2.088   0.787  15.447  0.1446  0.1689 -0.2253
16302TIP3    H170321   2.036   0.730  15.503  0.5512 -0.2469 -0.2590
16302TIP3    H270322   2.082   0.873  15.488 -2.1093  0.5749 -1.2586
16303TIP3   OH270323   6.520   1.824   1.028  0.2558  0.1215  0.5747
16303TIP3    H170324   6.483   1.855   1.111  1.1149 -0.3428  1.1450
16303TIP3    H270325   6.444   1.816   0.970 -0.8521 -2.3340  2.1898
16304TIP3   OH270326   1.785   0.346  11.149 -0.6019 -0.2482  0.1588
16304TIP3    H170327   1.853   0.413  11.150  0.0049 -0.8254 -0.7693
16304TIP3    H270328   1.824   0.273  11.101 -2.2176 -0.2154 -1.3222
16305TIP3   OH270329   0.119   1.999   4.273  0.8943  0.1041 -0.1534
16305TIP3    H170330   0.140   1.909   4.248  1.2734 -0.1232  0.9217
16305TIP3    H270331   0.096   2.042   4.191  3.3799 -0.2359 -1.1244
16306TIP3   OH270332   3.308   0.905   5.881  0.1965 -0.2595  0.1498
16306TIP3    H170333   3.329   0.840   5.948  1.2971 -0.6155 -0.5167
16306TIP3    H270334   3.265   0.975   5.929 -0.8867 -1.3977  0.9065
16307TIP3   OH270335   6.596   5.083   4.461  0.7148  0.6898  0.3109
16307TIP3    H170336   6.682   5.126   4.457  1.7949 -1.4031 -3.1353
16307TIP3    H270337   6.600   5.032   4.542  1.8062  2.2722  1.3265
16308TIP3   OH270338   0.928   5.712  13.201  0.2998 -0.9912  0.2475
16308TIP3    H170339   0.993   5.704  13.270 -0.2368 -1.4496  0.7106
16308TIP3    H270340   0.948   5.795  13.158  0.3462 -0.4656  1.2680
16309TIP3   OH270341   3.359   1.313  12.221 -0.6747  0.3409  0.1693
16309TIP3    H170342   3.287   1.301  12.284 -0.3383  0.1753  0.5271
16309TIP3    H270343   3.322   1.370  12.154 -1.6452 -0.9876 -0.4700
16310TIP3   OH270344   6.005   4.336  12.229 -0.3184  1.1555  0.1035
16310TIP3    H170345   6.046   4.282  12.297  1.9103  0.1037 -1.9324
16310TIP3    H270346   5.913   4.341  12.255 -0.2111 -1.8995  1.5226
16311TIP3   OH270347   0.836   4.493   3.961  0.2456 -0.2462 -0.0149
16311TIP3    H170348   0.852   4.465   3.871 -1.7913  2.3559 -1.3536
16311TIP3    H270349   0.889   4.572   3.971 -1.4815  0.9846  0.0333
16312TIP3   OH270350   4.532   6.498   4.104 -0.5144  0.0913 -0.5261
16312TIP3    H170351   4.563   6.433   4.042 -0.8606 -0.4931 -0.0982
16312TIP3    H270352   4.552   6.462   4.190 -2.7906 -0.5817 -0.2020
16313TIP3   OH270353   2.998   0.633  11.126 -0.4618 -0.2337  0.1982
16313TIP3    H170354   3.070   0.655  11.186 -0.0211 -0.4913 -0.2256
16313TIP3    H270355   3.013   0.542  11.103 -0.2759  0.0319 -0.7739
16314TIP3   OH270356   2.208   2.968  14.158 -0.5362  0.1311 -0.1142
16314TIP3    H170357   2.130   2.914  14.171 -0.6588 -0.0571 -1.4822
16314TIP3    H270358   2.173   3.049  14.119 -0.2167  0.6935  0.7544
16315TIP3   OH270359   0.299   3.873  15.911  0.3604 -0.1228  0.3338
16315TIP3    H170360   0.204   3.862  15.900  0.5204 -0.2105 -1.1803
16315TIP3    H270361   0.332   3.784  15.924  0.3075 -0.1565  0.2369
16316TIP3   OH270362   5.432   2.392  11.275  0.1441  0.3625  0.4203
16316TIP3    H170363   5.403   2.357  11.360 -1.3413  1.3296  0.3444
16316TIP3    H270364   5.504   2.451  11.297 -1.2979  1.8856  1.2303
16317TIP3   OH270365   6.425   1.443  13.049 -0.0904 -0.4157  0.1043
16317TIP3    H170366   6.377   1.425  12.969  0.5632 -0.1716 -0.3589
16317TIP3    H270367   6.396   1.377  13.112 -0.9373 -0.3287 -0.1931
16318TIP3   OH270368   1.517   2.924  12.618  0.0268  0.6440 -0.4133
16318TIP3    H170369   1.508   2.831  12.598  0.6486  0.6164 -0.5887
16318TIP3    H270370   1.541   2.927  12.711 -0.0589  0.6315 -0.3909
16319TIP3   OH270371   6.785   4.309   5.743 -0.7807  0.7471 -0.4801
16319TIP3    H170372   6.729   4.343   5.813  0.0984 -0.7605  1.0354
16319TIP3    H270373   6.872   4.304   5.783 -0.6520 -2.1833 -0.8869
16320TIP3   OH270374   5.683   4.315   1.888 -0.0390 -0.0549  0.0564
16320TIP3    H170375   5.594   4.280   1.884 -0.2542  0.2301  1.6390
16320TIP3    H270376   5.700   4.348   1.800 -1.2170 -0.7855 -0.4637
16321TIP3   OH270377   1.623   0.589  14.169  0.2837 -0.2540 -0.2100
16321TIP3    H170378   1.702   0.608  14.119 -0.4332 -0.4119 -1.4460
16321TIP3    H270379   1.640   0.504  14.210  0.3035 -0.8618 -1.4507
16322TIP3   OH270380   2.977   2.746   1.152  0.8905 -0.4052  0.2485
16322TIP3    H170381   3.016   2.829   1.125  1.8107 -0.1668  2.1403
16322TIP3    H270382   2.989   2.688   1.077  2.5534  0.4320 -0.1766
16323TIP3   OH270383   1.627   4.969  15.187 -0.3370 -0.6898 -0.0905
16323TIP3    H170384   1.544   5.001  15.152 -1.6075 -1.6419  1.8743
16323TIP3    H270385   1.631   4.878  15.159  0.4074 -0.4583 -0.7631
16324TIP3   OH270386   1.547   1.874  14.437 -0.3307  1.0725 -0.1976
16324TIP3    H170387   1.583   1.787  14.457 -0.4711  1.2063  0.6784
16324TIP3    H270388   1.544   1.877  14.341  0.5853  0.4881 -0.2559
16325TIP3   OH270389   5.377   6.241  15.922 -0.1661 -0.3863  0.1078
16325TIP3    H170390   5.357   6.335  15.921 -1.0184 -0.5595 -0.7632
16325TIP3    H270391   5.460   6.235  15.969 -0.6793  0.6892  1.2206
16326TIP3   OH270392   2.285   3.901  14.368 -0.0277  0.8070  0.2497
16326TIP3    H170393   2.196   3.872  14.390  0.0959  0.4490  0.2820
16326TIP3    H270394   2.315   3.947  14.445 -0.6726  2.0808 -0.2316
16327TIP3   OH270395   6.683   5.686   0.568  0.2300 -0.5835  0.1630
16327TIP3    H170396   6.670   5.777   0.594  1.9636 -0.4935  0.8575
16327TIP3    H270397   6.759   5.689   0.510 -0.2928 -1.4762 -0.5856
16328TIP3   OH270398   4.042   3.820   4.056 -0.7472  0.3463  0.0644
16328TIP3    H170399   4.129   3.821   4.096 -0.1282  0.3767 -1.2513
16328TIP3    H270400   4.056   3.850   3.966 -1.9458 -0.6730 -0.4966
16329TIP3   OH270401   4.957   5.313   4.868 -0.1949 -0.0875 -0.5005
16329TIP3    H170402   5.011   5.386   4.838  0.4963 -0.2871  0.2257
16329TIP3    H270403   4.892   5.302   4.799 -1.2389  2.1598  0.0552
16330TIP3   OH270404   5.522   5.425   0.151  0.1535 -0.5876 -0.3055
16330TIP3    H170405   5.565   5.430   0.236  0.7115  1.4030 -0.6526
16330TIP3    H270406   5.436   5.387   0.170  0.9364 -1.8853  0.8433
16331TIP3   OH270407   1.453   5.840  14.781  0.1780 -1.0258 -0.2898
16331TIP3    H170408   1.488   5.779  14.846 -2.1616 -2.6340 -0.3967
16331TIP3    H270409   1.443   5.787  14.702 -0.5170 -0.1003 -0.8373
16332TIP3   OH270410   3.703   2.035  11.697  0.1734  0.0378  0.0117
16332TIP3    H170411   3.755   2.049  11.776  1.1584 -3.0482  0.0344
16332TIP3    H270412   3.768   2.032  11.626 -0.6052  1.7420 -0.8489
16333TIP3   OH270413   3.560   3.270  10.956 -0.1803  0.0907  0.5619
16333TIP3    H170414   3.583   3.223  10.876  1.8605  0.5699  0.8139
16333TIP3    H270415   3.474   3.309  10.938  0.2496  0.2197 -1.4015
16334TIP3   OH270416   6.762   5.040  15.213  0.2328  0.1303  0.3764
16334TIP3    H170417   6.774   5.015  15.304  0.2749 -0.6071  0.1718
16334TIP3    H270418   6.676   5.084  15.211  0.8756  1.4913  1.0279
16335TIP3   OH270419   3.287   4.370  15.531  0.4397  0.7869 -0.3447
16335TIP3    H170420   3.237   4.288  15.531  1.8121 -0.1010  0.5268
16335TIP3    H270421   3.223   4.438  15.512 -0.9652 -0.3719  0.0917
16336TIP3   OH270422   0.574   5.639   0.571  0.4077 -0.1244  0.0197
16336TIP3    H170423   0.600   5.638   0.479 -0.3123  0.6564 -0.2092
16336TIP3    H270424   0.578   5.731   0.596 -0.3718 -0.2038  0.4814
16337TIP3   OH270425   1.827   2.049   5.035 -0.2841  0.1682  0.5876
16337TIP3    H170426   1.858   1.988   5.102  0.6819  1.0483  0.9616
16337TIP3    H270427   1.745   2.010   5.004  0.3597 -1.3687  0.7329
16338TIP3   OH270428   5.325   6.680   0.497 -0.5961  0.2614 -0.3748
16338TIP3    H170429   5.321   6.738   0.573 -3.8824  0.7937 -0.7984
16338TIP3    H270430   5.273   6.604   0.522 -0.5999 -0.1728 -1.6296
16339TIP3   OH270431   1.469   2.261  11.224  0.2526 -0.5240 -0.4661
16339TIP3    H170432   1.458   2.286  11.132  0.2231 -0.9484 -0.5791
16339TIP3    H270433   1.417   2.181  11.234  0.5722 -0.7005 -0.1824
16340TIP3   OH270434   2.297   3.624  12.419 -0.8551 -0.2409 -0.3645
16340TIP3    H170435   2.380   3.668  12.439 -0.7330 -1.6918  3.1199
16340TIP3    H270436   2.320   3.556  12.357  1.2649 -2.2415  2.3447
16341TIP3   OH270437   0.667   4.678  14.366  0.4928  1.0747 -0.5286
16341TIP3    H170438   0.618   4.626  14.429  0.7331  0.6822 -0.6620
16341TIP3    H270439   0.604   4.742  14.333  0.1051  0.6555 -0.6071
16342TIP3   OH270440   0.144   0.852   1.788 -0.2440 -0.0587  0.7000
16342TIP3    H170441   0.052   0.864   1.811 -1.2833 -2.4453 -1.6052
16342TIP3    H270442   0.190   0.854   1.871 -2.5279  0.1337  2.0533
16343TIP3   OH270443   6.089   2.174  12.443  0.2969 -0.1583  0.0963
16343TIP3    H170444   6.069   2.188  12.535 -0.2065 -0.1966 -0.0046
16343TIP3    H270445   6.184   2.189  12.436  0.5540 -1.3295  0.8349
16344TIP3   OH270446   5.588   6.147  15.244 -0.1237 -0.2514 -0.0582
16344TIP3    H170447   5.576   6.115  15.333 -2.2442 -1.4646 -0.7067
16344TIP3    H270448   5.682   6.160  15.235  0.3086 -1.7724  1.7951
16345TIP3   OH270449   1.880   3.018  11.519 -0.0644 -0.3507 -0.5832
16345TIP3    H170450   1.844   2.984  11.437  2.5145 -0.9396 -1.5514
16345TIP3    H270451   1.962   3.059  11.495  1.8663 -2.3931  1.8838
16346TIP3   OH270452   2.435   3.358  15.585 -0.9187  0.1644 -0.2049
16346TIP3    H170453   2.372   3.431  15.586 -1.1081  0.0019 -0.2544
16346TIP3    H270454   2.508   3.390  15.533 -2.2612 -0.7402 -2.7916
16347TIP3   OH270455   6.775   2.902  10.174 -0.0925 -0.5021 -0.0987
16347TIP3    H170456   6.850   2.933  10.226  0.6036 -2.2952  0.0366
16347TIP3    H270457   6.806   2.906  10.084 -0.5448  0.5595 -0.2291
16348TIP3   OH270458   4.659   0.193   2.460  0.6348 -0.4724 -0.2532
16348TIP3    H170459   4.747   0.159   2.477  1.5351  2.0926  0.7202
16348TIP3    H270460   4.654   0.274   2.511 -1.7653  0.2369 -1.4501
16349TIP3   OH270461   1.739   6.067  15.356  0.3447  0.5854  0.1953
16349TIP3    H170462   1.749   5.973  15.367  0.8772  0.4416 -1.2588
16349TIP3    H270463   1.730   6.101  15.445 -0.0736 -0.8503  0.7261
16350TIP3   OH270464   3.041   3.481   3.100  0.2871 -0.1846 -0.3196
16350TIP3    H170465   3.127   3.460   3.062  0.0581 -0.6181 -0.6122
16350TIP3    H270466   3.061   3.537   3.175  0.9205 -1.3309  0.4030
16351TIP3   OH270467   3.894   1.558   5.433  0.0716  0.2903 -0.3760
16351TIP3    H170468   3.843   1.520   5.361  0.7799  0.4729 -0.9872
16351TIP3    H270469   3.872   1.505   5.509 -0.0350 -0.4468 -0.9111
16352TIP3   OH270470   3.678   0.054  14.195 -0.2345  0.2091  0.2069
16352TIP3    H170471   3.719   0.140  14.202  1.1678 -0.3723 -0.5993
16352TIP3    H270472   3.695   0.026  14.105 -1.6437 -0.4552  0.1097
16353TIP3   OH270473   5.261   3.933   5.183 -0.0659  0.1868 -0.2584
16353TIP3    H170474   5.205   3.882   5.124  1.5879 -1.4437 -0.4887
16353TIP3    H270475   5.301   4.000   5.126 -1.1771  0.8992 -0.2333
16354TIP3   OH270476   3.543   2.884  17.039 -0.9266 -1.0506 -0.1365
16354TIP3    H170477   3.622   2.937  17.046 -0.9222 -0.9359 -0.9949
16354TIP3    H270478   3.569   2.808  16.987 -1.5918 -0.5609 -1.2270
16355TIP3   OH270479   1.069   1.665   2.485 -0.4888 -1.0275 -0.3230
16355TIP3    H170480   1.059   1.750   2.442 -0.6173 -1.5200 -1.3149
16355TIP3    H270481   1.009   1.608   2.437 -0.2702 -1.7173  0.2161
16356TIP3   OH270482   2.540   0.318  11.946  0.2432  0.3048  0.0913
16356TIP3    H170483   2.630   0.287  11.940  0.1971  0.3828 -1.4092
16356TIP3    H270484   2.506   0.310  11.857 -1.0360  0.8824  0.5025
16357TIP3   OH270485   3.716   5.069  16.880 -0.6383 -0.8155  0.1188
16357TIP3    H170486   3.792   5.047  16.934  0.8350  1.4203 -0.9253
16357TIP3    H270487   3.718   5.005  16.809 -0.6315 -1.6715  0.8627
16358TIP3   OH270488   6.790   3.308  14.896  0.2281 -0.2427  0.3017
16358TIP3    H170489   6.785   3.263  14.811  0.2713 -0.7475  0.5627
16358TIP3    H270490   6.700   3.330  14.917  0.3992  1.8860 -0.9200
16359TIP3   OH270491   4.357   6.077   0.091  0.2812  0.0771 -0.2019
16359TIP3    H170492   4.298   6.152   0.084  0.9478  0.5316 -1.0807
16359TIP3    H270493   4.340   6.024   0.013 -0.1123 -0.6474  0.3598
16360TIP3   OH270494   0.306   2.584  15.869 -0.4699  0.1540 -0.0026
16360TIP3    H170495   0.332   2.525  15.939  0.9641  1.5950  0.7284
16360TIP3    H270496   0.356   2.555  15.793 -2.4984 -1.8188 -0.7177
16361TIP3   OH270497   5.734   6.688   0.994 -0.0063 -0.0419  0.6765
16361TIP3    H170498   5.646   6.685   1.033  0.4029 -0.7052  1.5940
16361TIP3    H270499   5.722   6.656   0.905 -0.5304 -1.1687  1.1374
16362TIP3   OH270500   1.017   4.782   0.150  0.0354  0.3328  0.1938
16362TIP3    H170501   1.029   4.877   0.156 -0.5452  0.3788  0.6521
16362TIP3    H270502   0.951   4.761   0.216 -0.2236 -0.3188 -0.2525
16363TIP3   OH270503   4.545   4.105  15.084  0.6951  0.0945 -0.7296
16363TIP3    H170504   4.602   4.033  15.113 -1.1142 -0.2893  2.2731
16363TIP3    H270505   4.551   4.170  15.153 -0.3051  1.3308 -1.7616
16364TIP3   OH270506   1.614   2.156  11.467  0.5203  0.3398  0.4540
16364TIP3    H170507   1.609   2.069  11.428 -1.5355 -0.2755  1.9607
16364TIP3    H270508   1.597   2.216  11.394 -1.3574 -0.7005 -0.0203
16365TIP3   OH270509   0.931   2.911  13.558  0.8275  0.2592 -0.1615
16365TIP3    H170510   0.918   2.964  13.637 -0.1150  1.7158 -1.2338
16365TIP3    H270511   0.893   2.826  13.580  1.5712  0.2888  1.3152
16366TIP3   OH270512   3.968   1.310   5.530 -0.0857 -0.4815 -0.7156
16366TIP3    H170513   3.981   1.371   5.458 -1.7945  3.5224  1.9748
16366TIP3    H270514   4.040   1.329   5.591 -1.4147 -0.0141  0.7860
16367TIP3   OH270515   4.619   3.575  15.299  0.2130  0.3031 -0.4431
16367TIP3    H170516   4.606   3.618  15.214  2.0372  1.0033 -0.3985
16367TIP3    H270517   4.684   3.628  15.343 -2.2763  1.2670  2.3887
16368TIP3   OH270518   3.004   6.200   0.257 -0.5715  0.5132  0.4729
16368TIP3    H170519   2.961   6.286   0.265 -1.5076  0.0854  0.2214
16368TIP3    H270520   3.084   6.208   0.309 -0.6544  1.5309  0.4645
16369TIP3   OH270521   3.838   2.255  15.417 -0.0545  0.5011  0.4788
16369TIP3    H170522   3.933   2.269  15.426  0.1572 -1.0958  1.1312
16369TIP3    H270523   3.803   2.279  15.503  0.0076 -0.6394  0.8309
16370TIP3   OH270524   0.381   1.971   4.393 -0.0603 -0.3962  0.3424
16370TIP3    H170525   0.293   1.932   4.401  0.3055 -1.0597  1.3603
16370TIP3    H270526   0.397   2.010   4.479 -0.2900  1.8048 -0.5723
16371TIP3   OH270527   0.172   0.851   2.327 -0.0875 -0.3503 -0.2327
16371TIP3    H170528   0.160   0.778   2.267  0.1538  0.9585 -1.9519
16371TIP3    H270529   0.226   0.816   2.398 -0.0691 -1.8519 -0.9627
16372TIP3   OH270530   2.403   1.875  10.885 -0.2071 -0.0392  0.1587
16372TIP3    H170531   2.347   1.944  10.921 -0.4681  1.1916 -2.4029
16372TIP3    H270532   2.394   1.883  10.790  4.2886  0.2694 -0.4479
16373TIP3   OH270533   5.982   3.396   1.944 -0.2669 -0.2366  0.4387
16373TIP3    H170534   6.033   3.452   2.003  0.7974 -0.6550 -0.0766
16373TIP3    H270535   6.045   3.334   1.908 -0.7688  0.3362 -1.5622
16374TIP3   OH270536   2.029   4.661   5.398 -0.1583 -0.2972 -0.2116
16374TIP3    H170537   1.966   4.728   5.368 -1.8181 -2.0100 -0.7460
16374TIP3    H270538   1.974   4.588   5.426  1.4979 -0.5001  2.9538
16375TIP3   OH270539   5.545   6.055  13.059  0.1563  0.3436  0.3999
16375TIP3    H170540   5.483   5.996  13.102 -1.9020  2.0362 -0.1065
16375TIP3    H270541   5.583   6.106  13.131  2.5410 -1.9773  0.9370
16376TIP3   OH270542   6.409   1.079  12.402 -0.4395  0.1695 -0.4239
16376TIP3    H170543   6.325   1.123  12.388 -0.2038  0.6981 -0.2034
16376TIP3    H270544   6.421   1.082  12.497 -1.4736 -2.3479 -0.1429
16377TIP3   OH270545   0.213   1.033   1.602  0.1326  0.1742  0.2248
16377TIP3    H170546   0.174   0.970   1.662  1.5279 -0.6253  0.3236
16377TIP3    H270547   0.197   0.997   1.514  0.8786 -0.3002  0.2787
16378TIP3   OH270548   5.040   4.319   1.343 -0.4747 -0.0792 -0.0277
16378TIP3    H170549   5.106   4.256   1.372 -0.0207 -0.4761 -1.7893
16378TIP3    H270550   4.958   4.270   1.345 -0.3268 -0.3341 -0.1495
16379TIP3   OH270551   6.009   0.342   0.037 -0.3068  0.1310 -0.4291
16379TIP3    H170552   5.995   0.365  -0.055  4.2375  0.3701 -1.3042
16379TIP3    H270553   6.028   0.425   0.080 -0.7330 -0.1723  0.3538
16380TIP3   OH270554   6.197   0.705  13.396  0.0205 -0.8074  0.2365
16380TIP3    H170555   6.114   0.732  13.357  0.0553 -0.2875  0.5190
16380TIP3    H270556   6.186   0.721  13.490  1.3431  1.7388  0.0235
16381TIP3   OH270557   3.855   6.414   4.047 -0.4540  0.7257 -0.6444
16381TIP3    H170558   3.864   6.343   3.983  3.3650  1.3067 -0.9891
16381TIP3    H270559   3.872   6.372   4.132  2.5939  1.1892 -0.9194
16382TIP3   OH270560   5.364   4.916   5.629  0.0846  0.1491  0.3903
16382TIP3    H170561   5.432   4.976   5.658  0.6347 -0.3227  0.1172
16382TIP3    H270562   5.411   4.853   5.574 -0.4165 -0.7077  0.9197
16383TIP3   OH270563   2.850   4.042   2.677  0.0389 -0.1793  0.2647
16383TIP3    H170564   2.855   3.966   2.619 -0.6722  0.4766 -0.6835
16383TIP3    H270565   2.758   4.069   2.674 -0.6087 -1.4986  3.5160
16384TIP3   OH270566   6.165   5.903   1.735 -0.0100  0.5312 -0.0257
16384TIP3    H170567   6.206   5.833   1.786  0.6034  0.7621 -0.1955
16384TIP3    H270568   6.079   5.867   1.710 -0.3833  0.4702  1.2703
16385TIP3   OH270569   1.386   6.162   1.908 -0.3923 -0.2771  0.8364
16385TIP3    H170570   1.334   6.093   1.948 -0.9130 -0.3158  0.0969
16385TIP3    H270571   1.343   6.244   1.934 -0.4158 -0.2757  0.7928
16386TIP3   OH270572   2.083   6.780   0.483  0.1943 -0.0191 -0.3233
16386TIP3    H170573   2.077   6.746   0.393 -1.9930  2.1084 -1.0940
16386TIP3    H270574   2.005   6.747   0.527 -0.5400  1.6432 -0.2863
16387TIP3   OH270575   0.714   6.415   5.849  0.4296  0.1514 -0.0338
16387TIP3    H170576   0.641   6.406   5.911  1.0624  0.4328  0.7722
16387TIP3    H270577   0.725   6.328   5.812  1.2045 -0.5050  1.6180
16388TIP3   OH270578   1.624   1.537   4.360  0.5057  0.5012  0.2282
16388TIP3    H170579   1.583   1.609   4.313  1.3911 -0.8396 -2.8197
16388TIP3    H270580   1.554   1.474   4.374  0.2757  0.8320  0.5972
16389TIP3   OH270581   0.061   1.592   0.376 -0.5378 -0.6551 -0.4957
16389TIP3    H170582   0.038   1.542   0.455  1.4758  0.4563  0.8872
16389TIP3    H270583   0.117   1.533   0.326  0.2721 -0.4990  0.1964
16390TIP3   OH270584   0.361   5.100   5.810  0.4656 -0.4712 -0.1024
16390TIP3    H170585   0.416   5.141   5.743  0.0419 -0.1886 -0.2848
16390TIP3    H270586   0.304   5.171   5.841  0.5420 -0.6411  0.4365
16391TIP3   OH270587   5.864   5.814  15.232 -0.2440  0.1772  0.0062
16391TIP3    H170588   5.960   5.812  15.240 -0.2704 -0.6816  0.2999
16391TIP3    H270589   5.834   5.760  15.306 -1.0122  1.4771  0.6711
16392TIP3   OH270590   3.041   3.216  15.914 -0.0993 -0.4112 -0.7988
16392TIP3    H170591   2.990   3.182  15.841  0.3591  0.4365 -1.5342
16392TIP3    H270592   3.124   3.170  15.910 -0.1857 -0.5815 -0.6293
16393TIP3   OH270593   3.166   2.246  14.728  0.5298 -0.2437 -0.2558
16393TIP3    H170594   3.140   2.233  14.637  0.2675 -1.1922 -0.0575
16393TIP3    H270595   3.096   2.206  14.779  1.6747 -1.6100  0.3220
16394TIP3   OH270596   5.527   4.534   2.498  0.6111 -0.2858  0.6995
16394TIP3    H170597   5.521   4.455   2.552 -1.7666  0.1286  1.1302
16394TIP3    H270598   5.513   4.503   2.409  1.7959 -0.5919  0.5947
16395TIP3   OH270599   5.149   5.770  10.979 -0.0854 -0.4326 -0.2078
16395TIP3    H170600   5.053   5.773  10.974 -0.0985 -2.2203 -2.4633
16395TIP3    H270601   5.167   5.705  11.047 -0.4143  0.6051  0.9097
16396TIP3   OH270602   4.307   5.617  15.364  0.3817 -0.3519 -0.7465
16396TIP3    H170603   4.330   5.539  15.314 -1.4540 -0.5814 -1.2983
16396TIP3    H270604   4.237   5.587  15.423  2.3513 -0.0547  1.9094
16397TIP3   OH270605   4.406   2.829  16.144 -0.2333 -0.1967 -0.8277
16397TIP3    H170606   4.450   2.910  16.117 -1.8148  0.5083 -1.4357
16397TIP3    H270607   4.471   2.760  16.129  0.8834  0.8643 -1.0313
16398TIP3   OH270608   3.178   5.738   5.043  0.4993 -0.4186  0.0147
16398TIP3    H170609   3.108   5.696   4.992 -1.8021  1.8450  1.0917
16398TIP3    H270610   3.208   5.669   5.103 -0.8618 -1.4519 -0.4342
16399TIP3   OH270611   5.884   0.689  12.564 -0.1723  0.3540 -0.1118
16399TIP3    H170612   5.810   0.658  12.512 -0.7537  0.2999  0.7284
16399TIP3    H270613   5.864   0.662  12.653  1.3547 -0.5382 -0.0117
16400TIP3   OH270614   6.243   5.017  13.865 -0.5296 -0.1130  0.1174
16400TIP3    H170615   6.337   5.003  13.879 -0.0041  2.3457 -0.4248
16400TIP3    H270616   6.204   5.010  13.951  0.1325 -1.2904  0.3341
16401TIP3   OH270617   0.452   4.490   1.545 -0.0794 -0.0561  0.1410
16401TIP3    H170618   0.473   4.525   1.632  0.4094  1.2146 -0.4630
16401TIP3    H270619   0.537   4.483   1.501 -0.5984  4.4040 -2.0665
16402TIP3   OH270620   3.260   0.219   4.696 -0.4940  0.5826  0.4106
16402TIP3    H170621   3.288   0.128   4.690 -1.9847  0.0630  0.9267
16402TIP3    H270622   3.315   0.266   4.633 -0.6555 -0.9063 -0.8909
16403TIP3   OH270623   4.110   5.618   1.694  0.1155 -0.3495  0.1540
16403TIP3    H170624   4.170   5.554   1.732  0.4492 -1.6697 -2.4232
16403TIP3    H270625   4.024   5.576   1.699  0.3940 -1.2435 -1.9138
16404TIP3   OH270626   1.474   5.509   3.295 -0.3814 -0.3980  0.1263
16404TIP3    H170627   1.498   5.596   3.328  1.1886 -0.6506 -0.2945
16404TIP3    H270628   1.540   5.450   3.330 -2.0242 -1.6551  1.2865
16405TIP3   OH270629   5.785   6.296   2.337  0.6691 -0.3922 -0.2494
16405TIP3    H170630   5.724   6.255   2.399  2.6887 -1.9065  0.8451
16405TIP3    H270631   5.784   6.238   2.261 -0.2438  0.3480 -0.8341
16406TIP3   OH270632   2.317   3.947   4.976 -0.7502  0.6551 -0.0276
16406TIP3    H170633   2.349   3.869   4.931 -0.7543  1.5069 -1.5732
16406TIP3    H270634   2.271   3.913   5.053  1.6565 -0.7007  0.9119
16407TIP3   OH270635   4.793   0.316  17.025 -0.1608  0.3605  0.4686
16407TIP3    H170636   4.783   0.359  16.940 -0.5927 -0.9765 -0.1802
16407TIP3    H270637   4.735   0.366  17.083 -1.1421  0.2838 -0.4105
16408TIP3   OH270638   0.590   2.996  13.559  0.1306  0.7505 -0.2822
16408TIP3    H170639   0.655   3.063  13.541  0.8566 -0.0734 -0.7866
16408TIP3    H270640   0.525   3.007  13.490 -0.2451  1.5202  0.1739
16409TIP3   OH270641   3.149   5.964  12.519  0.3140  0.0812 -0.1266
16409TIP3    H170642   3.133   6.057  12.502 -1.3388 -0.2195 -0.4576
16409TIP3    H270643   3.133   5.953  12.612 -2.8376 -0.3920 -0.6062
16410TIP3   OH270644   4.589   2.088   4.772  0.1776  0.4377 -0.3186
16410TIP3    H170645   4.587   2.067   4.865  2.5207  1.1331 -0.0500
16410TIP3    H270646   4.538   2.169   4.765 -1.0459 -0.2756  0.1334
16411TIP3   OH270647   3.638   3.980   1.230  0.0442 -0.0219 -0.1380
16411TIP3    H170648   3.691   3.993   1.308  0.0893  0.3022 -0.2168
16411TIP3    H270649   3.673   3.901   1.189  0.9679  0.5998 -0.5876
16412TIP3   OH270650   3.915   3.264   4.396  0.1331  0.2968 -0.0446
16412TIP3    H170651   3.941   3.335   4.455  2.5824 -0.5368 -0.0215
16412TIP3    H270652   3.824   3.284   4.375  0.3838  2.8345  0.8289
16413TIP3   OH270653   5.533   0.099  12.164 -0.4621 -0.0898  0.6241
16413TIP3    H170654   5.571   0.088  12.076 -0.0528 -0.6579  0.8591
16413TIP3    H270655   5.500   0.188  12.165 -1.1083 -0.3000 -0.3550
16414TIP3   OH270656   2.383   2.468   4.566  0.2386 -0.1514  0.0241
16414TIP3    H170657   2.415   2.531   4.502  1.6601 -1.8390 -1.0308
16414TIP3    H270658   2.352   2.394   4.513 -2.8488  0.2112  1.1258
16415TIP3   OH270659   5.184   5.223   2.231  0.6548  0.0004  0.7114
16415TIP3    H170660   5.215   5.295   2.285  3.8335 -0.6358 -0.0982
16415TIP3    H270661   5.263   5.184   2.194 -1.1402 -1.9311 -1.4212
16416TIP3   OH270662   3.841   4.838   1.879  0.0801 -0.1295  0.0911
16416TIP3    H170663   3.797   4.753   1.873  0.5850 -0.3869 -0.0909
16416TIP3    H270664   3.886   4.847   1.794 -0.1026  0.3958  0.0454
16417TIP3   OH270665   5.747   6.004   3.377 -0.4501  0.4029  0.5334
16417TIP3    H170666   5.800   5.965   3.307 -1.8638  1.8847 -1.4652
16417TIP3    H270667   5.702   5.930   3.416  0.1294 -0.4414 -0.3323
16418TIP3   OH270668   0.881   0.576  15.983  0.2220  0.4923  0.3183
16418TIP3    H170669   0.856   0.650  15.927 -0.2140  1.2646  1.4883
16418TIP3    H270670   0.911   0.509  15.922 -0.5252  1.1837 -0.8553
16419TIP3   OH270671   5.791   0.133   2.472  0.5484 -0.1887 -0.1765
16419TIP3    H170672   5.722   0.199   2.482  1.5779  0.7761  0.8433
16419TIP3    H270673   5.802   0.123   2.378 -0.5990  0.0461 -0.3466
16420TIP3   OH270674   1.021   6.219   5.475  0.0586  0.2303 -0.2293
16420TIP3    H170675   0.951   6.157   5.494  0.9120 -0.7670 -0.2560
16420TIP3    H270676   0.983   6.278   5.409 -1.4284  1.0082  1.2525
16421TIP3   OH270677   1.866   1.785  15.068 -0.0905  0.4763  0.3859
16421TIP3    H170678   1.791   1.844  15.074  0.3064  1.2587 -1.5776
16421TIP3    H270679   1.832   1.700  15.097 -1.3883  1.0858  0.7099
16422TIP3   OH270680   6.659   3.075   0.615 -0.1288 -0.4032 -0.3628
16422TIP3    H170681   6.603   3.139   0.571  1.2454  0.3672 -1.0815
16422TIP3    H270682   6.665   3.106   0.705  3.0852  2.4806 -1.3693
16423TIP3   OH270683   1.458   4.478  12.486 -0.3034 -0.5093 -0.3026
16423TIP3    H170684   1.395   4.443  12.423  1.7913 -2.4023 -1.4883
16423TIP3    H270685   1.508   4.543  12.436 -1.2005  0.9429  0.6161
16424TIP3   OH270686   2.675   6.198   2.655  0.7239 -0.1077  0.0770
16424TIP3    H170687   2.762   6.212   2.617  0.8425  0.0038  0.3857
16424TIP3    H270688   2.690   6.201   2.750  0.0962  1.7249  0.1535
16425TIP3   OH270689   6.192   3.647  16.451  0.2519  0.2563 -0.5218
16425TIP3    H170690   6.130   3.575  16.437 -0.2123  0.2736  1.2128
16425TIP3    H270691   6.147   3.724  16.416  0.1013 -0.0326 -0.9785
16426TIP3   OH270692   5.945   4.948  12.643  0.2640 -0.4572 -0.4164
16426TIP3    H170693   5.859   4.948  12.686  0.6656  1.6169  0.4905
16426TIP3    H270694   5.994   4.881  12.691 -0.6044 -1.2004 -0.5135
16427TIP3   OH270695   3.049   6.001  16.535  0.3514 -0.0349  0.6642
16427TIP3    H170696   3.044   5.956  16.619  2.2453 -1.2288  0.1930
16427TIP3    H270697   3.119   5.957  16.488 -0.4423  0.8048 -1.4417
16428TIP3   OH270698   1.660   5.226   3.073  0.4988  0.5009  0.0204
16428TIP3    H170699   1.667   5.142   3.027 -0.9937 -0.2338  1.0379
16428TIP3    H270700   1.750   5.246   3.099  0.6749 -2.0385  1.8024
16429TIP3   OH270701   4.444   1.754  13.447  0.4781  0.1516  0.2192
16429TIP3    H170702   4.413   1.762  13.537 -0.2328  0.5922 -0.0565
16429TIP3    H270703   4.512   1.686  13.451  0.3075  0.0176  1.0428
16430TIP3   OH270704   4.267   1.299   1.103 -0.3116  0.2382 -0.1983
16430TIP3    H170705   4.323   1.292   1.180  0.7962 -1.0877 -1.0712
16430TIP3    H270706   4.186   1.254   1.129  0.0877 -0.2867  0.1740
16431TIP3   OH270707   1.995   3.492   1.156  0.6723 -0.5230  0.5033
16431TIP3    H170708   1.934   3.550   1.201 -0.7362 -1.4782 -0.0579
16431TIP3    H270709   1.950   3.471   1.074  1.8896 -1.0681 -0.0392
16432TIP3   OH270710   0.995   4.220  11.674  0.4748  0.3533 -0.1791
16432TIP3    H170711   0.983   4.248  11.765 -0.3246 -0.2513 -0.0785
16432TIP3    H270712   0.990   4.300  11.622  2.3847  0.9078  0.3943
16433TIP3   OH270713   3.814   4.936   4.905  0.6691 -0.1088 -0.1212
16433TIP3    H170714   3.724   4.960   4.926  0.5106  0.0317 -0.9414
16433TIP3    H270715   3.861   5.019   4.901  0.7079 -0.1367 -0.2606
16434TIP3   OH270716   4.674   3.025   5.657  0.2472  0.0191  0.0234
16434TIP3    H170717   4.759   3.009   5.615  0.6338 -0.2293  0.8843
16434TIP3    H270718   4.627   2.942   5.647  1.4066 -1.0227  2.5171
16435TIP3   OH270719   3.164   2.484  12.761 -0.9921  0.6884 -0.0330
16435TIP3    H170720   3.072   2.461  12.748 -0.8917  0.6975 -0.8106
16435TIP3    H270721   3.200   2.411  12.812 -1.2636  0.3232 -0.3556
16436TIP3   OH270722   0.410   2.851  14.512 -0.0625  0.7517  0.4876
16436TIP3    H170723   0.426   2.757  14.504  0.3228  0.8903 -0.4630
16436TIP3    H270724   0.497   2.891  14.514 -0.2236  1.1452  0.0564
16437TIP3   OH270725   4.363   2.395  11.266  0.1850  0.1722  0.4353
16437TIP3    H170726   4.293   2.399  11.331 -0.2450  0.6182 -0.0498
16437TIP3    H270727   4.355   2.477  11.218 -0.8628 -1.0313 -1.5748
16438TIP3   OH270728   5.435   4.807   0.186 -0.3188  0.7068 -0.6091
16438TIP3    H170729   5.357   4.854   0.156 -1.3871  0.2291  1.2252
16438TIP3    H270730   5.458   4.850   0.269  0.3885 -0.1799 -0.3293
16439TIP3   OH270731   1.665   2.200  14.363 -0.3588 -0.7826 -0.4856
16439TIP3    H170732   1.577   2.199  14.326  0.0588  0.5564 -1.6174
16439TIP3    H270733   1.711   2.129  14.318 -1.2051 -2.4416  1.1475
16440TIP3   OH270734   1.523   6.356   5.801  0.3640  0.9544  0.8497
16440TIP3    H170735   1.473   6.284   5.840  0.1542  0.1096 -0.8579
16440TIP3    H270736   1.613   6.342   5.833  0.3277 -0.0911  0.5515
16441TIP3   OH270737   1.079   5.373   2.433  0.3859  0.6937 -0.6094
16441TIP3    H170738   1.004   5.425   2.461  0.6726  2.2570 -2.4640
16441TIP3    H270739   1.062   5.354   2.340  1.2452 -0.8599 -0.4867
16442TIP3   OH270740   6.042   6.442  11.861 -0.0103  0.4294 -0.0393
16442TIP3    H170741   6.004   6.503  11.798 -1.1419  1.5123  1.6286
16442TIP3    H270742   6.114   6.401  11.813 -0.8471  1.1642 -2.0396
16443TIP3   OH270743   1.285   6.499   0.244 -0.2734  0.9792  0.9850
16443TIP3    H170744   1.247   6.521   0.329 -1.0856  3.9059 -0.0031
16443TIP3    H270745   1.333   6.578   0.218  0.8660 -0.2274 -0.8092
16444TIP3   OH270746   6.308   5.748   4.361  0.1786 -0.1863  0.0487
16444TIP3    H170747   6.367   5.722   4.432  0.7228 -2.5162 -1.1567
16444TIP3    H270748   6.262   5.668   4.336 -3.4620  1.4470  0.7607
16445TIP3   OH270749   2.670   6.384  13.488 -0.1655  0.2598  0.1254
16445TIP3    H170750   2.589   6.356  13.446 -0.1220  0.1948  0.0830
16445TIP3    H270751   2.667   6.344  13.575  0.9691 -1.8599 -0.7244
16446TIP3   OH270752   0.256   1.762  13.714 -0.1874 -0.8904 -0.3212
16446TIP3    H170753   0.265   1.816  13.793 -1.2171 -1.3990  0.1684
16446TIP3    H270754   0.162   1.757  13.699 -0.0036 -0.8838 -1.5433
16447TIP3   OH270755   0.425   4.900  13.906 -0.0562 -0.4475  0.3780
16447TIP3    H170756   0.499   4.907  13.846  1.2128 -3.8563  1.3475
16447TIP3    H270757   0.430   4.979  13.960 -0.0365  1.7129 -2.5200
16448TIP3   OH270758   3.180   5.689   5.975  0.2035 -0.2712 -0.7729
16448TIP3    H170759   3.152   5.745   5.902 -0.4416  0.8415  0.2815
16448TIP3    H270760   3.211   5.751   6.041  0.5143 -1.2439  0.0037
16449TIP3   OH270761   6.598   2.103  12.038  0.0792 -0.1662  0.2235
16449TIP3    H170762   6.674   2.047  12.055 -0.5703 -1.6280 -1.4138
16449TIP3    H270763   6.636   2.183  12.002  0.9318 -0.0954  1.2152
16450TIP3   OH270764   1.441   0.073   3.823 -0.2833 -0.3240  0.2944
16450TIP3    H170765   1.531   0.093   3.847  0.1119 -0.6095 -0.9052
16450TIP3    H270766   1.431   0.108   3.735 -1.1255 -0.9350  0.1333
16451TIP3   OH270767   6.548   2.191   1.438  0.0077 -0.3127 -0.4514
16451TIP3    H170768   6.484   2.177   1.367 -0.4971  0.5348 -0.1728
16451TIP3    H270769   6.494   2.214   1.514  0.6458  0.3878 -0.2065
16452TIP3   OH270770   4.376   0.040   1.567 -0.3364 -0.1632 -0.0084
16452TIP3    H170771   4.393   0.092   1.646 -0.9642  0.5783 -0.3386
16452TIP3    H270772   4.317  -0.029   1.597 -0.4413  0.0178  0.2097
16453TIP3   OH270773   0.777   4.006  14.054  0.2894  0.2648  0.2490
16453TIP3    H170774   0.731   3.922  14.054 -0.8737  0.8917  0.2370
16453TIP3    H270775   0.869   3.982  14.045 -0.2414 -0.8935 -3.3944
16454TIP3   OH270776   0.173   2.059  13.528 -0.0382  0.1635  0.1064
16454TIP3    H170777   0.084   2.029  13.544 -0.0507 -0.6938 -1.3934
16454TIP3    H270778   0.205   2.004  13.456  0.9794  1.8001 -0.7813
16455TIP3   OH270779   2.444   2.146   2.802  0.3796 -0.4011 -0.3800
16455TIP3    H170780   2.536   2.157   2.825  0.3830 -1.1715 -0.0073
16455TIP3    H270781   2.421   2.059   2.835  0.2922 -1.4498 -3.0152
16456TIP3   OH270782   3.155   2.311   3.345 -0.4727  0.0259 -0.0642
16456TIP3    H170783   3.199   2.322   3.261  0.4814  0.1582  0.4475
16456TIP3    H270784   3.099   2.388   3.353  1.2755  1.2982  0.5160
16457TIP3   OH270785   5.162   2.527   5.732  0.1369 -0.0861 -0.2366
16457TIP3    H170786   5.067   2.513   5.731  0.1033  0.1363 -0.8149
16457TIP3    H270787   5.173   2.614   5.771 -0.0493  0.8080 -2.0660
16458TIP3   OH270788   6.583   2.500  12.794  0.0718  0.0300 -0.2094
16458TIP3    H170789   6.554   2.530  12.880  0.8875 -2.3039  0.9545
16458TIP3    H270790   6.502   2.481  12.746 -0.3746  0.3679  0.4052
16459TIP3   OH270791   6.459   0.897   1.043  0.5533 -0.2780  0.2092
16459TIP3    H170792   6.384   0.837   1.051 -0.6726  1.1973  0.1797
16459TIP3    H270793   6.482   0.894   0.950 -0.8902  0.8585 -0.2191
16460TIP3   OH270794   1.462   0.345  11.672 -0.1248  0.2535  0.1508
16460TIP3    H170795   1.490   0.349  11.581 -0.7150  1.2911  0.0077
16460TIP3    H270796   1.507   0.268  11.707 -1.5306 -1.4509 -1.5582
16461TIP3   OH270797   2.783   5.983  16.405  0.3099  0.0047 -0.3457
16461TIP3    H170798   2.854   6.005  16.465 -0.6542  0.9571  0.5066
16461TIP3    H270799   2.822   5.924  16.342  1.4863 -0.6918  0.9697
16462TIP3   OH270800   2.063   5.882  12.581 -0.2449 -0.0646 -0.7329
16462TIP3    H170801   2.148   5.884  12.539  0.6889  0.4365  1.0837
16462TIP3    H270802   2.056   5.966  12.628 -1.4051 -0.4024 -0.2411
16463TIP3   OH270803   3.577   0.760   3.701  0.4639 -0.2149  0.1351
16463TIP3    H170804   3.555   0.845   3.740  0.9822 -1.2267  2.7990
16463TIP3    H270805   3.656   0.732   3.746 -0.7534 -2.9771  0.7828
16464TIP3   OH270806   2.333   6.098  16.490 -0.3785 -0.0281  0.0128
16464TIP3    H170807   2.293   6.104  16.577 -0.2049  2.2198  0.0085
16464TIP3    H270808   2.270   6.048  16.438 -0.6987 -1.0139  1.2917
16465TIP3   OH270809   4.944   3.446   2.859 -0.1642  0.4227  0.5185
16465TIP3    H170810   4.947   3.358   2.821  1.3350  1.1147 -1.0776
16465TIP3    H270811   5.027   3.455   2.906 -0.2544  1.0367  0.5627
16466TIP3   OH270812   0.960   3.440   4.338 -0.1228  0.3429 -0.5923
16466TIP3    H170813   0.944   3.535   4.334 -2.1225  0.1217  0.8758
16466TIP3    H270814   0.945   3.410   4.248 -1.7035  1.1379 -0.6240
16467TIP3   OH270815   4.542   4.334  14.299  0.0517  0.2399  0.3915
16467TIP3    H170816   4.618   4.331  14.240 -0.7646 -0.9407 -0.6481
16467TIP3    H270817   4.532   4.427  14.319  1.7712  0.4290  0.5692
16468TIP3   OH270818   0.138   6.495   0.231  0.0901 -0.1655 -0.2797
16468TIP3    H170819   0.062   6.507   0.287 -0.2887 -1.3861 -0.4967
16468TIP3    H270820   0.112   6.532   0.146  0.0482  0.1656 -0.1234
16469TIP3   OH270821   1.568   5.851   4.270 -0.1788  0.0454  0.0932
16469TIP3    H170822   1.574   5.756   4.283  2.2151  0.0549 -0.4290
16469TIP3    H270823   1.562   5.862   4.175  1.8006  0.4133 -0.0356
16470TIP3   OH270824   3.927   3.841  13.945 -0.2121  0.3377  0.1264
16470TIP3    H170825   3.930   3.928  13.905 -1.9971  0.3990  0.0628
16470TIP3    H270826   3.834   3.817  13.945  0.1462 -1.2019  0.9430
16471TIP3   OH270827   1.358   5.452  15.529  0.1528 -0.0241  0.4150
16471TIP3    H170828   1.336   5.382  15.590 -1.8024  0.6736  0.5633
16471TIP3    H270829   1.385   5.525  15.585  1.9021 -0.5071  0.2692
16472TIP3   OH270830   0.470   2.017   0.688  0.0544 -0.0307  0.2038
16472TIP3    H170831   0.435   2.034   0.776  1.8175 -1.1175  1.1834
16472TIP3    H270832   0.488   2.104   0.652 -0.7055  0.4371  0.9080
16473TIP3   OH270833   6.289   6.354   3.232 -0.5308 -0.0940  0.0873
16473TIP3    H170834   6.275   6.284   3.296  0.0995  0.3601  0.7440
16473TIP3    H270835   6.375   6.390   3.255 -0.6799  0.6457 -0.4779
16474TIP3   OH270836   4.469   2.513   5.687  0.5309 -0.3841  0.3329
16474TIP3    H170837   4.402   2.460   5.730  1.6503 -1.0523  1.3221
16474TIP3    H270838   4.505   2.456   5.620  0.2006 -0.0691 -0.1153
16475TIP3   OH270839   4.282   1.965   5.840 -0.8958  0.1136  0.2221
16475TIP3    H170840   4.275   1.871   5.854  1.1199 -0.1213 -0.1256
16475TIP3    H270841   4.374   1.986   5.854 -1.5019  2.2742  1.5732
16476TIP3   OH270842   6.022   5.723  15.011  0.4389  0.4428  0.0325
16476TIP3    H170843   6.047   5.778  14.936 -0.0549 -0.0077 -0.4726
16476TIP3    H270844   5.928   5.708  14.999  0.4373  0.0345  0.5286
16477TIP3   OH270845   0.474   4.133  11.932  0.0497  0.4652  0.2527
16477TIP3    H170846   0.557   4.094  11.962 -0.0574  0.2833  0.3143
16477TIP3    H270847   0.465   4.103  11.842  0.2482  0.8088  0.1205
16478TIP3   OH270848   0.299   1.609  13.148  0.1129 -0.0617  0.1358
16478TIP3    H170849   0.274   1.614  13.056 -0.7261  1.0964  0.3972
16478TIP3    H270850   0.225   1.566  13.191  0.2005  0.0161  0.3677
16479TIP3   OH270851   6.086   3.808  16.029  0.1375 -0.0824 -0.2708
16479TIP3    H170852   6.012   3.787  15.972  0.8453 -1.2409 -0.8202
16479TIP3    H270853   6.128   3.723  16.045  0.6610  0.3960  1.0012
16480TIP3   OH270854   5.212   2.142   0.677 -0.0146  0.4979 -0.0613
16480TIP3    H170855   5.129   2.185   0.696 -0.2166 -0.1901  0.6294
16480TIP3    H270856   5.278   2.204   0.707 -0.2858  0.6480  0.2305
16481TIP3   OH270857   0.250   2.423   3.227 -0.0705 -0.5908  0.2540
16481TIP3    H170858   0.340   2.400   3.202 -0.5699 -2.9576  0.3283
16481TIP3    H270859   0.251   2.420   3.323  0.0928  0.9427  0.3259
16482TIP3   OH270860   3.254   1.151   6.431  0.9447 -0.3756 -0.8148
16482TIP3    H170861   3.166   1.159   6.394  0.0036 -0.7962  1.1908
16482TIP3    H270862   3.285   1.066   6.398  0.1340 -0.7590 -0.6298
16483TIP3   OH270863   1.336   6.216   0.557 -0.2212  0.5826 -0.1795
16483TIP3    H170864   1.335   6.311   0.546  0.1139  0.8285  1.6196
16483TIP3    H270865   1.421   6.197   0.596 -0.9813 -0.2146  1.1499
16484TIP3   OH270866   1.867   0.952   3.616 -0.0707  0.0033 -0.3221
16484TIP3    H170867   1.907   1.021   3.670  0.7948 -1.7709  1.4301
16484TIP3    H270868   1.793   0.922   3.668 -0.1595 -0.7052 -0.8485
16485TIP3   OH270869   3.054   2.724  12.525 -0.1750 -0.1854  0.3466
16485TIP3    H170870   3.018   2.653  12.579  0.0814 -0.2334  0.4583
16485TIP3    H270871   3.047   2.802  12.580 -1.7550  0.1574 -0.2970
16486TIP3   OH270872   2.453   6.579   4.963 -0.1104 -0.3911  0.1014
16486TIP3    H170873   2.537   6.538   4.988  0.2354  0.7247  0.8730
16486TIP3    H270874   2.479   6.661   4.921 -0.7963 -0.8610 -1.3021
16487TIP3   OH270875   0.251   2.113  16.472  0.0315 -0.2017 -0.0866
16487TIP3    H170876   0.333   2.159  16.491  0.2104 -0.8807  0.8468
16487TIP3    H270877   0.188   2.183  16.455  1.0909  0.3372 -2.2712
16488TIP3   OH270878   6.500   0.011  13.432 -0.5542  0.1401  0.3118
16488TIP3    H170879   6.458  -0.023  13.511 -0.2785 -1.4278 -0.1835
16488TIP3    H270880   6.538  -0.066  13.390  2.9898  1.4494  0.7789
16489TIP3   OH270881   5.205   5.084   1.173  0.2162 -0.2753 -0.2494
16489TIP3    H170882   5.184   5.108   1.083  0.6974 -0.3995 -0.3976
16489TIP3    H270883   5.193   4.989   1.176  1.4609 -0.4549 -0.5379
16490TIP3   OH270884   0.514   3.905  11.278  0.1311  0.1969 -0.2855
16490TIP3    H170885   0.499   3.999  11.276  0.3819  0.2423 -0.0582
16490TIP3    H270886   0.607   3.894  11.261 -0.1196 -0.0836 -1.5578
16491TIP3   OH270887   1.586   0.528  12.112  0.0390  0.0018  0.0655
16491TIP3    H170888   1.670   0.570  12.093 -0.3958  1.0046  0.3018
16491TIP3    H270889   1.602   0.435  12.098  1.0529  0.2316 -0.3906
16492TIP3   OH270890   5.979   0.148   2.240  0.0393 -0.5118  0.1224
16492TIP3    H170891   6.052   0.172   2.297 -0.2950 -0.6047  0.5924
16492TIP3    H270892   5.994   0.056   2.220  0.2356 -0.4421 -0.0657
16493TIP3   OH270893   1.713   5.180  11.014 -0.2182 -0.2611 -0.3626
16493TIP3    H170894   1.683   5.145  10.930 -0.6177 -0.8614  0.0227
16493TIP3    H270895   1.775   5.114  11.046 -1.6594 -1.1338  0.7985
16494TIP3   OH270896   4.080   6.270   3.605  0.2373  0.6055 -0.2928
16494TIP3    H170897   4.044   6.234   3.524 -1.5324  0.6631  0.4246
16494TIP3    H270898   4.149   6.208   3.630 -1.0025 -0.8997 -0.4516
16495TIP3   OH270899   5.902   5.267  11.259 -0.0939 -0.2793  0.4070
16495TIP3    H170900   5.850   5.328  11.313  0.0900  0.6502 -0.4391
16495TIP3    H270901   5.855   5.184  11.265 -0.6880  0.0930  1.0955
16496TIP3   OH270902   5.876   6.266   1.089 -0.3647  0.0631  0.0811
16496TIP3    H170903   5.916   6.282   1.175 -0.2625 -2.6575  0.6447
16496TIP3    H270904   5.934   6.308   1.027  2.6846 -2.3898  1.0089
16497TIP3   OH270905   0.378   6.000   2.030 -0.0142 -0.2513 -0.2985
16497TIP3    H170906   0.360   5.930   2.093  2.6396 -1.8217 -1.1654
16497TIP3    H270907   0.424   6.066   2.080  0.0732 -0.4528 -0.1130
16498TIP3   OH270908   4.465   6.027   6.396  0.2430  1.0430  0.5816
16498TIP3    H170909   4.460   6.119   6.371 -0.0599  0.3875 -1.9845
16498TIP3    H270910   4.375   5.995   6.387 -0.3415  1.0984  4.4290
16499TIP3   OH270911   5.793   2.742   5.897 -0.7570  1.2204 -0.7488
16499TIP3    H170912   5.868   2.783   5.853  0.0516  0.5962  0.0085
16499TIP3    H270913   5.811   2.754   5.990 -1.3785  0.6719 -0.5535
16500TIP3   OH270914   6.472   5.787  11.923  0.0634  0.6956 -0.4197
16500TIP3    H170915   6.460   5.878  11.898 -0.7497  0.8434  0.4257
16500TIP3    H270916   6.393   5.766  11.974  1.1381  0.1264  1.0664
16501TIP3   OH270917   3.822   2.730   3.064 -0.1400  0.3903 -0.2031
16501TIP3    H170918   3.899   2.781   3.039  1.1838 -0.4636  1.9002
16501TIP3    H270919   3.797   2.763   3.150 -0.7191 -0.8878  0.1536
16502TIP3   OH270920   2.667   4.078   1.454  0.4608  0.0470 -0.1173
16502TIP3    H170921   2.744   4.059   1.400  1.8281  0.5862  1.5625
16502TIP3    H270922   2.690   4.159   1.500 -0.1501 -1.0156  2.1682
16503TIP3   OH270923   5.686   1.304   3.605 -0.0188 -0.5000 -0.2111
16503TIP3    H170924   5.776   1.277   3.625 -0.0505 -0.0445  0.5949
16503TIP3    H270925   5.689   1.400   3.606 -0.9210 -0.4367  1.9175
16504TIP3   OH270926   4.765   1.911  12.290  0.3194 -0.4477  0.0196
16504TIP3    H170927   4.714   1.831  12.275  0.3351 -0.1684 -1.6806
16504TIP3    H270928   4.792   1.905  12.382  0.5044 -2.5141 -0.1185
16505TIP3   OH270929   2.857   2.786   4.995 -0.4582 -0.7770  0.0828
16505TIP3    H170930   2.845   2.871   4.953  0.6454 -0.4861  0.3371
16505TIP3    H270931   2.945   2.789   5.032 -1.3111 -1.0644  2.3025
16506TIP3   OH270932   5.083   4.507   1.163  0.8582  0.1456 -0.5145
16506TIP3    H170933   5.059   4.460   1.084 -0.2916 -0.7850  0.3541
16506TIP3    H270934   5.066   4.445   1.234  1.4308  1.1109  0.4973
16507TIP3   OH270935   2.433   6.592   2.992 -0.0233  0.3861 -0.3003
16507TIP3    H170936   2.364   6.658   3.008 -0.1598  0.4807 -1.2582
16507TIP3    H270937   2.513   6.636   3.020 -0.1570  0.8353 -0.6082
16508TIP3   OH270938   6.094   3.085   1.172 -0.3820 -0.0267 -0.4411
16508TIP3    H170939   6.099   2.994   1.143 -0.3592 -0.3662  0.6008
16508TIP3    H270940   6.007   3.114   1.146 -1.0715 -0.9057  0.7713
16509TIP3   OH270941   6.305   5.490  15.247  0.0326 -0.0412 -0.5854
16509TIP3    H170942   6.329   5.454  15.162  0.4154  0.9585 -0.9238
16509TIP3    H270943   6.211   5.478  15.253 -0.5122  2.4466 -2.4687
16510TIP3   OH270944   4.312   2.637  12.074 -0.1878 -0.1221  0.2523
16510TIP3    H170945   4.331   2.555  12.028  0.1981  0.4152 -0.5727
16510TIP3    H270946   4.217   2.637  12.084 -0.5344  0.6115 -2.3028
16511TIP3   OH270947   2.573   4.342  15.211  0.0701  0.4368  0.1151
16511TIP3    H170948   2.580   4.370  15.120 -2.0500 -1.2711 -0.6766
16511TIP3    H270949   2.550   4.421  15.259 -0.2524  1.1042 -1.0906
16512TIP3   OH270950   4.408   6.673   3.713 -0.1828  0.5757  0.9832
16512TIP3    H170951   4.324   6.628   3.721 -0.4993  1.0831  0.6069
16512TIP3    H270952   4.463   6.612   3.664 -0.7688  0.7838  0.0151
16513TIP3   OH270953   0.298   1.721   2.210 -0.0611 -0.1819 -0.7703
16513TIP3    H170954   0.299   1.645   2.152 -1.9824 -0.9420  0.1181
16513TIP3    H270955   0.344   1.692   2.288 -0.1656 -0.1956 -0.7137
16514TIP3   OH270956   2.090   0.262   2.099  0.6540 -0.0123 -0.2496
16514TIP3    H170957   2.099   0.340   2.153  2.1017  0.5395 -1.2390
16514TIP3    H270958   1.996   0.255   2.082  0.2646  0.2933  1.5691
16515TIP3   OH270959   0.544   5.115   2.264 -0.0327 -0.3634  0.0027
16515TIP3    H170960   0.565   5.201   2.229  1.7487 -1.0367 -0.7214
16515TIP3    H270961   0.467   5.087   2.215  1.2411 -0.4570 -2.0789
16516TIP3   OH270962   2.818   5.261   1.882  0.6550  0.2535  0.2225
16516TIP3    H170963   2.865   5.322   1.940  1.6682  1.5128 -1.8140
16516TIP3    H270964   2.742   5.234   1.933  2.2095  0.1729  2.6783
16517TIP3   OH270965   6.788   4.151   1.626 -0.4084 -0.1360 -0.5445
16517TIP3    H170966   6.709   4.153   1.680 -1.1347 -0.4793 -1.5703
16517TIP3    H270967   6.854   4.111   1.682 -0.8907  0.3624  0.4087
16518TIP3   OH270968   0.193   0.145  16.148  0.0456  0.0405 -0.1652
16518TIP3    H170969   0.209   0.114  16.059 -0.2347 -2.0436  0.4680
16518TIP3    H270970   0.218   0.071  16.204 -1.1856  0.7674  1.4124
16519TIP3   OH270971   5.356   5.139  14.379 -0.1010  0.0866  0.3618
16519TIP3    H170972   5.339   5.189  14.300 -0.6641  0.3099  0.6174
16519TIP3    H270973   5.420   5.192  14.428 -0.1435  0.1999  0.2945
16520TIP3   OH270974   2.417   2.845  13.596 -0.1395 -0.1453  0.1877
16520TIP3    H170975   2.445   2.860  13.686  0.7483 -1.3112  0.1272
16520TIP3    H270976   2.402   2.751  13.591  1.7833 -0.4127 -1.4026
16521TIP3   OH270977   1.760   3.804   4.919 -0.1234 -0.5458 -0.7029
16521TIP3    H170978   1.816   3.880   4.912 -0.5201 -0.1412  0.3526
16521TIP3    H270979   1.783   3.763   5.003 -2.4912  0.5755  0.6003
16522TIP3   OH270980   1.918   3.355   5.312  0.0594 -0.3436  0.6882
16522TIP3    H170981   1.825   3.365   5.335 -0.9698 -1.1938 -2.6448
16522TIP3    H270982   1.940   3.437   5.269  1.1597  0.1536  2.1133
16523TIP3   OH270983   0.021   1.593   3.655  0.9836 -0.3845 -0.3504
16523TIP3    H170984   0.027   1.639   3.571  1.9892  0.4547  0.1495
16523TIP3    H270985   0.044   1.503   3.636  0.3810 -0.3806 -1.1162
16524TIP3   OH270986   4.934   2.426  12.412 -0.1918 -0.2662  0.5561
16524TIP3    H170987   4.929   2.408  12.318  3.2003 -0.6564  0.3272
16524TIP3    H270988   4.938   2.522  12.418  1.2560 -0.2815  0.1185
16525TIP3   OH270989   2.233   2.262   1.360 -0.1797  0.0307  0.1930
16525TIP3    H170990   2.238   2.167   1.366  1.1553 -0.0235 -1.2466
16525TIP3    H270991   2.310   2.287   1.309 -0.1667  1.9499  1.0596
16526TIP3   OH270992   2.134   0.112  17.024  0.4140 -0.2956  0.0926
16526TIP3    H170993   2.094   0.026  17.039  0.1433  0.0487  1.3829
16526TIP3    H270994   2.109   0.134  16.934 -0.9203 -0.8292  0.3069
16527TIP3   OH270995   0.985   4.246   5.682 -0.4554 -0.3208 -0.6054
16527TIP3    H170996   1.023   4.176   5.629  0.5789 -1.5444  1.6084
16527TIP3    H270997   0.926   4.200   5.742  0.3863  0.6381  1.0259
16528TIP3   OH270998   0.221   5.280  11.384 -0.3719  0.4780 -0.1779
16528TIP3    H170999   0.185   5.215  11.324 -0.5038  0.1829  0.2111
16528TIP3    H271000   0.262   5.228  11.454  0.3437  0.8151 -0.3415
16529TIP3   OH271001   6.373   0.137  11.488 -0.8272  0.2615  0.1092
16529TIP3    H171002   6.451   0.181  11.454 -1.1859 -0.2960 -1.5362
16529TIP3    H271003   6.390   0.128  11.582  0.5806  1.1589 -0.0255
16530TIP3   OH271004   0.227   3.296   2.929 -0.0778  0.6913 -0.2404
16530TIP3    H171005   0.226   3.300   2.833  0.0165 -0.5026 -0.3042
16530TIP3    H271006   0.222   3.387   2.957 -1.2454  0.9933 -1.3678
16531TIP3   OH271007   0.471   3.097  14.177  0.1064 -0.2162 -0.3379
16531TIP3    H171008   0.542   3.116  14.240  0.4653  1.7840 -1.2710
16531TIP3    H271009   0.408   3.046  14.228 -0.1371  2.2163  2.0275
16532TIP3   OH271010   1.265   6.079  11.157  0.3569  0.0347  0.7908
16532TIP3    H171011   1.267   6.173  11.176 -0.6248 -0.1519  1.9809
16532TIP3    H271012   1.216   6.072  11.075  0.9916  0.5917  0.3553
16533TIP3   OH271013   4.155   3.982   3.348  0.6480  1.0741  0.1421
16533TIP3    H171014   4.124   3.955   3.261 -1.0717  1.9552  0.4430
16533TIP3    H271015   4.248   3.961   3.347 -0.0139 -2.4782 -0.5308
16534TIP3   OH271016   2.327   2.263   4.402  0.3062  0.1806 -0.1952
16534TIP3    H171017   2.305   2.320   4.329 -2.0126  0.5098  0.6933
16534TIP3    H271018   2.335   2.176   4.363  0.0123  0.4974 -0.9750
16535TIP3   OH271019   6.351   5.808   0.561  0.2210  0.5673 -0.1627
16535TIP3    H171020   6.272   5.808   0.615  1.2262  2.3818  1.4504
16535TIP3    H271021   6.421   5.830   0.622  1.7509  0.6020 -1.8509
16536TIP3   OH271022   0.472   2.081  12.142 -0.2482  0.0657 -0.5341
16536TIP3    H171023   0.463   2.128  12.225  1.2168  1.5793 -1.1881
16536TIP3    H271024   0.562   2.047  12.143 -0.7180 -1.2669 -0.8543
16537TIP3   OH271025   4.773   0.273   0.716 -0.1498 -0.2783 -0.1936
16537TIP3    H171026   4.843   0.208   0.726  2.0269  2.1450  2.0440
16537TIP3    H271027   4.812   0.342   0.662 -1.5802  0.2438 -0.6107
16538TIP3   OH271028   3.285   5.037   6.054  0.1341  0.2200  0.4281
16538TIP3    H171029   3.219   4.975   6.087  0.7799 -0.2184  0.9220
16538TIP3    H271030   3.264   5.119   6.098 -0.4706  0.2542  0.0925
16539TIP3   OH271031   3.347   3.797   2.491 -0.0537  0.2413 -0.0033
16539TIP3    H171032   3.296   3.731   2.539  1.5926  0.4106  2.1126
16539TIP3    H271033   3.411   3.828   2.554 -0.2614  3.3584 -1.1616
16540TIP3   OH271034   5.177   6.150   6.018 -0.3085  0.3577 -0.1814
16540TIP3    H171035   5.205   6.058   6.020 -0.1873  0.3829 -0.5860
16540TIP3    H271036   5.219   6.189   6.094  1.4591  0.5833 -1.2192
16541TIP3   OH271037   3.109   0.802   4.212 -0.1704  0.7109 -0.0496
16541TIP3    H171038   3.091   0.890   4.178  0.4090  0.3155 -1.4730
16541TIP3    H271039   3.203   0.803   4.233  0.1354  0.0706 -1.2970
16542TIP3   OH271040   1.318   3.358  10.650  0.3169  0.2690 -0.4402
16542TIP3    H171041   1.390   3.404  10.608 -1.1065  3.8605  0.7173
16542TIP3    H271042   1.254   3.344  10.579  1.1018 -0.8245 -0.9689
16543TIP3   OH271043   3.525   0.791  14.130 -0.2513  0.4280  0.0183
16543TIP3    H171044   3.576   0.739  14.067 -1.1410 -2.3983  1.4437
16543TIP3    H271045   3.434   0.768  14.111 -0.5807  0.2604  1.6886
16544TIP3   OH271046   1.274   1.931  11.731 -0.4875  0.8894  0.9617
16544TIP3    H171047   1.295   1.996  11.663  1.7639  0.6554  1.3565
16544TIP3    H271048   1.245   1.983  11.805 -4.6781  1.0959 -0.5744
16545TIP3   OH271049   0.646   0.004   3.429  0.1489 -0.2988  0.1047
16545TIP3    H171050   0.555   0.020   3.405  0.3715 -1.3415 -1.6094
16545TIP3    H271051   0.644  -0.081   3.473  0.2827 -0.2211  0.2632
16546TIP3   OH271052   6.612   5.846  14.038 -0.2055  0.2640  0.3517
16546TIP3    H171053   6.539   5.792  14.009 -2.2014  2.1677  1.5957
16546TIP3    H271054   6.585   5.935  14.019  0.8887  1.1693  2.7074
16547TIP3   OH271055   3.030   1.911   3.970 -0.2109  0.1923 -0.2839
16547TIP3    H171056   3.022   1.893   4.064 -1.9505  1.0420 -0.2233
16547TIP3    H271057   3.041   2.006   3.964  0.4535  0.0886 -0.9363
16548TIP3   OH271058   2.851   5.829   6.395 -0.0468 -0.0991  0.1342
16548TIP3    H171059   2.792   5.758   6.421 -0.2324  0.2271  0.6108
16548TIP3    H271060   2.933   5.785   6.373 -1.1247 -0.8523 -2.9246
16549TIP3   OH271061   0.830   0.814  15.823  0.0459  0.0047 -0.2569
16549TIP3    H171062   0.873   0.868  15.758 -0.7434  0.0211 -0.7750
16549TIP3    H271063   0.759   0.770  15.776 -0.3884 -0.1696  0.5320
16550TIP3   OH271064   4.933   0.296  14.822 -0.3711 -0.3654  0.7798
16550TIP3    H171065   4.930   0.202  14.839  0.5491 -1.0744 -2.2964
16550TIP3    H271066   5.015   0.309  14.774 -0.6376  1.9787  0.8262
16551TIP3   OH271067   4.083   6.250   0.185  0.7806  0.0551 -0.2003
16551TIP3    H171068   4.129   6.311   0.243  1.8406 -0.3292 -0.6018
16551TIP3    H271069   4.110   6.277   0.097  0.5232 -0.4114 -0.4228
16552TIP3   OH271070   2.367   4.505   0.245  0.6226  0.0880  0.4156
16552TIP3    H171071   2.334   4.595   0.245  1.1504  0.3820  3.4794
16552TIP3    H271072   2.289   4.451   0.258  0.5702  0.2748  0.8848
16553TIP3   OH271073   0.078   5.637  16.753 -0.3305  0.1336 -0.2748
16553TIP3    H171074   0.104   5.587  16.830  3.7613  2.3499  0.0615
16553TIP3    H271075   0.074   5.573  16.682 -0.7810 -1.4096  1.0926
16554TIP3   OH271076   2.812   4.960  11.172 -0.2075 -0.7781 -0.6109
16554TIP3    H171077   2.809   4.992  11.262  0.3706 -0.0545 -0.8380
16554TIP3    H271078   2.723   4.971  11.139 -0.5102 -1.3778 -0.0275
16555TIP3   OH271079   4.396   4.955   4.431 -0.0736  0.5318 -0.1038
16555TIP3    H171080   4.369   4.869   4.465 -0.1894  0.0918 -1.2686
16555TIP3    H271081   4.327   5.014   4.460 -1.4487 -0.2731 -1.5787
16556TIP3   OH271082   3.493   6.134   5.746 -0.5555 -0.2982  0.0356
16556TIP3    H171083   3.487   6.184   5.827 -1.3630 -0.0931 -0.1435
16556TIP3    H271084   3.550   6.186   5.690 -1.6010  0.5849 -0.2455
16557TIP3   OH271085   5.285   5.042  16.140 -0.1940  0.3242 -0.3966
16557TIP3    H171086   5.321   5.129  16.125  1.1086  0.1772  1.4886
16557TIP3    H271087   5.216   5.055  16.205 -0.4228  0.0423 -0.5817
16558TIP3   OH271088   2.155   0.922   1.203  0.1233 -0.0887  0.7588
16558TIP3    H171089   2.144   0.840   1.155  1.5007  0.0915  0.1086
16558TIP3    H271090   2.088   0.980   1.166 -1.3942 -1.1203  1.7677
16559TIP3   OH271091   5.714   3.787   3.411 -0.2299 -0.2242  0.6050
16559TIP3    H171092   5.632   3.805   3.457 -1.3394  0.9854 -1.6733
16559TIP3    H271093   5.692   3.717   3.350  0.1354  0.7460 -0.6761
16560TIP3   OH271094   2.849   0.502  14.033 -0.4278  0.1860  0.2565
16560TIP3    H171095   2.830   0.505  14.127 -1.5345 -1.3296  0.1111
16560TIP3    H271096   2.780   0.447  13.996 -1.3120  2.4769 -1.7924
16561TIP3   OH271097   4.227   5.561   3.972  0.1770 -0.2243 -0.4443
16561TIP3    H171098   4.190   5.524   3.891  0.3035  0.4955 -0.8389
16561TIP3    H271099   4.249   5.651   3.949  1.2601 -0.3431  0.0747
16562TIP3   OH271100   4.389   4.478   0.612  0.0189 -0.0496 -0.2070
16562TIP3    H171101   4.456   4.443   0.671 -0.9987  0.1765  1.1420
16562TIP3    H271102   4.416   4.568   0.596  0.8279 -0.4073 -0.9119
16563TIP3   OH271103   2.098   4.780  11.477  0.2990 -0.2367 -0.0785
16563TIP3    H171104   2.005   4.801  11.489 -0.2695 -1.7388 -1.4583
16563TIP3    H271105   2.141   4.865  11.471 -1.2660  0.5270 -1.2827
16564TIP3   OH271106   5.126   4.827   3.579 -0.1419 -0.4838 -0.5367
16564TIP3    H171107   5.190   4.784   3.635 -0.3043  0.3591  0.3217
16564TIP3    H271108   5.045   4.828   3.631 -0.2216  0.5718 -0.6592
16565TIP3   OH271109   2.962   3.534   0.876 -0.0937 -0.1692  0.6030
16565TIP3    H171110   2.888   3.561   0.930 -3.0556 -1.7308 -2.3247
16565TIP3    H271111   2.951   3.581   0.794  0.0842 -2.9330 -1.1415
16566TIP3   OH271112   1.027   0.360  11.950  0.1767  0.0503 -0.3837
16566TIP3    H171113   0.952   0.345  11.892  0.0602 -0.3908 -0.1216
16566TIP3    H271114   1.101   0.319  11.905 -0.1890 -1.5792  0.4486
16567TIP3   OH271115   6.692   3.210   1.890 -0.0025  0.4941  0.5130
16567TIP3    H171116   6.726   3.293   1.857  0.8148 -0.4897 -1.2847
16567TIP3    H271117   6.695   3.151   1.815  0.2821 -1.4214  1.9330
16568TIP3   OH271118   2.169   5.683   2.503  0.5092 -0.1439  0.8769
16568TIP3    H171119   2.145   5.713   2.591 -1.1625 -1.7279  1.0155
16568TIP3    H271120   2.193   5.763   2.457 -1.1659  1.0856  2.0040
16569TIP3   OH271121   4.876   5.757  12.771  0.0291 -0.0966 -0.3942
16569TIP3    H171122   4.967   5.734  12.792 -0.3782 -0.9917  0.4957
16569TIP3    H271123   4.860   5.715  12.686  0.6421  0.6313 -0.8792
16570TIP3   OH271124   5.193   2.850  13.976  0.1367  0.1519 -0.5941
16570TIP3    H171125   5.240   2.770  14.001 -0.0648  0.1585 -0.1775
16570TIP3    H271126   5.254   2.898  13.920  0.7967  0.3711  0.2999
16571TIP3   OH271127   6.258   6.536   4.165  0.6859 -0.0715 -0.0990
16571TIP3    H171128   6.241   6.508   4.076  0.9333  0.1351 -0.2128
16571TIP3    H271129   6.239   6.459   4.219 -0.6055  0.1471 -0.2166
16572TIP3   OH271130   6.580   3.002  13.166  0.9704  0.3092 -0.0588
16572TIP3    H171131   6.662   2.980  13.121  0.6125  1.5145 -1.3678
16572TIP3    H271132   6.517   2.938  13.133  0.5986  1.4656 -1.7080
16573TIP3   OH271133   4.482   4.260  15.625 -0.1532 -0.0746 -0.0444
16573TIP3    H171134   4.533   4.272  15.545 -2.7529  0.0260 -1.7889
16573TIP3    H271135   4.492   4.167  15.646  0.9402  0.0005 -0.1615
16574TIP3   OH271136   6.437   0.354   5.677 -0.0651  0.5107  0.3650
16574TIP3    H171137   6.512   0.381   5.729  2.2406  0.6115 -2.7498
16574TIP3    H271138   6.393   0.436   5.654  0.1962  0.6466  0.3480
16575TIP3   OH271139   4.274   4.521   2.039  0.4231  0.1087 -0.7382
16575TIP3    H171140   4.244   4.602   1.999  1.3604  0.7331 -0.2229
16575TIP3    H271141   4.351   4.496   1.988  0.8701  0.2260 -0.1354
16576TIP3   OH271142   4.264   0.283   0.762 -0.0875  0.4285 -0.0176
16576TIP3    H171143   4.320   0.272   0.685 -1.0139 -1.7351 -0.4550
16576TIP3    H271144   4.195   0.218   0.751 -0.3602  0.1779  2.5606
16577TIP3   OH271145   3.451   6.605  12.603 -0.0138 -0.0643  0.1168
16577TIP3    H171146   3.452   6.514  12.571  2.0522  0.4421 -1.5111
16577TIP3    H271147   3.434   6.597  12.696 -0.5034 -2.0853 -0.0966
16578TIP3   OH271148   0.022   2.771  13.436  0.0633  0.2405 -0.2548
16578TIP3    H171149   0.074   2.700  13.398  2.1401  2.1260 -1.2240
16578TIP3    H271150   0.078   2.807  13.504 -1.3302  0.4146  0.8428
16579TIP3   OH271151   3.371   3.235   2.778  0.0748 -0.3738 -0.1957
16579TIP3    H171152   3.350   3.196   2.862 -2.5321  1.5386  0.1764
16579TIP3    H271153   3.301   3.205   2.719  0.4076  0.3319 -0.9794
16580TIP3   OH271154   2.882   5.333  11.116 -0.8774 -0.2354  0.0411
16580TIP3    H171155   2.971   5.324  11.082 -0.6966 -1.8254  0.8105
16580TIP3    H271156   2.866   5.250  11.162 -2.1922  0.6364  1.2331
16581TIP3   OH271157   2.631   3.971   4.148 -0.2656  0.4234 -0.0498
16581TIP3    H171158   2.720   3.963   4.113 -0.3892  0.7599 -0.4528
16581TIP3    H271159   2.642   4.000   4.238  0.0060  1.9520 -0.5478
16582TIP3   OH271160   0.614   2.100   1.829 -0.3492 -0.0104  0.6082
16582TIP3    H171161   0.543   2.162   1.814 -0.6951 -0.5182  0.0826
16582TIP3    H271162   0.675   2.146   1.887 -0.1582  1.1320 -0.4582
16583TIP3   OH271163   1.706   6.556  15.713  0.1386 -0.1273 -0.0670
16583TIP3    H171164   1.703   6.524  15.803  4.0261  0.6039  0.5060
16583TIP3    H271165   1.670   6.645  15.718 -3.1368 -1.3346 -0.0976
16584TIP3   OH271166   1.459   6.378  11.918 -0.0413 -0.4965 -0.1002
16584TIP3    H171167   1.518   6.320  11.870  0.8199 -0.2845  0.6769
16584TIP3    H271168   1.499   6.465  11.910 -0.7296 -0.1877 -0.3124
16585TIP3   OH271169   4.551   3.103  12.100 -0.6923 -0.5150  0.5869
16585TIP3    H171170   4.543   3.032  12.163 -0.2800  0.3974  1.7088
16585TIP3    H271171   4.527   3.182  12.150 -0.4271  0.2213 -0.4198
16586TIP3   OH271172   3.209   4.407  13.702 -0.2285  0.2076 -0.0404
16586TIP3    H171173   3.163   4.489  13.686  0.3120  0.4913 -0.1427
16586TIP3    H271174   3.174   4.376  13.786 -0.7132  0.3416 -0.1907
16587TIP3   OH271175   0.234   6.227   2.371 -0.0431 -0.0618  0.3455
16587TIP3    H171176   0.249   6.199   2.281 -1.3644 -0.8284  0.3340
16587TIP3    H271177   0.307   6.285   2.391  0.2042  0.2236 -1.2541
16588TIP3   OH271178   0.323   6.244   4.975 -0.2678 -0.1359 -0.0488
16588TIP3    H171179   0.300   6.156   5.004  0.8683  0.0626  1.6129
16588TIP3    H271180   0.325   6.296   5.055  0.8318  0.9882 -0.7539
16589TIP3   OH271181   5.790   5.901  15.918 -0.3164 -0.9004  0.1467
16589TIP3    H171182   5.734   5.827  15.944 -1.4333  0.3550  1.5182
16589TIP3    H271183   5.832   5.928  16.000  0.4756 -0.3158 -0.4409
16590TIP3   OH271184   6.565   3.776   4.703  0.2214  0.0704 -0.0997
16590TIP3    H171185   6.639   3.750   4.649 -0.0769 -0.0302 -0.4648
16590TIP3    H271186   6.600   3.780   4.792  0.3324 -1.3869 -0.0476
16591TIP3   OH271187   5.202   5.064  12.491 -0.7527 -0.2936 -0.0499
16591TIP3    H171188   5.281   5.118  12.492 -0.7709 -0.2511 -0.6725
16591TIP3    H271189   5.228   4.983  12.535 -0.9870  0.5650  1.7600
16592TIP3   OH271190   6.550   1.126   1.703 -0.0643  0.5493  0.0629
16592TIP3    H171191   6.491   1.186   1.658  0.6468 -0.5493 -2.4616
16592TIP3    H271192   6.637   1.166   1.694  0.5351 -1.1163 -2.3234
16593TIP3   OH271193   2.414   2.439  13.317  0.0231 -0.0683  0.4310
16593TIP3    H171194   2.397   2.480  13.232 -0.0846  0.1754  0.5663
16593TIP3    H271195   2.346   2.373  13.326  0.0656 -0.1294  0.3043
16594TIP3   OH271196   0.124   3.951   0.022  0.2984  0.0981  0.4800
16594TIP3    H171197   0.101   3.997  -0.059  1.6314 -1.4891 -0.8973
16594TIP3    H271198   0.058   3.881   0.029 -0.0248  0.4484  0.9752
16595TIP3   OH271199   4.570   1.569  14.850  0.3455 -0.3671 -0.3599
16595TIP3    H171200   4.546   1.660  14.864  1.0217 -0.0408 -1.2670
16595TIP3    H271201   4.665   1.567  14.864  0.1932 -1.1404  0.6833
16596TIP3   OH271202   3.424   5.408  12.806  0.3897 -0.1713 -0.2401
16596TIP3    H171203   3.349   5.405  12.748  0.8125  1.6612 -0.9248
16596TIP3    H271204   3.441   5.501  12.820  2.6772 -0.5203 -0.3258
16597TIP3   OH271205   4.910   6.653   2.270  0.8003 -0.1699 -0.3172
16597TIP3    H171206   4.829   6.608   2.292 -0.4654  1.8860 -0.4815
16597TIP3    H271207   4.978   6.605   2.317 -0.5333 -1.7682  0.0783
16598TIP3   OH271208   2.098   1.053  14.392 -0.3804  0.0151 -0.0991
16598TIP3    H171209   2.004   1.036  14.404 -0.5992 -1.3093 -2.8901
16598TIP3    H271210   2.140   0.968  14.404  0.6407  0.7334  1.8999
16599TIP3   OH271211   2.423   4.742   3.595 -0.0390  0.7873  0.3184
16599TIP3    H171212   2.350   4.753   3.656  0.5850  0.8112  1.0759
16599TIP3    H271213   2.485   4.810   3.619 -1.3782  3.4550 -2.8614
16600TIP3   OH271214   3.230   5.453  14.924  0.4681  0.2009 -0.3484
16600TIP3    H171215   3.202   5.452  15.016  1.6081 -0.7797  0.0160
16600TIP3    H271216   3.283   5.532  14.916 -1.3637  1.4450 -0.7448
16601TIP3   OH271217   1.928   3.317  10.789  0.4054  0.3090  0.2087
16601TIP3    H171218   1.989   3.386  10.761  0.5251  0.9415  1.8934
16601TIP3    H271219   1.948   3.243  10.731  2.5390  0.6197  0.4447
16602TIP3   OH271220   2.797   5.767   1.435 -0.3795  0.3598 -0.3947
16602TIP3    H171221   2.873   5.820   1.458  0.7472 -1.5199  0.3693
16602TIP3    H271222   2.723   5.829   1.438  0.7918  1.7722  0.9762
16603TIP3   OH271223   5.010   1.974  16.336  0.0816 -0.0208  0.2530
16603TIP3    H171224   5.095   1.942  16.367  0.2494 -0.9359 -1.0502
16603TIP3    H271225   4.983   1.909  16.271 -1.3059  0.6238  0.1524
16604TIP3   OH271226   6.748   6.343  14.908  0.3833 -0.2221 -0.2359
16604TIP3    H171227   6.682   6.368  14.844  0.4697  1.5608  0.3325
16604TIP3    H271228   6.831   6.354  14.863  0.4500  1.1376  0.1709
16605TIP3   OH271229   6.690   1.793   4.317 -0.4197 -0.0588 -0.1326
16605TIP3    H171230   6.775   1.752   4.300 -0.5465 -0.5738  0.4603
16605TIP3    H271231   6.668   1.836   4.234  0.3372 -0.0577 -0.3463
16606TIP3   OH271232   2.414   2.135   3.203  0.5698  0.1760 -0.1621
16606TIP3    H171233   2.376   2.055   3.167  1.2042  0.9280 -2.7511
16606TIP3    H271234   2.374   2.205   3.151  0.5421  1.5215  1.5861
16607TIP3   OH271235   4.118   4.058  13.084 -0.1205  0.3743  0.1503
16607TIP3    H171236   4.042   4.114  13.099 -1.2167 -1.6536  3.1263
16607TIP3    H271237   4.157   4.047  13.171  1.5723 -1.3520 -0.7605
16608TIP3   OH271238   0.670   2.381   0.115 -0.2022  0.2283 -0.0755
16608TIP3    H171239   0.586   2.357   0.155  0.7292 -0.6727  1.4217
16608TIP3    H271240   0.648   2.399   0.023 -1.9596 -0.3971  0.1806
16609TIP3   OH271241   3.200   3.130  14.341 -0.1448  0.4126  0.4727
16609TIP3    H171242   3.270   3.165  14.286  0.7948  1.3560  2.1436
16609TIP3    H271243   3.239   3.054  14.384  0.1626  1.3318  1.9209
16610TIP3   OH271244   4.479   3.847   3.651  0.3103 -0.0413 -0.4038
16610TIP3    H171245   4.540   3.921   3.654 -1.1312  1.2118 -0.7940
16610TIP3    H271246   4.401   3.879   3.697 -0.7630 -0.9151 -1.5637
16611TIP3   OH271247   0.654   1.349   1.888 -0.3334  0.1769  0.3328
16611TIP3    H171248   0.735   1.299   1.896  0.9590  1.9473 -0.8488
16611TIP3    H271249   0.614   1.317   1.807  0.1627  0.5782 -0.0793
16612TIP3   OH271250   5.962   0.423  11.480  0.8183  0.3900 -0.3765
16612TIP3    H171251   5.885   0.369  11.461  0.8355 -0.0008  0.6187
16612TIP3    H271252   6.001   0.383  11.557  1.2099  1.4316 -0.0151
16613TIP3   OH271253   3.193   3.683   5.099  0.2327  0.2247 -0.2625
16613TIP3    H171254   3.108   3.639   5.105  0.2109  0.3210  0.2501
16613TIP3    H271255   3.221   3.691   5.191 -0.5421  2.7726 -0.1889
16614TIP3   OH271256   5.728   5.381  15.118 -0.0574  0.7450 -0.1099
16614TIP3    H171257   5.713   5.463  15.166 -0.3660  0.1767  0.7888
16614TIP3    H271258   5.707   5.312  15.181 -0.1010 -0.0299 -0.9536
16615TIP3   OH271259   5.619   2.109  12.724 -0.7431 -0.5147 -0.5693
16615TIP3    H171260   5.613   2.106  12.628  0.3953 -2.2451 -0.6218
16615TIP3    H271261   5.680   2.180  12.742 -0.2475 -0.7704 -1.1885
16616TIP3   OH271262   2.371   4.569  13.582 -1.0992  0.0532  0.2732
16616TIP3    H171263   2.288   4.596  13.541  0.4736  2.1463 -1.8277
16616TIP3    H271264   2.423   4.533  13.510  0.1027 -0.5381  1.3929
16617TIP3   OH271265   3.409   6.036   2.272 -0.6800 -0.4951 -0.6218
16617TIP3    H171266   3.387   5.943   2.279 -0.7544 -0.3673  1.1450
16617TIP3    H271267   3.369   6.076   2.349 -1.2626  1.1350 -1.7305
16618TIP3   OH271268   5.647   2.951   5.566  0.2619  0.4013 -0.0773
16618TIP3    H171269   5.609   2.965   5.653  3.7285 -1.5519  1.9696
16618TIP3    H271270   5.712   3.020   5.556  0.6425 -0.0299 -0.6557
16619TIP3   OH271271   0.785   3.848  10.294  0.6811 -0.0945  0.5385
16619TIP3    H171272   0.828   3.763  10.303 -1.0569 -1.4683 -2.4035
16619TIP3    H271273   0.708   3.843  10.351  0.0054 -0.9954 -0.4140
16620TIP3   OH271274   1.737   5.071   2.111 -0.3111 -0.6368  0.1400
16620TIP3    H171275   1.785   5.148   2.144 -2.1858  0.3115  0.7812
16620TIP3    H271276   1.798   5.030   2.050  0.4211  1.8879 -0.9736
16621TIP3   OH271277   4.561   2.757   0.040  0.0809 -0.6124 -0.2205
16621TIP3    H171278   4.650   2.786   0.057 -0.5680  2.0230 -0.8049
16621TIP3    H271279   4.516   2.765   0.124  0.3367 -1.8261  0.0472
16622TIP3   OH271280   5.364   0.641   1.141 -0.1410  0.4045  0.1395
16622TIP3    H171281   5.268   0.641   1.148 -0.1339  0.3473  0.2399
16622TIP3    H271282   5.394   0.678   1.224 -0.0741  0.3419  0.1436
16623TIP3   OH271283   1.805   4.034   3.670  0.0181 -0.1697 -0.0507
16623TIP3    H171284   1.895   4.028   3.699 -0.6125 -1.2502  1.7995
16623TIP3    H271285   1.764   4.097   3.729 -0.4076  0.4718 -1.0009
16624TIP3   OH271286   0.011   5.810  11.681  0.0924  0.8062  0.1689
16624TIP3    H171287  -0.041   5.732  11.664  0.3896  0.0212  2.4774
16624TIP3    H271288   0.008   5.860  11.599 -0.5338 -1.3587 -1.2057
16625TIP3   OH271289   5.071   3.429  15.960  0.2757  0.6003 -0.4734
16625TIP3    H171290   5.140   3.395  16.018 -0.6338 -0.9562 -0.2437
16625TIP3    H271291   5.109   3.422  15.872  0.1660 -0.9708 -0.4207
16626TIP3   OH271292   6.339   6.380   5.530 -0.3171 -0.0858 -0.1390
16626TIP3    H171293   6.265   6.319   5.521 -0.5778  0.2301 -0.1623
16626TIP3    H271294   6.304   6.464   5.499 -0.1617  0.2276  0.5248
16627TIP3   OH271295   5.407   0.044  10.926  0.2066 -0.1445 -0.2019
16627TIP3    H171296   5.397   0.085  10.840  0.1054 -0.3457 -0.2855
16627TIP3    H271297   5.498   0.062  10.950  0.4843 -0.8068 -0.7215
16628TIP3   OH271298   5.180   1.947  16.656  0.1733  0.7830 -0.3267
16628TIP3    H171299   5.090   1.967  16.680 -0.5560 -1.2296 -1.1042
16628TIP3    H271300   5.228   2.028  16.670 -1.4732  1.5070  1.4752
16629TIP3   OH271301   4.491   6.522   4.430 -0.3451 -0.3477 -0.6351
16629TIP3    H171302   4.539   6.494   4.508 -2.0213  1.9973  1.4215
16629TIP3    H271303   4.555   6.571   4.378  0.4417 -0.7147 -0.0384
16630TIP3   OH271304   5.170   6.504  16.456  0.4318 -0.1095  0.5265
16630TIP3    H171305   5.200   6.587  16.493  0.8310 -0.4489  0.9761
16630TIP3    H271306   5.245   6.445  16.464  0.1421 -0.5199  0.2417
16631TIP3   OH271307   0.080   5.784   2.592  0.2322  0.2933 -0.0496
16631TIP3    H171308   0.078   5.689   2.604 -1.4425 -0.1109 -2.6895
16631TIP3    H271309   0.052   5.819   2.677  2.0711 -1.4447  1.3831
16632TIP3   OH271310   1.319   3.170   6.215  0.2720  0.0545  0.2786
16632TIP3    H171311   1.369   3.176   6.297 -1.9844  0.0546  1.7610
16632TIP3    H271312   1.298   3.077   6.207  0.0564  0.1272 -0.0047
16633TIP3   OH271313   5.795   0.017   5.894 -0.0643  0.1657  0.4536
16633TIP3    H171314   5.783   0.003   5.800 -2.4251 -1.2232  0.8795
16633TIP3    H271315   5.770  -0.066   5.934  0.0069  1.0115  2.3725
16634TIP3   OH271316   0.407   4.058   4.095 -0.4979  0.1680  0.2983
16634TIP3    H171317   0.415   3.962   4.093  2.8568  0.3381 -1.9129
16634TIP3    H271318   0.424   4.081   4.186  1.5124 -1.2665  0.3586
16635TIP3   OH271319   0.415   5.114   2.523 -0.3750 -0.0279 -0.2085
16635TIP3    H171320   0.464   5.113   2.441 -0.2503 -1.6249 -0.1651
16635TIP3    H271321   0.436   5.029   2.564  0.2322  1.0470  1.8714
16636TIP3   OH271322   3.683   2.625   4.595  0.2515 -0.4198  0.0346
16636TIP3    H171323   3.765   2.672   4.576  0.0537 -0.1590 -0.1934
16636TIP3    H271324   3.654   2.593   4.509 -0.4477  0.4294 -0.0589
16637TIP3   OH271325   0.116   2.803  16.653 -0.8827  0.1388  0.1343
16637TIP3    H171326   0.123   2.862  16.578 -0.4975 -2.6364 -2.1957
16637TIP3    H271327   0.024   2.777  16.654 -0.8699  0.1000  0.6032
16638TIP3   OH271328   4.086   3.487  15.925  0.9773  0.3848  0.1802
16638TIP3    H171329   4.181   3.490  15.925  0.9433  2.9410  0.4082
16638TIP3    H271330   4.059   3.547  15.995 -0.8198 -0.6065  0.4171
16639TIP3   OH271331   2.369   3.418   4.532 -0.0727  0.1561  0.1056
16639TIP3    H171332   2.396   3.506   4.505  0.3193  0.3320  1.0282
16639TIP3    H271333   2.332   3.431   4.620 -1.5362 -0.3552 -0.3988
16640TIP3   OH271334   3.063   0.288  15.878  0.2995 -0.3210 -0.2139
16640TIP3    H171335   2.982   0.316  15.833 -0.5165  0.5510  1.7059
16640TIP3    H271336   3.084   0.360  15.937  1.6251 -1.2235  0.4560
16641TIP3   OH271337   2.681   4.443  15.485 -0.0480 -0.3311 -0.6557
16641TIP3    H171338   2.587   4.430  15.475  0.1303 -2.7086  0.1436
16641TIP3    H271339   2.718   4.355  15.483  2.0731  0.4788 -0.0144
16642TIP3   OH271340   4.284   0.329  16.421  0.1038 -0.1804 -0.4273
16642TIP3    H171341   4.239   0.380  16.353  1.3049 -0.9841 -1.9006
16642TIP3    H271342   4.255   0.239  16.406 -0.8924 -0.1596  1.2212
16643TIP3   OH271343   5.306   3.118   4.932 -0.2775  0.0892 -0.0626
16643TIP3    H171344   5.218   3.117   4.970  0.0722  1.3379  0.8422
16643TIP3    H271345   5.291   3.108   4.838 -1.2967 -0.8897  0.1796
16644TIP3   OH271346   3.786   0.605   5.724 -0.1549  0.7805 -0.5093
16644TIP3    H171347   3.825   0.692   5.736  0.5687  0.3072  0.7469
16644TIP3    H271348   3.730   0.615   5.647  0.6425  2.1053 -0.9606
16645TIP3   OH271349   3.922   1.436  16.713 -0.1196  0.3182  0.0795
16645TIP3    H171350   3.953   1.369  16.774 -1.6502 -0.3570  0.1444
16645TIP3    H271351   3.923   1.393  16.627  0.2360  0.6693 -0.0956
16646TIP3   OH271352   3.890   2.769  13.879  0.4654 -0.2637  0.2421
16646TIP3    H171353   3.816   2.821  13.850 -0.1867 -0.9882  0.5733
16646TIP3    H271354   3.961   2.832  13.889 -0.2417  0.5184  0.4331
16647TIP3   OH271355   3.516   3.516   2.350 -0.6975  0.1124  0.3243
16647TIP3    H171356   3.531   3.591   2.408 -1.0059  0.4742 -0.0577
16647TIP3    H271357   3.577   3.449   2.381 -1.6801 -0.1160  1.8158
16648TIP3   OH271358   5.754   6.595  11.966 -0.2636 -0.9198 -0.2083
16648TIP3    H171359   5.771   6.602  12.060  0.1370  0.6370 -0.3679
16648TIP3    H271360   5.659   6.602  11.957 -0.1387  2.3173 -0.0951
16649TIP3   OH271361   6.143   6.554   2.494  0.1303 -0.1527 -0.1909
16649TIP3    H171362   6.063   6.502   2.500  0.4594 -0.7924 -1.1702
16649TIP3    H271363   6.115   6.636   2.453 -0.1590 -0.0435  0.2131
16650TIP3   OH271364   5.284   6.392  13.929 -1.0042  0.7147  0.5696
16650TIP3    H171365   5.339   6.467  13.906 -0.0658  0.4649  1.8292
16650TIP3    H271366   5.342   6.336  13.981 -1.1430 -1.7887 -1.8088
16651TIP3   OH271367   2.726   5.887  14.956 -0.1997 -0.6309  0.2167
16651TIP3    H171368   2.739   5.799  14.992  2.7277 -0.3167  0.1679
16651TIP3    H271369   2.689   5.937  15.029 -3.8959 -2.2394 -0.3397
16652TIP3   OH271370   2.811   4.280  14.776 -0.3388 -0.4741  0.5391
16652TIP3    H171371   2.767   4.344  14.832 -1.3067 -0.8991  0.2963
16652TIP3    H271372   2.902   4.309  14.772 -0.8942  1.3425 -0.1831
16653TIP3   OH271373   1.178   1.985   2.786 -0.0503 -0.0621 -0.7078
16653TIP3    H171374   1.237   1.923   2.743  0.1532  0.8339 -1.7716
16653TIP3    H271375   1.236   2.050   2.825 -0.1503 -1.5565  2.1956
16654TIP3   OH271376   6.331   3.507   0.608 -0.2573 -0.2028 -0.2848
16654TIP3    H171377   6.272   3.563   0.658 -0.8658 -0.4174 -0.7476
16654TIP3    H271378   6.279   3.480   0.532  0.3072 -0.7153 -0.4932
16655TIP3   OH271379   1.421   2.029   4.583  0.2567  0.2410  0.6021
16655TIP3    H171380   1.376   1.992   4.507  1.5230 -0.9932  0.4139
16655TIP3    H271381   1.399   1.970   4.655  0.9043  0.0911  0.6823
16656TIP3   OH271382   2.896   1.096   5.121  0.6033  0.0826 -0.2887
16656TIP3    H171383   2.928   1.038   5.052  2.8859 -0.9854  1.5357
16656TIP3    H271384   2.974   1.119   5.172 -1.1418 -0.7908  3.1095
16657TIP3   OH271385   4.042   1.545  14.006 -0.0405 -0.0547  0.2194
16657TIP3    H171386   4.066   1.469  14.059 -0.2404 -0.9888 -0.9658
16657TIP3    H271387   3.982   1.595  14.061 -1.0919 -1.5576  0.5096
16658TIP3   OH271388   3.845   5.018  14.942 -0.5107 -0.1482 -0.3050
16658TIP3    H171389   3.902   5.023  14.866 -2.2245 -1.4715 -1.7422
16658TIP3    H271390   3.868   4.935  14.984  0.1491  0.3914  0.4652
16659TIP3   OH271391   1.563   3.651   3.988  0.2534  0.3376 -0.4426
16659TIP3    H171392   1.555   3.667   4.082 -0.8519  0.8951 -0.6083
16659TIP3    H271393   1.491   3.702   3.949 -0.5388 -1.4488 -1.4223
16660TIP3   OH271394   5.817   1.644  15.034  0.2784  0.2761 -0.2790
16660TIP3    H171395   5.800   1.579  14.965 -1.4483 -0.8531  1.1087
16660TIP3    H271396   5.902   1.618  15.071  0.4244 -0.1234 -0.8771
16661TIP3   OH271397   3.508   2.657  16.839  0.3568  0.6958 -0.3299
16661TIP3    H171398   3.504   2.620  16.751  1.2318  0.2512 -0.2017
16661TIP3    H271399   3.417   2.674  16.863  0.1039  0.7129 -1.2710
16662TIP3   OH271400   0.227   0.269   0.071 -0.0981 -0.2549  0.2797
16662TIP3    H171401   0.258   0.358   0.052 -0.7514 -0.4837 -2.2321
16662TIP3    H271402   0.132   0.278   0.080 -0.5661 -0.9436 -2.6873
16663TIP3   OH271403   2.040   5.848  16.579 -0.2436  0.0085  0.2228
16663TIP3    H171404   2.049   5.757  16.553  1.0452  0.3070 -0.4737
16663TIP3    H271405   2.072   5.898  16.504 -1.8808  1.0801  0.1948
16664TIP3   OH271406   1.812   2.533   5.753  0.2817 -0.6940  0.1108
16664TIP3    H171407   1.782   2.531   5.845 -0.2582 -0.6580 -0.0577
16664TIP3    H271408   1.853   2.448   5.740  2.3119  0.0924  1.0079
16665TIP3   OH271409   4.834   5.705  15.038 -0.2295 -0.0267  0.3850
16665TIP3    H171410   4.855   5.663  14.955  1.5945  2.1419 -0.3772
16665TIP3    H271411   4.782   5.782  15.014 -0.7969 -0.0773  1.3821
16666TIP3   OH271412   6.409   4.367  15.515  0.2254  0.6232  0.3480
16666TIP3    H171413   6.480   4.430  15.499  2.3093 -0.9225  2.8190
16666TIP3    H271414   6.387   4.334  15.428  2.8466  0.9106 -0.5264
16667TIP3   OH271415   1.636   6.702  12.868 -0.2037  0.1815 -0.4248
16667TIP3    H171416   1.584   6.766  12.819 -0.1065 -0.0751 -0.8723
16667TIP3    H271417   1.719   6.747  12.884  0.2838 -0.2051 -1.7085
16668TIP3   OH271418   1.527   4.829  13.981  0.4654  0.7500 -0.1077
16668TIP3    H171419   1.564   4.912  13.949  0.9428  0.9269  0.8787
16668TIP3    H271420   1.443   4.853  14.018  0.9821  0.9526  0.9703
16669TIP3   OH271421   1.986   0.292   2.575  0.3591 -0.0471 -0.2553
16669TIP3    H171422   2.001   0.372   2.625 -0.9256 -0.1427  0.3318
16669TIP3    H271423   1.995   0.221   2.639 -0.5276 -0.2211 -0.3003
16670TIP3   OH271424   6.131   3.684  12.062  0.5663  0.4913  0.7216
16670TIP3    H171425   6.168   3.770  12.081 -0.8895  0.4583  4.3836
16670TIP3    H271426   6.186   3.623  12.111 -0.6239 -0.2423  1.1696
16671TIP3   OH271427   2.470   0.328  15.535  0.5971 -0.0773  0.3078
16671TIP3    H171428   2.548   0.323  15.480  0.5406  0.5478  0.1582
16671TIP3    H271429   2.410   0.386  15.487  0.4611  0.3036  0.9138
16672TIP3   OH271430   1.464   6.642  17.069  0.0306 -0.4817  0.0500
16672TIP3    H171431   1.415   6.719  17.096 -0.4053 -1.0275  0.8570
16672TIP3    H271432   1.544   6.645  17.120  1.4271  1.0015 -2.0518
16673TIP3   OH271433   3.929   2.365   5.278  0.6167 -0.3936  0.2789
16673TIP3    H171434   4.003   2.323   5.236 -0.0795 -0.3607 -1.0341
16673TIP3    H271435   3.894   2.299   5.338 -0.0392 -1.4713 -1.2463
16674TIP3   OH271436   3.182   4.538   1.712 -0.3221  0.2644 -0.1199
16674TIP3    H171437   3.147   4.627   1.721  1.4094  0.8489  1.4843
16674TIP3    H271438   3.183   4.503   1.801 -0.2791 -1.1046 -0.6281
16675TIP3   OH271439   6.559   1.303  16.464  0.4806 -0.1198 -0.3438
16675TIP3    H171440   6.639   1.310  16.412  0.6736 -0.1240 -0.0506
16675TIP3    H271441   6.570   1.223  16.515  0.8314  0.5074  0.5937
16676TIP3   OH271442   4.093   3.492  10.923  0.1947  0.5189  0.3265
16676TIP3    H171443   4.126   3.535  10.845  0.6274 -0.3882  0.0035
16676TIP3    H271444   4.000   3.517  10.926 -0.1118 -0.3176 -1.0967
16677TIP3   OH271445   3.168   2.520   5.256  0.4973 -0.1602  0.0418
16677TIP3    H171446   3.220   2.547   5.332  0.4265  1.0095 -0.3041
16677TIP3    H271447   3.159   2.425   5.265  1.3387 -0.1643  0.9538
16678TIP3   OH271448   3.255   2.991  14.589  0.2320 -0.5798  0.1568
16678TIP3    H171449   3.261   3.051  14.663 -2.7097  0.5643 -0.3759
16678TIP3    H271450   3.194   2.923  14.619  1.4753 -1.8837 -0.1727
16679TIP3   OH271451   3.263   5.079   4.594  0.0360 -0.2285  0.3236
16679TIP3    H171452   3.179   5.121   4.612 -0.3009 -0.8054  0.1219
16679TIP3    H271453   3.260   5.056   4.501  1.3004  1.6980 -0.2556
16680TIP3   OH271454   6.811   3.453   1.781 -0.1807 -0.5454 -0.4796
16680TIP3    H171455   6.760   3.514   1.835  0.2419 -2.3649  2.1692
16680TIP3    H271456   6.901   3.485   1.788 -0.2195 -0.3636 -0.7665
16681TIP3   OH271457   4.155   5.274   3.159 -0.2593  0.7033 -0.0498
16681TIP3    H171458   4.149   5.368   3.142  2.5037  0.6597 -1.9745
16681TIP3    H271459   4.132   5.233   3.076 -2.0273 -0.4285  0.9295
16682TIP3   OH271460   2.976   5.872   5.256  0.3596 -0.2190 -0.2940
16682TIP3    H171461   2.881   5.879   5.259  0.4149  0.3133  0.2923
16682TIP3    H271462   2.995   5.839   5.168 -0.4350 -1.5061 -0.0161
16683TIP3   OH271463   2.541   1.117   4.987  0.2063  0.2582 -0.0597
16683TIP3    H171464   2.585   1.201   4.978 -0.2983  0.5203 -0.1430
16683TIP3    H271465   2.571   1.065   4.912  0.2923  0.4671 -0.1699
16684TIP3   OH271466   4.007   3.433   4.721 -0.1772  0.0386  0.0320
16684TIP3    H171467   3.978   3.347   4.751  0.7596 -0.6039 -0.8415
16684TIP3    H271468   3.989   3.491   4.795 -2.3245 -0.5650  0.0452
16685TIP3   OH271469   3.468   1.610  14.419  0.3419 -0.0323 -0.7497
16685TIP3    H171470   3.520   1.605  14.338  0.6701 -0.9993 -0.4887
16685TIP3    H271471   3.423   1.526  14.423 -0.6559  0.5054 -0.5725
16686TIP3   OH271472   5.580   1.241   1.070  0.0000 -0.6545 -0.7766
16686TIP3    H171473   5.576   1.184   1.146 -2.3853  0.5908  0.1537
16686TIP3    H271474   5.671   1.269   1.065  0.4556 -1.7064  0.8992
16687TIP3   OH271475   2.375   4.639  11.299 -0.5762 -0.1322  0.3022
16687TIP3    H171476   2.324   4.567  11.339 -0.0349 -0.0217  1.2277
16687TIP3    H271477   2.440   4.595  11.245 -0.4532 -0.3363  0.6122
16688TIP3   OH271478   1.910   2.422   3.423 -0.6587 -0.0591  0.5312
16688TIP3    H171479   1.818   2.442   3.403 -0.3464  1.4030  0.4633
16688TIP3    H271480   1.940   2.496   3.475  0.9191  0.2469 -0.7347
16689TIP3   OH271481   3.645   3.921   3.723  0.4197  0.5801  0.2972
16689TIP3    H171482   3.598   3.948   3.644  0.8828 -0.6963 -0.4439
16689TIP3    H271483   3.612   3.833   3.741  0.2118  0.9139  1.6275
16690TIP3   OH271484   0.892   6.121   4.010 -0.3529 -0.1451  0.1896
16690TIP3    H171485   0.870   6.103   3.919 -1.0176 -1.7337  0.6309
16690TIP3    H271486   0.922   6.038   4.045 -0.7599  0.2624  1.5963
16691TIP3   OH271487   1.156   1.419   6.671 -0.1898  0.0001  0.3762
16691TIP3    H171488   1.060   1.418   6.664 -0.1880 -1.2730  0.3408
16691TIP3    H271489   1.178   1.510   6.691 -1.5690 -0.1324  2.8135
16692TIP3   OH271490   5.786   4.069   0.145 -0.1152  0.9795  0.3470
16692TIP3    H171491   5.726   4.139   0.171 -0.4754  0.4380  1.0018
16692TIP3    H271492   5.749   4.035   0.063 -0.1468  1.2959  0.2258
16693TIP3   OH271493   6.454   1.991   2.914  0.2392 -0.0557 -0.5431
16693TIP3    H171494   6.488   1.912   2.956 -0.2236  0.0751  0.0956
16693TIP3    H271495   6.514   2.060   2.944  0.8766 -0.2126 -1.4124
16694TIP3   OH271496   5.019   2.567   2.305 -0.8428  0.6728 -0.5395
16694TIP3    H171497   5.113   2.556   2.314 -1.2333 -1.3328  2.3780
16694TIP3    H271498   5.009   2.633   2.236  2.6482  1.0415 -0.8552
16695TIP3   OH271499   3.570   3.859   3.249  0.3574  0.0609  0.2952
16695TIP3    H171500   3.638   3.893   3.192  0.5018  0.1523  0.5209
16695TIP3    H271501   3.616   3.833   3.329  0.1138  0.2461  0.5007
16696TIP3   OH271502   5.017   6.390   1.042  0.1562  0.0353 -0.1717
16696TIP3    H171503   4.939   6.403   0.988 -0.1167  1.1986  0.4473
16696TIP3    H271504   4.983   6.350   1.123 -0.2095  2.4731  0.9890
16697TIP3   OH271505   6.403   2.268  11.514  0.9297 -0.0817  0.2919
16697TIP3    H171506   6.311   2.245  11.526  0.8923  0.0995  0.3508
16697TIP3    H271507   6.418   2.257  11.420  0.7619  0.2053  0.2306
16698TIP3   OH271508   5.801   4.408   3.361  0.3527  0.5325  0.5560
16698TIP3    H171509   5.876   4.446   3.315  1.6683  0.0984  2.2078
16698TIP3    H271510   5.747   4.483   3.386  0.2153  0.8513 -0.6354
16699TIP3   OH271511   1.047   3.653   5.483 -0.4935 -0.3570 -0.0980
16699TIP3    H171512   1.012   3.621   5.400 -0.2327 -2.2076  0.4668
16699TIP3    H271513   0.973   3.699   5.524 -1.2838 -1.2978 -0.4199
16700TIP3   OH271514   2.029   1.043   5.682  0.5390 -0.6061 -0.2547
16700TIP3    H171515   1.957   1.101   5.656 -0.3664 -1.9389 -0.8358
16700TIP3    H271516   2.043   0.987   5.606  3.5297  0.8415 -0.8964
16701TIP3   OH271517   1.750   4.163   0.801  0.5105  0.0711  0.5020
16701TIP3    H171518   1.738   4.227   0.871 -0.0607  0.0501  0.4306
16701TIP3    H271519   1.787   4.214   0.729  0.4544  0.2357  0.5889
16702TIP3   OH271520   2.665   2.288  12.846  0.0180  0.1815 -0.9091
16702TIP3    H171521   2.713   2.234  12.908 -0.9225 -0.5558 -0.7909
16702TIP3    H271522   2.573   2.271  12.866 -0.3048  1.5086 -1.1591
16703TIP3   OH271523   3.936   2.056   2.906 -0.0169 -0.5750  0.3556
16703TIP3    H171524   3.909   2.078   2.816 -1.2146 -0.1825  0.7899
16703TIP3    H271525   4.019   2.102   2.917  0.2656 -0.8235 -0.6338
16704TIP3   OH271526   4.407   2.365  10.916  0.0330  0.3807 -0.3349
16704TIP3    H171527   4.463   2.371  10.838 -0.3972 -0.8859 -0.7777
16704TIP3    H271528   4.354   2.444  10.914  1.1368  1.1477 -0.4331
16705TIP3   OH271529   0.143   4.689  13.547  0.1957 -0.2051  0.0300
16705TIP3    H171530   0.197   4.722  13.475  2.3822 -1.8055  0.8141
16705TIP3    H271531   0.150   4.594  13.541  0.6355 -0.3961  2.4205
16706TIP3   OH271532   2.735   5.839  13.083  0.6645  0.0248 -0.6163
16706TIP3    H171533   2.732   5.756  13.036 -3.8331 -0.1110 -0.5084
16706TIP3    H271534   2.737   5.815  13.175 -0.2096 -0.0028 -0.5961
16707TIP3   OH271535   2.338   5.332   1.695  0.2291 -0.1302  0.0531
16707TIP3    H171536   2.424   5.373   1.694  0.0767  0.2637 -1.9260
16707TIP3    H271537   2.280   5.397   1.733  0.5947  0.0686  0.2768
16708TIP3   OH271538   6.660   0.236  13.177  0.6964 -0.4957 -0.2546
16708TIP3    H171539   6.690   0.264  13.090  0.4978 -0.4630 -0.3129
16708TIP3    H271540   6.581   0.184  13.159  0.1867  0.1844 -0.0430
16709TIP3   OH271541   6.520   6.733  16.537 -0.5656  0.3621  0.3688
16709TIP3    H171542   6.517   6.645  16.574 -1.1213 -0.2328 -1.0627
16709TIP3    H271543   6.505   6.722  16.444  1.0238  1.8266 -0.1084
16710TIP3   OH271544   3.979   3.029  16.916 -0.5897  0.6620  0.0971
16710TIP3    H171545   3.927   2.956  16.883 -0.0120  0.8940 -1.4036
16710TIP3    H271546   4.067   2.994  16.926 -0.4816  0.9457  0.1602
16711TIP3   OH271547   6.035   5.288  16.543  0.2519 -0.8364  0.3947
16711TIP3    H171548   6.089   5.238  16.603  0.7288 -0.9896 -0.1588
16711TIP3    H271549   5.946   5.256  16.559  0.3222 -0.6578  1.2317
16712TIP3   OH271550   4.753   1.317  16.013  0.9794 -0.3007 -0.0928
16712TIP3    H171551   4.796   1.233  15.995  2.9897  0.4697  0.7784
16712TIP3    H271552   4.762   1.366  15.931 -0.3747 -0.9804 -0.6666
16713TIP3   OH271553   6.790   3.555  15.362  0.4713 -0.0415 -0.2580
16713TIP3    H171554   6.782   3.606  15.442 -1.4748 -1.5508  0.6124
16713TIP3    H271555   6.849   3.606  15.306 -0.6124  2.6599  0.8740
16714TIP3   OH271556   5.895   3.916   1.274 -0.0412 -0.3058  0.3713
16714TIP3    H171557   5.965   3.878   1.327  0.3693 -0.2218 -0.0978
16714TIP3    H271558   5.817   3.866   1.296  0.8975 -3.1006 -1.9600
16715TIP3   OH271559   2.398   3.888  13.817 -0.0744  0.9581 -0.0907
16715TIP3    H171560   2.429   3.885  13.726 -0.8912  0.8460 -0.3687
16715TIP3    H271561   2.311   3.850  13.814 -0.4813  1.7995  0.5844
16716TIP3   OH271562   0.639   2.779  13.144 -0.4586  0.2490 -0.0513
16716TIP3    H171563   0.556   2.816  13.113 -1.5573 -1.2296  0.9617
16716TIP3    H271564   0.620   2.750  13.233  1.1038 -0.3315  0.1231
16717TIP3   OH271565   2.909   3.314  11.803 -0.0186 -0.8143  0.0729
16717TIP3    H171566   2.836   3.375  11.796 -0.7734 -1.8385 -1.7630
16717TIP3    H271567   2.867   3.228  11.813  0.9737 -1.2747  0.4187
16718TIP3   OH271568   1.053   5.529  12.287  0.0833 -0.6471  0.0318
16718TIP3    H171569   1.067   5.437  12.266 -0.5676 -0.7600  0.0543
16718TIP3    H271570   1.138   5.570  12.276  0.7723 -1.5615  1.7008
16719TIP3   OH271571   6.000   3.086  14.284  0.4737 -0.2931 -0.7970
16719TIP3    H171572   6.088   3.121  14.266  0.8170 -1.5038 -1.6556
16719TIP3    H271573   5.944   3.130  14.221  0.6838 -0.4131 -1.0708
16720TIP3   OH271574   5.770   2.308  12.542 -0.8534 -0.0916  0.1001
16720TIP3    H171575   5.757   2.398  12.512 -0.2607  0.2434  0.8185
16720TIP3    H271576   5.780   2.257  12.461  2.0020  0.9832 -0.3487
16721TIP3   OH271577   1.564   1.230  16.999  0.1430 -0.9071  0.2530
16721TIP3    H171578   1.594   1.194  17.083  0.4036 -1.0176  0.1127
16721TIP3    H271579   1.509   1.305  17.024  0.2671 -0.9022  0.5203
16722TIP3   OH271580   4.076   3.143  15.789 -0.4225  0.0790  0.0780
16722TIP3    H171581   4.113   3.211  15.846 -0.4477  2.0913 -2.1458
16722TIP3    H271582   4.055   3.071  15.848 -1.1908  2.3215  2.7315
16723TIP3   OH271583   4.023   6.102   5.945  0.1005  0.2559 -0.3512
16723TIP3    H171584   3.992   6.189   5.969 -0.3479 -0.2606  1.0640
16723TIP3    H271585   4.015   6.051   6.026  0.3059 -1.1105 -1.1673
16724TIP3   OH271586   5.170   3.089  16.766  0.0792 -0.4133 -0.3916
16724TIP3    H171587   5.189   3.003  16.730  1.4482 -0.9085  1.3725
16724TIP3    H271588   5.128   3.072  16.850  0.9325  0.6134  0.2666
16725TIP3   OH271589   2.528   0.205  14.207 -0.0433  1.1280 -0.4903
16725TIP3    H171590   2.467   0.136  14.179  1.0801 -0.4384  0.7500
16725TIP3    H271591   2.580   0.164  14.276  1.5243  2.8498 -0.5913
16726TIP3   OH271592   4.787   4.321   0.897 -0.0076  0.5874  0.0901
16726TIP3    H171593   4.705   4.312   0.945 -0.6946  0.0584 -1.1188
16726TIP3    H271594   4.763   4.304   0.806  1.5452 -0.1588 -0.2169
16727TIP3   OH271595   3.081   6.762   1.574 -0.0105  0.6628  0.4627
16727TIP3    H171596   2.987   6.753   1.563 -0.1131  0.1238  1.6402
16727TIP3    H271597   3.104   6.697   1.640  1.5127 -0.6105 -1.2164
16728TIP3   OH271598   1.350   0.247  15.261 -0.3047  0.0976  0.3390
16728TIP3    H171599   1.388   0.176  15.210  0.1048  0.3349  0.3128
16728TIP3    H271600   1.390   0.238  15.348 -2.4484 -1.5178  1.2488
16729TIP3   OH271601   0.380   4.828   5.817 -0.7131 -0.5790  0.1047
16729TIP3    H171602   0.360   4.919   5.796  0.2935 -0.6931 -1.4211
16729TIP3    H271603   0.412   4.831   5.908  1.2698  0.9084 -0.5705
16730TIP3   OH271604   2.435   0.565  16.911 -0.8129  0.6401 -0.3653
16730TIP3    H171605   2.437   0.572  16.816 -2.7646  0.5841 -0.4549
16730TIP3    H271606   2.349   0.526  16.930 -0.2063  0.0752  1.3818
16731TIP3   OH271607   0.144   2.597  16.872 -0.7735  0.3254 -0.7253
16731TIP3    H171608   0.119   2.506  16.859 -0.0712  0.1430 -0.8191
16731TIP3    H271609   0.086   2.647  16.814 -0.9549 -0.0855 -0.8962
16732TIP3   OH271610   6.644   0.024   1.412 -0.1302  0.4760 -0.9581
16732TIP3    H171611   6.571   0.046   1.469  0.3836  2.0266 -0.8594
16732TIP3    H271612   6.722   0.042   1.465  0.3606  1.9402 -2.1067
16733TIP3   OH271613   1.120   0.259  16.648  0.3009  0.1567  0.0744
16733TIP3    H171614   1.186   0.190  16.638 -0.8934 -1.6380  3.1089
16733TIP3    H271615   1.170   0.334  16.681  1.1312 -0.5231  0.4219
16734TIP3   OH271616   4.154   2.279   4.273  0.1788  0.8024 -0.6049
16734TIP3    H171617   4.064   2.263   4.303  0.5464  1.6676  1.0624
16734TIP3    H271618   4.180   2.196   4.232 -0.8118 -0.0274  0.3788
16735TIP3   OH271619   0.579   3.347   2.351 -0.0401 -0.0395 -0.4731
16735TIP3    H171620   0.639   3.272   2.354  0.4104  0.3125 -0.5448
16735TIP3    H271621   0.614   3.402   2.281 -0.5593  0.0819 -0.6404
16736TIP3   OH271622   2.345   1.026   3.060  0.2612 -0.2814 -0.2463
16736TIP3    H171623   2.425   1.013   3.009  0.8526 -2.0821  1.0236
16736TIP3    H271624   2.289   0.952   3.035  1.1237 -2.0496  2.6036
16737TIP3   OH271625   5.568   5.146  14.987 -0.3940 -0.3833  0.5389
16737TIP3    H171626   5.639   5.157  15.051 -0.5215 -0.4090  0.6865
16737TIP3    H271627   5.488   5.150  15.040 -0.5597  0.9470  0.2157
16738TIP3   OH271628   3.854   6.315   2.691  0.6681 -0.7474  0.4786
16738TIP3    H171629   3.941   6.328   2.654 -0.2143  0.7109 -1.2298
16738TIP3    H271630   3.795   6.319   2.615 -0.7848 -3.4246  1.3375
16739TIP3   OH271631   3.288   0.312  11.874  0.6565 -0.0894  0.3285
16739TIP3    H171632   3.280   0.378  11.805  0.0849 -0.7280 -0.2304
16739TIP3    H271633   3.208   0.322  11.925  0.0927 -1.0003 -0.3529
16740TIP3   OH271634   6.714   2.094  14.030  0.3780  0.1776  0.8831
16740TIP3    H171635   6.698   2.000  14.019  0.5886  0.2670 -0.2859
16740TIP3    H271636   6.768   2.100  14.110  2.9662 -0.9903 -0.6541
16741TIP3   OH271637   4.283   6.209  12.610  0.1531  0.0954 -0.1785
16741TIP3    H171638   4.203   6.172  12.573 -0.7206  1.9539 -0.2861
16741TIP3    H271639   4.285   6.179  12.701 -1.5879  1.3035  0.3119
16742TIP3   OH271640   1.144   4.185  12.015 -0.1512  0.2717  0.4470
16742TIP3    H171641   1.109   4.259  12.065 -1.6474  1.1390 -1.7327
16742TIP3    H271642   1.206   4.224  11.955  0.8768 -0.6191  0.9043
16743TIP3   OH271643   4.398   6.367  14.075  0.3913  0.1071 -0.5371
16743TIP3    H171644   4.318   6.419  14.084 -0.0754 -0.1415 -2.8055
16743TIP3    H271645   4.420   6.370  13.982  1.2962 -2.3678 -0.4939
16744TIP3   OH271646   2.190   2.755  16.641  0.5255 -0.0190 -0.7698
16744TIP3    H171647   2.253   2.790  16.703 -1.1555  0.2140  0.8962
16744TIP3    H271648   2.176   2.665  16.669 -0.9873  0.3806 -0.1210
16745TIP3   OH271649   3.315   6.774   3.554  0.4023  0.0563  0.0840
16745TIP3    H171650   3.324   6.692   3.603 -1.4741 -0.1692  0.1165
16745TIP3    H271651   3.301   6.841   3.621  0.5719  0.1849 -0.0087
16746TIP3   OH271652   6.608   0.186   2.568  0.4275 -0.2284  0.4779
16746TIP3    H171653   6.521   0.153   2.589  1.3639 -2.5194  1.1152
16746TIP3    H271654   6.627   0.252   2.635 -1.0933  0.8861 -0.1517
16747TIP3   OH271655   1.826   3.234  12.813 -0.1333 -0.0419  0.3790
16747TIP3    H171656   1.869   3.151  12.791 -1.5502 -0.3920 -1.2466
16747TIP3    H271657   1.897   3.298  12.814  1.1076 -1.3324  2.3411
16748TIP3   OH271658   0.737   0.304   6.510  0.6213 -0.0024 -0.1896
16748TIP3    H171659   0.802   0.273   6.447  0.0102  1.7977 -1.7947
16748TIP3    H271660   0.785   0.363   6.567  0.4863  1.2684 -1.3299
16749TIP3   OH271661   5.198   4.786   2.075 -0.1449  0.2036 -0.1644
16749TIP3    H171662   5.126   4.783   2.138 -1.0909 -0.1026 -1.2298
16749TIP3    H271663   5.170   4.850   2.010  0.1793 -0.4810 -1.0031
16750TIP3   OH271664   1.991   3.311   2.488 -0.0498  0.4339  0.3737
16750TIP3    H171665   2.078   3.287   2.456  0.0024 -0.2014  0.9556
16750TIP3    H271666   1.951   3.357   2.415 -0.6943 -2.7026 -1.4620
16751TIP3   OH271667   6.472   1.188   1.984 -0.6551  0.2220  0.2757
16751TIP3    H171668   6.537   1.149   1.926 -1.2019 -0.7615  0.2918
16751TIP3    H271669   6.500   1.279   1.994  0.3426 -0.0110 -0.2326
16752TIP3   OH271670   0.379   3.303  11.025  0.0118 -0.8775 -0.6234
16752TIP3    H171671   0.345   3.213  11.023 -1.4007 -0.3725 -0.5722
16752TIP3    H271672   0.324   3.348  11.090  1.5207 -0.2725  0.2929
16753TIP3   OH271673   4.671   5.866   2.743 -0.8617  0.6660  0.1452
16753TIP3    H171674   4.749   5.919   2.762  0.6218 -1.8346  1.6432
16753TIP3    H271675   4.602   5.930   2.728  0.7708  3.0315  1.9113
16754TIP3   OH271676   2.571   0.884  14.954  0.4745 -0.2122 -0.8273
16754TIP3    H171677   2.550   0.963  15.003  1.1443 -0.9045  0.6258
16754TIP3    H271678   2.633   0.912  14.887  2.4922  0.1485  1.1053
16755TIP3   OH271679   4.544   5.494  14.103 -0.6104  0.0841 -0.5233
16755TIP3    H171680   4.583   5.423  14.051  0.7517 -0.6199  1.3115
16755TIP3    H271681   4.475   5.451  14.154  0.1425  0.0445  0.5094
16756TIP3   OH271682   4.327   5.809  15.144 -0.4900  0.0546  0.6067
16756TIP3    H171683   4.396   5.863  15.181 -0.0241 -0.1192  0.0024
16756TIP3    H271684   4.302   5.750  15.215  0.1294 -0.0242  0.7626
16757TIP3   OH271685   1.881   5.535  12.039  0.2375 -0.0495  0.6424
16757TIP3    H171686   1.920   5.450  12.059  5.1228  1.7791  0.2681
16757TIP3    H271687   1.871   5.578  12.124 -0.1042 -0.1789  0.6692
16758TIP3   OH271688   0.311   2.380  12.670 -0.3217  0.1147 -0.2232
16758TIP3    H171689   0.322   2.306  12.730 -2.4376 -0.0532  0.0571
16758TIP3    H271690   0.267   2.343  12.594  0.2866  0.7640 -0.9106
16759TIP3   OH271691   6.227   2.322  13.937 -0.5120  0.7187  0.0865
16759TIP3    H171692   6.251   2.249  13.995 -0.4407  1.6889  1.3174
16759TIP3    H271693   6.305   2.335  13.883 -0.6764 -0.3790 -0.4467
16760TIP3   OH271694   1.199   3.342   1.511 -0.0816  0.2723 -0.3664
16760TIP3    H171695   1.284   3.370   1.476  0.1410  0.2641  0.1675
16760TIP3    H271696   1.139   3.349   1.436  0.7790 -1.5697 -1.2982
16761TIP3   OH271697   6.016   2.150  15.796 -0.1375  0.1173  0.0844
16761TIP3    H171698   6.028   2.228  15.850 -3.1147  1.0271 -0.3634
16761TIP3    H271699   6.103   2.110  15.791  0.9789  2.0228  2.3885
16762TIP3   OH271700   0.073   2.347   6.069 -0.1583  0.3211 -0.5657
16762TIP3    H171701   0.037   2.290   6.138  0.2094 -0.7052 -1.1905
16762TIP3    H271702   0.105   2.424   6.115 -2.1681  0.7964  0.1437
16763TIP3   OH271703   6.016   3.843  11.856  0.6236 -0.3011 -1.0117
16763TIP3    H171704   6.069   3.782  11.907 -1.4548 -1.8587 -0.5837
16763TIP3    H271705   6.060   3.849  11.771  1.7980 -1.0267 -0.4747
16764TIP3   OH271706   4.169   0.610  15.666 -0.3460 -0.6144  0.9603
16764TIP3    H171707   4.107   0.578  15.731 -2.1114 -0.1348 -0.4041
16764TIP3    H271708   4.182   0.536  15.607 -1.4354 -0.0775 -0.0157
16765TIP3   OH271709   2.625   2.036  13.904 -0.0571  0.4658 -0.5399
16765TIP3    H171710   2.611   1.947  13.871  0.0776 -0.5440  1.9275
16765TIP3    H271711   2.544   2.082  13.882 -0.6437 -0.6304 -0.7453
16766TIP3   OH271712   3.458   5.820   3.087  0.1048 -0.2859  0.0694
16766TIP3    H171713   3.427   5.825   2.996 -1.0750 -0.8131  0.4301
16766TIP3    H271714   3.497   5.906   3.102 -2.1486  0.8606 -0.1007
16767TIP3   OH271715   0.099   4.141  13.590 -0.5519 -0.0856 -0.1154
16767TIP3    H171716   0.056   4.129  13.674  0.9544 -0.3364  0.6594
16767TIP3    H271717   0.193   4.143  13.611 -0.1494 -0.0096 -1.7684
16768TIP3   OH271718   3.582   1.479  13.253  0.6132 -0.7722  0.3224
16768TIP3    H171719   3.600   1.528  13.172  0.8391 -1.4436 -0.0407
16768TIP3    H271720   3.524   1.537  13.303  1.0634 -0.0294  0.0089
16769TIP3   OH271721   3.017   3.669  15.759  0.0951  0.0276 -0.1048
16769TIP3    H171722   2.973   3.673  15.844 -0.8751  0.7588 -0.6333
16769TIP3    H271723   3.107   3.693  15.778 -0.0546 -0.0510  0.7545
16770TIP3   OH271724   4.615   0.356  15.664  0.1425  0.0698 -0.8122
16770TIP3    H171725   4.695   0.307  15.685  1.4294  2.0184 -0.9056
16770TIP3    H271726   4.631   0.444  15.699 -2.5533  0.1675  0.3944
16771TIP3   OH271727   2.650   0.674   2.501 -0.5195  0.1395 -0.1944
16771TIP3    H171728   2.657   0.671   2.406  0.6722 -0.0458 -0.1131
16771TIP3    H271729   2.730   0.719   2.530 -0.7503 -0.0222  0.7327
16772TIP3   OH271730   4.386   5.678   2.633  0.7920  0.3398  0.2081
16772TIP3    H171731   4.474   5.645   2.614  1.6604  1.6557  1.7381
16772TIP3    H271732   4.369   5.743   2.565  0.0240 -1.4670 -1.4291
16773TIP3   OH271733   2.112   0.750  13.062  0.1872 -0.1884 -0.3622
16773TIP3    H171734   2.146   0.669  13.024 -1.0099 -1.2681  0.7529
16773TIP3    H271735   2.038   0.773  13.005  1.5318  1.0984 -1.6649
16774TIP3   OH271736   5.759   2.007  15.704  0.0290 -0.2085  0.0095
16774TIP3    H171737   5.752   2.019  15.609  0.0172  1.0734  0.1543
16774TIP3    H271738   5.848   2.036  15.725  0.9325 -2.7914  0.0999
16775TIP3   OH271739   4.289   4.853   1.778 -0.1656  0.3186 -0.0880
16775TIP3    H171740   4.236   4.910   1.724  0.0757  3.1172  2.3788
16775TIP3    H271741   4.228   4.816   1.842 -0.2279 -1.9706 -1.3456
16776TIP3   OH271742   2.157   3.319   4.918 -0.2802 -0.4262  0.2188
16776TIP3    H171743   2.080   3.276   4.955 -1.1125 -0.1165 -1.0784
16776TIP3    H271744   2.227   3.300   4.980 -1.0524 -2.0000  0.6781
16777TIP3   OH271745   3.087   3.373  14.295  0.7427 -0.0688  0.1998
16777TIP3    H171746   3.138   3.293  14.283  2.2146  0.7237  0.9764
16777TIP3    H271747   3.076   3.381  14.389  0.5032  0.5844  0.1207
16778TIP3   OH271748   2.912   5.427  12.761  0.3828  0.0474 -0.4184
16778TIP3    H171749   2.831   5.376  12.755  0.1358  0.3339  0.3579
16778TIP3    H271750   2.981   5.361  12.766 -0.0223 -0.2658  1.8783
16779TIP3   OH271751   6.570   1.532   2.660 -0.2186 -0.0648 -0.5510
16779TIP3    H171752   6.525   1.613   2.681 -0.0627 -0.6416  2.3941
16779TIP3    H271753   6.508   1.484   2.605 -1.3450  0.9840 -0.2418
16780TIP3   OH271754   3.238   3.860   1.864 -0.2818  0.3112 -0.2426
16780TIP3    H171755   3.212   3.793   1.801  0.2021 -0.0193 -0.0973
16780TIP3    H271756   3.155   3.893   1.899 -0.5462 -1.3344  0.8431
16781TIP3   OH271757   4.627   5.327  14.984 -0.1670 -0.2074  0.1028
16781TIP3    H171758   4.669   5.272  15.050  0.6047  0.2411 -0.0001
16781TIP3    H271759   4.576   5.267  14.930  0.3437 -0.7640  0.2326
16782TIP3   OH271760   2.908   5.820  12.338  0.4726 -0.1053 -0.3880
16782TIP3    H171761   2.892   5.726  12.346  0.5943  0.0388  3.7512
16782TIP3    H271762   2.992   5.834  12.382  0.0848  2.0192 -0.2186
16783TIP3   OH271763   6.072   0.503  15.941 -0.1391 -0.7237  0.0173
16783TIP3    H171764   6.035   0.426  15.898 -1.0509 -0.7819  0.8727
16783TIP3    H271765   6.147   0.470  15.989  0.2344 -0.8468 -0.6393
16784TIP3   OH271766   1.611   2.120   0.570 -0.0346  0.4294  0.5475
16784TIP3    H171767   1.602   2.144   0.662 -3.3107 -0.1972  0.4775
16784TIP3    H271768   1.522   2.109   0.538  1.0299 -1.8736 -2.0669
16785TIP3   OH271769   4.127   2.380  14.172  0.6810  0.4037  0.8542
16785TIP3    H171770   4.156   2.298  14.130  0.7885  0.3861  0.9619
16785TIP3    H271771   4.117   2.358  14.264  0.9189  0.5679  0.9191
16786TIP3   OH271772   0.892   0.660  12.662  0.3666 -0.0566 -0.1167
16786TIP3    H171773   0.925   0.747  12.683 -0.0855  0.1804 -0.3764
16786TIP3    H271774   0.830   0.640  12.732 -0.6545  0.4624 -0.8517
16787TIP3   OH271775   6.004   2.054  12.228  0.0712  0.0699 -0.4190
16787TIP3    H171776   6.063   1.980  12.245  0.3556  0.2043 -0.8223
16787TIP3    H271777   6.014   2.111  12.304  2.0219  1.1264 -1.4142
16788TIP3   OH271778   0.098   5.384  16.469  0.1038 -0.0535 -0.6851
16788TIP3    H171779   0.105   5.344  16.556 -2.0554 -0.8625 -0.8191
16788TIP3    H271780   0.168   5.344  16.418  1.0468  0.0135  0.5164
16789TIP3   OH271781   1.979   5.748  13.771  0.1856  0.5269 -0.3647
16789TIP3    H171782   1.945   5.829  13.809 -0.4597  0.1607 -0.1413
16789TIP3    H271783   1.933   5.679  13.817  1.0126  0.0154 -0.2934
16790TIP3   OH271784   3.719   3.800   1.905 -0.0772 -0.1435  0.8002
16790TIP3    H171785   3.636   3.768   1.939 -1.5864  2.4833 -0.1247
16790TIP3    H271786   3.760   3.843   1.980 -0.4759  0.2374  0.8041
16791TIP3   OH271787   1.521   1.708   5.931  0.2616  0.7763  0.2227
16791TIP3    H171788   1.476   1.715   5.847  0.9006 -0.8570 -0.2907
16791TIP3    H271789   1.450   1.705   5.996 -0.2517  1.4875 -0.2855
16792TIP3   OH271790   4.111   4.723   1.962  0.5075 -0.0377 -0.2638
16792TIP3    H171791   4.040   4.665   1.932  0.8425 -1.1304  0.9397
16792TIP3    H271792   4.071   4.774   2.033 -0.0164  1.8575 -1.8430
16793TIP3   OH271793   4.837   1.930  16.970  0.5107 -0.0873  0.0326
16793TIP3    H171794   4.881   1.906  17.051  0.4729  1.6166  0.5998
16793TIP3    H271795   4.744   1.929  16.993  0.1313 -3.4013 -1.0869
16794TIP3   OH271796   1.078   5.129  15.943 -0.5498  0.3299 -0.1235
16794TIP3    H171797   1.143   5.164  15.883  0.4260  0.5615  1.0482
16794TIP3    H271798   1.046   5.205  15.991  2.3745 -0.3279  3.2202
16795TIP3   OH271799   0.340   4.344  14.795  0.1955  0.2079 -0.3434
16795TIP3    H171800   0.249   4.334  14.764  0.2688 -2.9082  0.1309
16795TIP3    H271801   0.391   4.292  14.733  1.3795  0.2708  0.5601
16796TIP3   OH271802   3.069   2.781  14.529  0.2836  0.6160  0.2790
16796TIP3    H171803   3.056   2.869  14.495  2.0118  1.0033  0.5264
16796TIP3    H271804   3.143   2.747  14.479  1.5705  0.4433  2.1818
16797TIP3   OH271805   2.663   6.074   1.286 -0.2444 -0.0761  0.4991
16797TIP3    H171806   2.641   5.984   1.309  1.9340 -0.7588  0.1607
16797TIP3    H271807   2.716   6.066   1.207  1.0625  1.3624  1.1696
16798TIP3   OH271808   3.881   5.113   1.996  0.3841 -0.7396 -0.0847
16798TIP3    H171809   3.934   5.123   2.075 -0.9888 -2.7506  1.1968
16798TIP3    H271810   3.877   5.018   1.981 -0.5648 -0.4865 -1.7564
16799TIP3   OH271811   0.888   5.502   2.646 -0.2481 -0.0276 -0.4564
16799TIP3    H171812   0.889   5.561   2.570  0.7193  1.9558  0.9981
16799TIP3    H271813   0.796   5.478   2.657 -1.0516  2.8997  0.0677
16800TIP3   OH271814   5.746   1.298   5.961  0.5800 -0.0500  0.1334
16800TIP3    H171815   5.808   1.371   5.959  2.1728 -1.3334 -0.0622
16800TIP3    H271816   5.790   1.228   5.912 -1.4248 -0.7464 -0.7505
16801TIP3   OH271817   2.698   1.298  16.835 -0.4511 -0.1303 -0.7701
16801TIP3    H171818   2.630   1.352  16.795 -0.7014  0.1674  0.0424
16801TIP3    H271819   2.775   1.309  16.779 -1.4201 -1.5095 -2.4837
16802TIP3   OH271820   5.787   5.971   0.550  0.0053  0.5015 -0.3927
16802TIP3    H171821   5.759   5.881   0.565 -0.3272  0.5248 -0.8786
16802TIP3    H271822   5.859   5.964   0.488 -1.5116  0.7134 -2.2742
16803TIP3   OH271823   1.392   3.661  11.691  0.0379  0.1139 -0.0031
16803TIP3    H171824   1.478   3.661  11.650  1.4859  0.7849  2.7806
16803TIP3    H271825   1.336   3.708  11.629  1.3468 -1.2810 -2.3883
16804TIP3   OH271826   1.227   3.161  14.723  0.0222  0.1879  0.3410
16804TIP3    H171827   1.317   3.176  14.753  0.3580  0.3857 -0.7499
16804TIP3    H271828   1.235   3.144  14.630 -0.9878 -0.7097  0.3958
16805TIP3   OH271829   3.878   4.821   1.595  0.4175 -0.1964 -0.4743
16805TIP3    H171830   3.937   4.826   1.520  2.9209 -1.1728  1.2823
16805TIP3    H271831   3.836   4.735   1.588  1.9926 -1.0561  0.0941
16806TIP3   OH271832   2.033   1.955  11.553  0.4983 -0.0705  0.0929
16806TIP3    H171833   2.019   1.893  11.624  0.3433  0.7264  0.7808
16806TIP3    H271834   1.949   2.002  11.546  0.0972 -0.9423 -1.4313
16807TIP3   OH271835   2.705   1.914  16.843  0.2586 -0.0299 -0.3190
16807TIP3    H171836   2.658   1.870  16.914  1.1441 -0.2976  0.1255
16807TIP3    H271837   2.672   2.003  16.844  0.8256  0.1954  0.9890
16808TIP3   OH271838   2.246   2.807   5.952  0.2249  0.0003 -0.3532
16808TIP3    H171839   2.242   2.745   6.025  0.0626 -0.7757 -0.9997
16808TIP3    H271840   2.316   2.775   5.896 -0.4328 -0.1214 -1.1415
16809TIP3   OH271841   5.735   1.437  15.723  0.1728 -0.5862  0.0561
16809TIP3    H171842   5.819   1.437  15.676  1.1762 -2.3063  1.7369
16809TIP3    H271843   5.753   1.393  15.805 -2.4247 -1.0663  0.4626
16810TIP3   OH271844   5.382   4.795  16.014 -0.3930  0.1142 -0.0952
16810TIP3    H171845   5.369   4.880  16.057  0.6851  0.2789 -0.0726
16810TIP3    H271846   5.344   4.806  15.927 -0.9876  0.3461  0.1795
16811TIP3   OH271847   2.750   3.518  14.180 -0.4582 -0.1633  0.2773
16811TIP3    H171848   2.665   3.560  14.195 -0.8933 -0.2532 -1.6163
16811TIP3    H271849   2.730   3.426  14.169 -0.0853 -0.2183  0.0325
16812TIP3   OH271850   4.663   6.682   4.940  0.1940  0.4007 -0.2100
16812TIP3    H171851   4.682   6.606   4.886  0.8229  0.3052  0.1276
16812TIP3    H271852   4.579   6.715   4.908  0.6753  0.5004 -1.4090
16813TIP3   OH271853   2.189   0.808  14.317  0.1910  0.0077  0.4230
16813TIP3    H171854   2.220   0.722  14.345  0.3620 -0.4654 -1.1184
16813TIP3    H271855   2.199   0.807  14.222 -2.9261  0.4687 -0.0074
16814TIP3   OH271856   3.005   4.180  14.109  0.3503  0.0964 -0.3218
16814TIP3    H171857   3.094   4.147  14.124 -0.6981 -2.7688  0.1600
16814TIP3    H271858   2.967   4.189  14.196 -0.0982  0.5112 -0.5574
16815TIP3   OH271859   5.667   2.030  15.436  0.3308 -0.0541  0.0941
16815TIP3    H171860   5.577   2.010  15.465  0.0301  0.9716 -0.0897
16815TIP3    H271861   5.702   1.946  15.406 -0.4353 -0.5399  0.5198
16816TIP3   OH271862   1.987   2.944   2.351 -0.3306 -0.4065 -0.0954
16816TIP3    H171863   1.895   2.920   2.359 -0.2262 -0.3873  1.3521
16816TIP3    H271864   1.986   3.022   2.294 -1.6666  1.9734  2.8835
16817TIP3   OH271865   6.587   4.617   1.258  1.0397  0.7533  0.6774
16817TIP3    H171866   6.594   4.528   1.292  0.4984  0.9990  1.4398
16817TIP3    H271867   6.555   4.606   1.168 -0.3716  0.2295  1.2180
16818TIP3   OH271868   5.568   0.032   5.634 -0.1506 -0.5680 -0.3784
16818TIP3    H171869   5.531   0.010   5.720 -1.7232  0.2816 -0.8097
16818TIP3    H271870   5.645  -0.025   5.627  0.3044 -0.3309  1.7873
16819TIP3   OH271871   2.213   0.459   1.863 -0.1296 -0.4902 -0.3179
16819TIP3    H171872   2.294   0.511   1.869 -0.4862  0.1686 -0.9620
16819TIP3    H271873   2.224   0.390   1.927  0.3027  0.4817  0.6922
16820TIP3   OH271874   6.760   1.884   4.968 -0.0072 -0.1800  0.1603
16820TIP3    H171875   6.760   1.940   5.046 -0.0813  0.0230  0.0171
16820TIP3    H271876   6.830   1.920   4.914 -0.2878  0.0012 -0.0898
16821TIP3   OH271877   2.276   0.242   3.636  0.3255 -0.7034 -0.1555
16821TIP3    H171878   2.295   0.150   3.653  0.3320 -0.3360  2.0032
16821TIP3    H271879   2.264   0.246   3.541  0.3670 -2.9112 -0.3069
16822TIP3   OH271880   3.747   1.144  13.773  0.0347  0.0735  0.4093
16822TIP3    H171881   3.816   1.165  13.710  0.4301 -0.2752  0.7239
16822TIP3    H271882   3.755   1.212  13.840  0.5660 -0.4003  0.8338
16823TIP3   OH271883   3.928   2.646  16.766 -0.3641  0.0458  0.6221
16823TIP3    H171884   3.884   2.676  16.845 -0.5552 -0.8322  0.8558
16823TIP3    H271885   4.013   2.614  16.797  0.5045  1.7892  0.1700
16824TIP3   OH271886   0.329   1.372  14.054 -0.1489  0.2401 -0.2108
16824TIP3    H171887   0.349   1.425  13.977  0.1961 -1.3041 -1.2377
16824TIP3    H271888   0.406   1.381  14.110  0.0636  0.5254 -0.5470
16825TIP3   OH271889   3.903   1.450   3.969  0.0037 -0.1785 -0.1206
16825TIP3    H171890   3.821   1.491   3.939  0.0056 -0.0076  0.1006
16825TIP3    H271891   3.959   1.448   3.892 -0.2800 -0.4744 -0.3212
16826TIP3   OH271892   3.402   6.333   1.280 -0.9218  0.6777  0.4215
16826TIP3    H171893   3.479   6.343   1.337 -0.2524 -2.2030  0.1928
16826TIP3    H271894   3.328   6.331   1.341 -1.0479  4.1811  0.6014
16827TIP3   OH271895   5.728   5.529   5.577  0.2205 -0.0832 -0.4811
16827TIP3    H171896   5.633   5.525   5.564  0.1154 -1.2325  0.4548
16827TIP3    H271897   5.750   5.621   5.566 -0.8925  0.0934 -1.4103
16828TIP3   OH271898   5.531   2.512   2.197  0.8062 -0.6571 -0.3313
16828TIP3    H171899   5.482   2.522   2.278 -0.5937 -0.1457 -1.1977
16828TIP3    H271900   5.622   2.523   2.222  0.4458 -0.9918  1.2388
16829TIP3   OH271901   3.587   6.084  14.474  0.2148  0.0612 -0.0744
16829TIP3    H171902   3.670   6.074  14.426  0.5341  0.2144  0.4453
16829TIP3    H271903   3.520   6.071  14.407  0.6577  1.0823 -0.7443
16830TIP3   OH271904   4.486   5.562   5.495 -0.5135 -0.0766 -1.2026
16830TIP3    H171905   4.465   5.480   5.450 -1.9587 -0.3093 -0.1673
16830TIP3    H271906   4.541   5.535   5.569 -0.6421 -0.0615 -1.1018
16831TIP3   OH271907   3.065   5.244  14.443 -0.2868 -0.0064  0.2107
16831TIP3    H171908   3.071   5.307  14.371 -0.3093 -0.2632 -0.0150
16831TIP3    H271909   3.079   5.159  14.402 -1.5673 -0.2728  0.2825
16832TIP3   OH271910   6.589   2.218  16.426  0.2704 -0.5894  0.1843
16832TIP3    H171911   6.594   2.155  16.498 -0.1395 -1.4262 -0.4887
16832TIP3    H271912   6.517   2.277  16.451 -1.2114 -2.0596 -0.4017
16833TIP3   OH271913   4.143   5.062  15.240  0.0568  0.2684  0.6731
16833TIP3    H171914   4.158   5.130  15.305  0.5685  1.2235 -0.3984
16833TIP3    H271915   4.231   5.033  15.215  0.0012  1.5099 -1.1752
16834TIP3   OH271916   0.978   1.685   6.516 -0.2000  0.1651  0.3212
16834TIP3    H171917   1.047   1.683   6.582 -0.2754  0.6037  0.4171
16834TIP3    H271918   0.959   1.779   6.505  1.1038  0.2554 -1.6659
16835TIP3   OH271919   6.537   2.921  13.429  0.0070  0.1340 -0.4432
16835TIP3    H171920   6.558   2.986  13.363  0.6496  0.2507 -0.1251
16835TIP3    H271921   6.604   2.853  13.418 -0.0920 -0.0119 -0.1418
16836TIP3   OH271922   4.182   2.572   0.040  0.4533  0.4449 -0.1925
16836TIP3    H171923   4.159   2.495   0.092  0.2003  1.3594  1.0828
16836TIP3    H271924   4.274   2.588   0.061  0.7597  0.0069 -1.1212
16837TIP3   OH271925   5.796   5.796  16.335 -0.9889  0.4824  0.4933
16837TIP3    H171926   5.834   5.786  16.247 -1.3075 -0.4083  0.4433
16837TIP3    H271927   5.844   5.869  16.373  1.5948 -1.2116  0.8193
16838TIP3   OH271928   4.431   2.517   0.180 -0.2904 -0.3455 -0.5467
16838TIP3    H171929   4.412   2.560   0.264 -0.4982 -0.2777 -0.6269
16838TIP3    H271930   4.438   2.424   0.202  1.7716 -0.1275 -0.0990
16839TIP3   OH271931   0.424   3.023  17.028  0.7228  0.3414 -0.3138
16839TIP3    H171932   0.392   2.998  16.941 -0.6934  0.2199  0.2006
16839TIP3    H271933   0.422   3.119  17.027  2.1797  0.3816 -0.9083
16840TIP3   OH271934   0.653   6.152  12.192  0.8241  0.0783  0.1369
16840TIP3    H171935   0.743   6.168  12.165  0.2338  1.3553 -1.2124
16840TIP3    H271936   0.654   6.163  12.287  2.1574 -0.3581  0.1962
16841TIP3   OH271937   4.827   0.911   5.655  0.1440  0.1623  0.2113
16841TIP3    H171938   4.788   0.838   5.607 -0.7427  0.8651 -0.1629
16841TIP3    H271939   4.754   0.971   5.671  0.5442  0.2461  1.8955
16842TIP3   OH271940   4.767   1.153   3.284 -0.1229  0.0004  0.4567
16842TIP3    H171941   4.763   1.124   3.193 -1.7542 -0.4367  0.6460
16842TIP3    H271942   4.748   1.247   3.280 -0.8490 -0.1490  0.4077
16843TIP3   OH271943   3.474   6.126  13.690  0.4928 -0.2923 -0.2952
16843TIP3    H171944   3.401   6.067  13.676  0.9863 -0.5591 -1.9972
16843TIP3    H271945   3.552   6.073  13.669  1.0777  0.3623  0.1719
16844TIP3   OH271946   4.070   3.903  14.837 -0.2331 -0.2074  0.2532
16844TIP3    H171947   4.141   3.863  14.787 -1.4704 -1.5553 -0.5044
16844TIP3    H271948   3.993   3.894  14.781 -0.8295  2.2386  0.5633
16845TIP3   OH271949   6.801   6.465  15.704  0.4921  0.1036  0.1128
16845TIP3    H171950   6.800   6.417  15.621 -3.5874 -1.4425  0.8634
16845TIP3    H271951   6.820   6.555  15.679  0.3665 -0.4857 -2.3628
16846TIP3   OH271952   5.302   3.298  12.409 -1.1179 -0.1810 -0.1348
16846TIP3    H171953   5.351   3.219  12.389 -2.5539 -1.1299 -0.0277
16846TIP3    H271954   5.342   3.366  12.354  1.4547 -0.4527  1.2375
16847TIP3   OH271955   6.043   5.212  13.748 -0.4089 -0.5611 -0.0633
16847TIP3    H171956   6.108   5.149  13.780  0.7474  0.8125  0.3795
16847TIP3    H271957   5.982   5.159  13.696 -0.3386 -2.2979  1.4887
16848TIP3   OH271958   3.625   6.707  13.528  0.6353 -0.4295 -0.4977
16848TIP3    H171959   3.578   6.650  13.589  1.0201 -0.5316 -0.2945
16848TIP3    H271960   3.714   6.672  13.526  0.8008 -0.0086 -0.5892
16849TIP3   OH271961   3.104   0.248   1.257  0.0900  0.1392 -0.3061
16849TIP3    H171962   3.035   0.288   1.309 -0.0034  1.4261 -1.3837
16849TIP3    H271963   3.158   0.202   1.321 -0.7968  0.5225  0.7504
16850TIP3   OH271964   3.458   5.411   1.793  0.0186 -0.0485 -0.1098
16850TIP3    H171965   3.477   5.370   1.877 -2.5264 -1.5636 -0.1548
16850TIP3    H271966   3.449   5.337   1.732  0.4087  0.9338 -1.4008
16851TIP3   OH271967   6.213   4.471  11.323 -0.2082 -0.3712  0.1938
16851TIP3    H171968   6.130   4.448  11.282  1.0114 -1.9067 -1.5797
16851TIP3    H271969   6.257   4.387  11.337  2.4068  0.4532 -2.0574
16852TIP3   OH271970   3.153   0.211  12.459 -0.1745  0.1872  0.3789
16852TIP3    H171971   3.181   0.233  12.370 -2.0698 -0.5485 -0.4450
16852TIP3    H271972   3.183   0.285  12.512  1.8442  0.1906 -0.6620
16853TIP3   OH271973   3.719   1.954  11.184 -0.3118 -0.5017 -0.6581
16853TIP3    H171974   3.780   2.010  11.232 -0.4954 -1.8220  1.2790
16853TIP3    H271975   3.759   1.942  11.098  0.2455  1.6675 -0.7560
16854TIP3   OH271976   3.245   6.315   3.592  0.1848  0.0728  0.5455
16854TIP3    H171977   3.331   6.342   3.624 -0.1189 -0.5001  1.9246
16854TIP3    H271978   3.232   6.228   3.628 -1.1986  0.3713  0.8434
16855TIP3   OH271979   4.408   3.643  12.039  0.4065 -0.3316 -0.8867
16855TIP3    H171980   4.385   3.591  11.962 -0.8375  0.3396 -0.9860
16855TIP3    H271981   4.352   3.610  12.108  1.1758 -0.6021 -0.3857
16856TIP3   OH271982   5.653   2.653   1.215 -0.1092  0.3084 -0.4530
16856TIP3    H171983   5.700   2.709   1.154  1.2529  1.1619  1.3061
16856TIP3    H271984   5.670   2.691   1.301 -2.7787 -0.2668  0.4167
16857TIP3   OH271985   3.208   0.078  11.522  0.4309  0.2345  0.1246
16857TIP3    H171986   3.163   0.075  11.437  0.8854  1.6874 -0.2004
16857TIP3    H271987   3.281   0.017  11.512  0.5760  0.5169 -0.5976
16858TIP3   OH271988   2.748   0.541  15.532 -0.0256 -0.4364 -0.5394
16858TIP3    H171989   2.748   0.637  15.536  0.7936 -0.4575  1.5794
16858TIP3    H271990   2.770   0.520  15.441  0.0459  1.3823 -0.9743
16859TIP3   OH271991   2.309   4.474  15.518 -0.0541 -0.4779  0.2592
16859TIP3    H171992   2.239   4.460  15.455 -1.3462 -0.1230  1.5622
16859TIP3    H271993   2.279   4.432  15.599  0.5375  0.9459  1.2832
16860TIP3   OH271994   5.683   5.071  13.061 -0.0959 -0.3748  0.6636
16860TIP3    H171995   5.651   4.989  13.097  1.7145 -0.8159  1.4037
16860TIP3    H271996   5.637   5.139  13.110  1.5241 -0.9648  3.2265
16861TIP3   OH271997   3.149   6.210   1.482  1.0418 -0.0158 -0.4251
16861TIP3    H171998   3.091   6.254   1.545  0.7240 -1.1956  0.1318
16861TIP3    H271999   3.102   6.214   1.399  0.9704  0.6008 -0.3584
16862TIP3   OH272000   5.559   5.927   5.625 -0.4080 -0.6868  0.5163
16862TIP3    H172001   5.490   5.915   5.690  0.5550  2.0265  2.2308
16862TIP3    H272002   5.637   5.891   5.666 -0.2242 -1.0087 -0.1121
16863TIP3   OH272003   0.211   6.035   4.173  0.5254  0.5426  0.4906
16863TIP3    H172004   0.270   6.056   4.100 -1.0920  1.8530 -0.5159
16863TIP3    H272005   0.193   6.120   4.214 -3.8714  1.0290 -1.8559
16864TIP3   OH272006   0.497   2.394   6.795  0.1589 -0.0610 -0.0896
16864TIP3    H172007   0.525   2.306   6.770 -0.2161 -1.0521  2.6156
16864TIP3    H272008   0.406   2.399   6.766  0.0716 -0.7219  0.0501
16865TIP3   OH272009   6.524   3.505  13.764 -0.3060 -0.1656  0.1008
16865TIP3    H172010   6.578   3.440  13.809 -2.2895 -2.3732 -0.5084
16865TIP3    H272011   6.478   3.550  13.834  0.5099  0.0614  0.5031
16866TIP3   OH272012   2.997   6.664   4.574 -0.4236 -0.5452  0.0345
16866TIP3    H172013   2.915   6.677   4.527 -1.6487 -0.0670  2.1694
16866TIP3    H272014   2.981   6.699   4.662  2.4186  0.5714  0.2348
16867TIP3   OH272015   1.620   4.206   3.785  0.2824 -0.3320  0.0641
16867TIP3    H172016   1.582   4.136   3.838 -0.9569  0.1573 -0.1510
16867TIP3    H272017   1.590   4.287   3.826  0.4930  0.0682 -0.5515
16868TIP3   OH272018   5.446   2.356   1.013  0.1837  0.4517 -0.4577
16868TIP3    H172019   5.448   2.353   0.918 -0.1472  1.0413 -0.4897
16868TIP3    H272020   5.530   2.394   1.038  0.6349 -0.5199 -0.4673
16869TIP3   OH272021   1.808   0.588   4.343 -0.2798  0.0768 -0.4788
16869TIP3    H172022   1.894   0.629   4.358  0.9082 -2.1433 -0.8518
16869TIP3    H272023   1.805   0.571   4.249 -1.1613  0.1541 -0.4726
16870TIP3   OH272024   5.988   6.726   4.760 -0.4112  0.0016  0.1601
16870TIP3    H172025   6.075   6.692   4.782  0.5685  1.4408 -1.2072
16870TIP3    H272026   5.933   6.648   4.753  0.9288 -1.0078  0.4039
16871TIP3   OH272027   5.871   3.620  14.748  0.1678 -0.1416 -0.2469
16871TIP3    H172028   5.852   3.692  14.688  0.0916  0.8594  0.9401
16871TIP3    H272029   5.939   3.570  14.703  2.2175  2.1886 -0.0042
16872TIP3   OH272030   4.331   4.105   4.243  0.0452  0.4097  0.2739
16872TIP3    H172031   4.380   4.173   4.197 -0.0924 -0.4284 -1.1402
16872TIP3    H272032   4.398   4.057   4.292  0.5572 -0.1989 -0.9788
16873TIP3   OH272033   4.808   3.956  13.573 -0.3710 -0.3111 -0.0227
16873TIP3    H172034   4.801   4.051  13.563  0.5867 -0.2779 -0.5651
16873TIP3    H272035   4.810   3.942  13.667  2.9722  0.5734  0.1925
16874TIP3   OH272036   2.961   3.363  11.243  0.3639 -0.5613  0.3366
16874TIP3    H172037   3.048   3.357  11.283  0.4498 -2.1336 -0.0263
16874TIP3    H272038   2.970   3.317  11.159 -0.8769 -0.9415  0.3977
16875TIP3   OH272039   6.592   4.770   2.232  0.7722  0.2816  0.4094
16875TIP3    H172040   6.613   4.819   2.153  1.9250  1.1646  1.2254
16875TIP3    H272041   6.552   4.834   2.291 -1.8704 -0.7603 -0.0742
16876TIP3   OH272042   1.864   2.561   1.450  0.1326 -0.5043  0.0787
16876TIP3    H172043   1.789   2.523   1.405  1.4496 -1.6542 -1.2414
16876TIP3    H272044   1.916   2.486   1.477  1.3888  0.2925 -0.0632
16877TIP3   OH272045   3.971   4.568   2.567 -0.3182 -0.4042 -0.5275
16877TIP3    H172046   3.933   4.556   2.654 -0.6417  1.3076 -0.3933
16877TIP3    H272047   4.049   4.513   2.567  0.0039  0.0147  1.0556
16878TIP3   OH272048   2.358   5.377   3.486 -0.4014  0.1097 -0.6338
16878TIP3    H172049   2.414   5.454   3.476  0.3815 -0.3392  0.1289
16878TIP3    H272050   2.294   5.403   3.552 -0.3552  0.2268 -0.6336
16879TIP3   OH272051   0.034   4.639   1.035  0.4274  0.3912 -0.0832
16879TIP3    H172052  -0.027   4.645   0.961  1.9504 -0.6787 -1.5026
16879TIP3    H272053   0.062   4.548   1.035 -0.9070 -0.1336  3.0366
16880TIP3   OH272054   3.665   0.564  14.017  0.0981 -0.1285  0.2671
16880TIP3    H172055   3.753   0.602  14.024  1.2506 -2.5548 -0.1626
16880TIP3    H272056   3.649   0.525  14.103 -1.2410  1.5154  0.8341
16881TIP3   OH272057   0.968   5.028   5.928  0.8254  0.7272  0.3194
16881TIP3    H172058   0.962   5.108   5.876 -1.3137  0.1308 -0.4701
16881TIP3    H272059   0.877   5.005   5.946  1.3981 -1.4218  0.7055
16882TIP3   OH272060   5.743   6.587   0.728  0.3143 -0.0017  0.0331
16882TIP3    H172061   5.751   6.509   0.783  1.9780 -0.4810 -0.8249
16882TIP3    H272062   5.695   6.558   0.651 -3.2467  0.9823  1.6571
16883TIP3   OH272063   1.117   0.258   0.811 -0.2244 -0.1371  0.0722
16883TIP3    H172064   1.077   0.177   0.841  0.3280 -0.5190 -0.1986
16883TIP3    H272065   1.105   0.319   0.883 -0.0185 -0.6744  0.5709
16884TIP3   OH272066   1.616   2.467  14.190 -0.5369  0.1488 -0.1827
16884TIP3    H172067   1.643   2.383  14.152 -0.0036 -1.6940  3.7048
16884TIP3    H272068   1.661   2.469  14.275 -0.0487  4.7465 -0.3199
16885TIP3   OH272069   6.117   4.970  13.337  0.3678  0.3465  0.2153
16885TIP3    H172070   6.129   4.947  13.429  0.3499 -0.5455  0.0054
16885TIP3    H272071   6.085   4.889  13.296 -3.4691  1.7046  0.1497
16886TIP3   OH272072   6.177   2.660   6.099  0.5236  0.3515 -0.6100
16886TIP3    H172073   6.148   2.748   6.074  1.5557  1.0719  0.5954
16886TIP3    H272074   6.107   2.626   6.155  0.5232  0.7937 -0.3341
16887TIP3   OH272075   5.429   0.071  14.394 -0.2220  0.0169 -0.3179
16887TIP3    H172076   5.342   0.108  14.385  0.1095  1.6035  2.1339
16887TIP3    H272077   5.418  -0.022  14.373 -2.5859  0.0760  0.3645
16888TIP3   OH272078   0.570   6.626   0.224  0.0769 -0.1333  0.0007
16888TIP3    H172079   0.629   6.607   0.297  1.4207  0.2728 -0.9409
16888TIP3    H272080   0.488   6.582   0.247  1.3513 -2.4263  0.4244
16889TIP3   OH272081   5.725   2.883   6.444 -0.1270 -0.4278 -0.0309
16889TIP3    H172082   5.699   2.967   6.481 -0.9598 -0.4512 -0.5462
16889TIP3    H272083   5.792   2.905   6.379 -0.7843 -0.1002 -0.6011
16890TIP3   OH272084   0.650   4.812  11.897 -0.1544  0.2354  0.3468
16890TIP3    H172085   0.650   4.720  11.925 -1.6604 -0.5927 -2.0507
16890TIP3    H272086   0.707   4.856  11.960 -1.5341 -1.7934  3.2528
16891TIP3   OH272087   1.812   5.525  13.911 -0.1060  0.0860  0.2320
16891TIP3    H172088   1.856   5.560  13.988 -1.5301  0.1239  1.0536
16891TIP3    H272089   1.719   5.540  13.927 -0.3772  1.9029 -2.3813
16892TIP3   OH272090   2.419   4.777   2.944 -0.0270  0.2013  0.0490
16892TIP3    H172091   2.436   4.771   2.850  0.3255 -1.1807  0.1706
16892TIP3    H272092   2.368   4.698   2.963  0.5228  0.1038  1.1426
16893TIP3   OH272093   6.263   3.057  15.626  0.1347  0.1628 -0.9084
16893TIP3    H172094   6.225   3.027  15.709  0.5789  2.1482  0.0736
16893TIP3    H272095   6.358   3.055  15.642  0.3243 -1.1006 -2.0088
16894TIP3   OH272096   6.323   3.728   3.514 -0.2541  0.0280 -0.7763
16894TIP3    H172097   6.370   3.782   3.577 -0.9361 -0.0962 -0.1522
16894TIP3    H272098   6.354   3.639   3.529 -0.1210  0.0542 -0.8931
16895TIP3   OH272099   3.535   2.368  15.593  0.4120 -0.1396 -0.4757
16895TIP3    H172100   3.494   2.293  15.551 -0.7241 -0.1767  0.6302
16895TIP3    H272101   3.584   2.331  15.666 -0.4567  0.2021  0.2996
16896TIP3   OH272102   5.406   0.268   5.072 -0.7775 -0.3486 -0.3532
16896TIP3    H172103   5.485   0.221   5.099  0.7161  0.7846 -2.4998
16896TIP3    H272104   5.390   0.331   5.143  1.9436  1.3122 -1.0909
16897TIP3   OH272105   5.778   3.225  15.563 -0.4654 -0.2112  0.3322
16897TIP3    H172106   5.810   3.200  15.477  0.2503 -2.3329  1.1460
16897TIP3    H272107   5.843   3.287  15.596 -1.0311  1.0465 -0.8128
16898TIP3   OH272108   2.727   1.555   0.072 -0.4897  0.1856  0.0790
16898TIP3    H172109   2.776   1.554   0.154 -1.1460 -0.0080  0.4837
16898TIP3    H272110   2.696   1.646   0.064  0.1907  0.3805 -0.3337
16899TIP3   OH272111   0.537   0.828  12.667 -0.3619 -0.0237  0.2323
16899TIP3    H172112   0.575   0.824  12.580  1.1559 -0.7735  0.8898
16899TIP3    H272113   0.471   0.758  12.669 -0.4970  0.0896 -0.3516
16900TIP3   OH272114   5.261   4.807  16.949  0.1984 -0.5030 -0.4413
16900TIP3    H172115   5.270   4.896  16.913 -2.6153 -0.2512 -0.7746
16900TIP3    H272116   5.181   4.811  17.001 -0.1787 -2.9268 -0.7174
16901TIP3   OH272117   1.460   0.369  15.019 -0.3099  0.5221 -0.2813
16901TIP3    H172118   1.546   0.390  15.055 -0.3526  1.9024 -0.9205
16901TIP3    H272119   1.444   0.279  15.047  1.6685 -0.0450 -0.8102
16902TIP3   OH272120   6.748   4.720  13.383  0.0194 -0.3661  0.2876
16902TIP3    H172121   6.790   4.715  13.468 -0.1689 -1.8960  0.3096
16902TIP3    H272122   6.660   4.684  13.397 -0.0738 -0.4749 -0.5215
16903TIP3   OH272123   5.972   1.038   0.776  0.1474  0.6281 -0.0622
16903TIP3    H172124   5.921   1.117   0.792 -1.7638 -0.6154  0.3820
16903TIP3    H272125   6.063   1.064   0.793 -0.3956  2.7324 -0.0788
16904TIP3   OH272126   0.687   5.548   4.731 -0.1980 -0.3341  0.7606
16904TIP3    H172127   0.611   5.564   4.675  0.6962 -0.9312 -0.7016
16904TIP3    H272128   0.705   5.632   4.772 -1.7279 -0.2281  1.2575
16905TIP3   OH272129   6.363   5.453  12.706 -0.1013  0.3540 -0.3340
16905TIP3    H172130   6.285   5.398  12.698 -0.1968  0.5759 -0.9907
16905TIP3    H272131   6.435   5.397  12.676  0.1463 -0.1541  1.1033
16906TIP3   OH272132   4.805   6.563  14.922 -0.7073  0.1548  0.1255
16906TIP3    H172133   4.878   6.516  14.961 -0.0000  0.5059 -0.7384
16906TIP3    H272134   4.746   6.494  14.891  0.5466 -0.2319 -1.5704
16907TIP3   OH272135   1.526   3.954  13.854 -0.0773 -0.2159 -0.0597
16907TIP3    H172136   1.596   3.953  13.920 -1.3358 -2.1684  1.3752
16907TIP3    H272137   1.569   3.928  13.773  0.8730 -1.5921  0.8394
16908TIP3   OH272138   0.081   0.316  14.463  0.1585  0.3856  0.9649
16908TIP3    H172139   0.042   0.324  14.376 -1.1506  1.3341  1.5992
16908TIP3    H272140   0.108   0.225  14.470  0.3579  0.3227 -0.4538
16909TIP3   OH272141   6.695   4.129  12.881  0.7168  0.2340  0.0332
16909TIP3    H172142   6.605   4.160  12.889  0.5694 -0.3872  0.9937
16909TIP3    H272143   6.734   4.185  12.814  0.2385  2.0117  1.1486
16910TIP3   OH272144   5.401   5.351   0.677 -0.1107 -0.6817 -0.0602
16910TIP3    H172145   5.317   5.330   0.636  0.3004 -0.8888 -0.8249
16910TIP3    H272146   5.427   5.270   0.721  0.9779 -1.5367 -2.1362
16911TIP3   OH272147   4.146   4.129   1.179 -0.2027 -0.6945 -0.0238
16911TIP3    H172148   4.078   4.172   1.231 -0.7689 -1.8349  0.1939
16911TIP3    H272149   4.119   4.144   1.088 -1.1185 -1.7227  0.0723
16912TIP3   OH272150   1.071   6.119  14.971 -0.1803 -0.0388 -0.1356
16912TIP3    H172151   1.091   6.206  14.934 -2.0637  0.0947 -0.9489
16912TIP3    H272152   1.111   6.058  14.909 -0.4505  0.2432 -0.6024
16913TIP3   OH272153   2.505   4.721   5.038 -0.2610  0.3479 -0.6791
16913TIP3    H172154   2.418   4.685   5.024 -0.4616  0.6676 -0.2940
16913TIP3    H272155   2.503   4.805   4.993  0.9695 -1.0789 -3.6106
16914TIP3   OH272156   3.476   2.467   5.772 -0.3170 -0.2652  0.0429
16914TIP3    H172157   3.545   2.534   5.774 -1.2407  0.7414 -0.5325
16914TIP3    H272158   3.442   2.466   5.862 -0.9362  0.7697 -0.1546
16915TIP3   OH272159   5.161   2.522   5.061  0.3583 -0.7667 -0.5287
16915TIP3    H172160   5.128   2.601   5.019 -0.4370 -0.9712 -0.3174
16915TIP3    H272161   5.114   2.451   5.018  0.2787 -1.0459  0.0054
16916TIP3   OH272162   1.084   0.713  14.215  0.7790 -0.3547  0.3490
16916TIP3    H172163   1.074   0.791  14.270  0.7956  0.1820 -0.4013
16916TIP3    H272164   1.170   0.678  14.239  0.1962 -0.9515  1.6910
16917TIP3   OH272165   6.544   0.410  15.692  0.4295 -0.3393 -0.6713
16917TIP3    H172166   6.556   0.325  15.651  0.8166 -0.1736 -0.9097
16917TIP3    H272167   6.485   0.457  15.632 -0.0956 -0.5690 -0.3456
16918TIP3   OH272168   3.689   0.019  16.294  0.6408 -0.6256  0.0338
16918TIP3    H172169   3.723   0.070  16.220  1.1720  0.0601  0.7317
16918TIP3    H272170   3.663   0.084  16.358 -1.3380 -1.1651 -0.1668
16919TIP3   OH272171   6.736   6.060  10.840  0.1258 -0.5313  0.1446
16919TIP3    H172172   6.643   6.085  10.838  0.2950  0.0761 -0.5170
16919TIP3    H272173   6.760   6.051  10.748  1.0748  0.6949  0.2474
16920TIP3   OH272174   0.418   5.045  16.545  0.0272  0.0674 -0.0951
16920TIP3    H172175   0.358   5.103  16.591  0.2289  0.0084  0.2523
16920TIP3    H272176   0.505   5.084  16.559  0.1746 -0.3596  0.2167
16921TIP3   OH272177   3.151   0.528   4.824 -0.1533  0.1150  0.6172
16921TIP3    H172178   3.149   0.572   4.739  1.2121  1.1597  1.0804
16921TIP3    H272179   3.225   0.568   4.870 -0.3897 -0.9624  2.0161
16922TIP3   OH272180   4.202   3.407  15.106  0.0119 -0.3908  0.0624
16922TIP3    H172181   4.121   3.359  15.123  0.2534 -1.3679 -1.3642
16922TIP3    H272182   4.218   3.455  15.187 -3.1062  1.5411 -0.2777
16923TIP3   OH272183   5.992   0.389   4.448 -0.3712  0.2574 -0.3329
16923TIP3    H172184   5.915   0.358   4.400 -1.0213  2.0587 -0.5113
16923TIP3    H272185   5.979   0.356   4.537 -2.6058  2.4386  0.2536
16924TIP3   OH272186   2.757   4.460   5.125  0.1718 -0.1722  0.8033
16924TIP3    H172187   2.703   4.490   5.198  0.0305  0.4344  0.4637
16924TIP3    H272188   2.846   4.455   5.161 -0.0436 -0.7896  1.2596
16925TIP3   OH272189   3.499   2.274   4.799 -0.4555  0.2733 -0.0357
16925TIP3    H172190   3.415   2.265   4.843 -0.1691 -1.4855  0.2242
16925TIP3    H272191   3.564   2.248   4.864  0.1603  0.0322 -0.7230
16926TIP3   OH272192   1.185   4.909  15.071 -0.4875 -0.1625  0.1029
16926TIP3    H172193   1.202   4.904  15.165 -0.7625  0.1130  0.1707
16926TIP3    H272194   1.194   4.819  15.040  1.0280 -0.0428  0.1324
16927TIP3   OH272195   0.702   3.482  12.353  0.2909 -0.1665  0.1603
16927TIP3    H172196   0.725   3.540  12.426 -0.5872 -0.5047  0.7220
16927TIP3    H272197   0.653   3.411  12.394 -0.5136 -0.1821 -0.8051
16928TIP3   OH272198   5.235   3.498  13.990  0.2285 -0.3099  0.8149
16928TIP3    H172199   5.242   3.416  14.039 -1.4818 -2.1801 -1.8041
16928TIP3    H272200   5.140   3.514  13.984  0.5157  1.7212  0.9868
16929TIP3   OH272201   2.751   5.137   0.668  0.2950  0.9053 -1.0344
16929TIP3    H172202   2.688   5.173   0.605  0.8080  2.3392 -0.7703
16929TIP3    H272203   2.813   5.209   0.683  0.2241  0.5753  1.0503
16930TIP3   OH272204   0.143   3.204  10.495  0.5360  0.3681  0.2533
16930TIP3    H172205   0.191   3.285  10.479  0.4704 -0.0215 -2.2770
16930TIP3    H272206   0.211   3.136  10.502  0.4812 -0.0010 -2.1515
16931TIP3   OH272207   4.660   3.761  11.995  0.0124  0.4221  0.3641
16931TIP3    H172208   4.721   3.690  11.976  0.4857  0.4873  1.5367
16931TIP3    H272209   4.582   3.717  12.028  0.4285  0.4440  1.4075
16932TIP3   OH272210   2.435   3.428   5.398  0.7616  0.2176  0.2438
16932TIP3    H172211   2.344   3.420   5.428  0.9552 -1.1886  0.5009
16932TIP3    H272212   2.430   3.488   5.323  0.0126  2.2843  1.8493
16933TIP3   OH272213   4.139   2.026  11.849  0.2720 -0.7047  0.1807
16933TIP3    H172214   4.158   1.968  11.775 -1.2002 -2.9118  1.4311
16933TIP3    H272215   4.146   1.970  11.926 -1.2167  0.7877  1.4649
16934TIP3   OH272216   0.578   4.081   3.552  0.3688  0.4172  0.0585
16934TIP3    H172217   0.526   4.101   3.630  0.7788  0.9703  0.2008
16934TIP3    H272218   0.651   4.029   3.584 -0.1146 -0.3960 -0.1481
16935TIP3   OH272219   3.657   0.046   4.116  0.0671 -0.3172  0.1688
16935TIP3    H172220   3.724   0.114   4.125 -2.0522  1.9282 -0.0786
16935TIP3    H272221   3.618   0.039   4.203 -1.5865  0.8985 -0.4160
16936TIP3   OH272222   4.535   5.492   0.526  0.1061  0.7526 -0.6643
16936TIP3    H172223   4.489   5.469   0.607  2.2152  0.1742  0.4381
16936TIP3    H272224   4.571   5.579   0.544 -1.1407  1.5391 -1.8089
16937TIP3   OH272225   6.187   5.752   3.955 -0.1275 -0.4019 -0.0182
16937TIP3    H172226   6.253   5.710   3.900  0.2339 -0.7868  0.7004
16937TIP3    H272227   6.177   5.694   4.030  0.9882  1.1767  1.4297
16938TIP3   OH272228   1.875   3.596  11.443  0.2237  0.8444  0.0027
16938TIP3    H172229   1.905   3.662  11.505  0.0263  0.1809  0.8139
16938TIP3    H272230   1.936   3.605  11.369  2.0859 -0.0494  1.3434
16939TIP3   OH272231   2.939   4.221  14.374 -0.2259 -1.0425  0.1735
16939TIP3    H172232   2.897   4.228  14.460  0.8251 -0.1357  0.6332
16939TIP3    H272233   2.992   4.301  14.366  1.0866 -1.9410 -0.5412
16940TIP3   OH272234   6.638   0.966  11.095  0.2177  0.3473 -0.3583
16940TIP3    H172235   6.673   1.032  11.035  2.4783 -0.1773  0.3082
16940TIP3    H272236   6.669   0.883  11.059  1.0969 -0.0179  1.1789
16941TIP3   OH272237   2.001   5.609  15.531  0.4722  0.2887  0.5129
16941TIP3    H172238   1.910   5.638  15.541  0.1230  0.6895 -2.7575
16941TIP3    H272239   1.997   5.541  15.464  2.6112  0.5960  0.0072
16942TIP3   OH272240   5.296   2.574  14.015  0.3951 -0.5525 -0.1768
16942TIP3    H172241   5.350   2.535  13.947 -0.1736  0.3409 -1.1792
16942TIP3    H272242   5.353   2.578  14.092  1.2713 -0.9539 -0.7899
16943TIP3   OH272243   0.599   3.729  12.796  0.7757  0.2960  0.3462
16943TIP3    H172244   0.602   3.654  12.856 -1.4147  0.3920  0.6507
16943TIP3    H272245   0.549   3.795  12.843  1.5405  1.4800 -0.4609
16944TIP3   OH272246   3.454   4.514  16.070 -0.2872  0.3652 -0.3296
16944TIP3    H172247   3.431   4.428  16.035  0.4872  0.4268 -1.0316
16944TIP3    H272248   3.546   4.527  16.044  0.0638  0.7777  1.0258
16945TIP3   OH272249   3.004   1.096  12.326  0.0796 -0.3791 -0.0007
16945TIP3    H172250   2.938   1.039  12.287  0.4965 -1.8498  1.3429
16945TIP3    H272251   2.953   1.167  12.365 -0.4688  0.0633 -1.4491
16946TIP3   OH272252   1.353   0.514  14.499  0.2102  0.2872 -0.7966
16946TIP3    H172253   1.360   0.542  14.408 -3.1591 -0.6292 -1.4950
16946TIP3    H272254   1.275   0.559  14.532  0.1275 -1.0372  0.9539
16947TIP3   OH272255   3.935   1.872   6.696  0.5858  0.4822 -0.4798
16947TIP3    H172256   3.964   1.804   6.757 -0.2812  0.2824 -0.2836
16947TIP3    H272257   3.843   1.852   6.678 -0.3804  2.8113  1.3069
16948TIP3   OH272258   1.444   1.308   6.054  0.4539  0.6063 -0.8046
16948TIP3    H172259   1.447   1.243   5.984 -2.8410  0.4424 -0.9342
16948TIP3    H272260   1.451   1.257   6.134 -0.6135  0.2131 -0.9423
16949TIP3   OH272261   4.872   4.472  10.975 -0.7101  0.5141  0.2343
16949TIP3    H172262   4.845   4.380  10.978 -1.5839  0.7541  2.5232
16949TIP3    H272263   4.824   4.509  10.901  1.0188 -1.1822 -1.8687
16950TIP3   OH272264   0.294   5.111  12.430 -0.7281  0.0253  0.4500
16950TIP3    H172265   0.312   5.204  12.415  0.3465 -0.1831  0.4228
16950TIP3    H272266   0.363   5.065  12.382  0.0429 -0.7447  2.2259
16951TIP3   OH272267   6.684   2.460   3.538 -0.2678 -0.0607 -0.2809
16951TIP3    H172268   6.684   2.439   3.631  0.8937  2.1280  0.2587
16951TIP3    H272269   6.592   2.476   3.517 -0.7056 -1.8057  0.1403
16952TIP3   OH272270   1.936   6.808  12.953  0.4650 -0.1771 -0.0027
16952TIP3    H172271   1.893   6.893  12.943 -2.1264 -1.1875  1.6537
16952TIP3    H272272   1.982   6.814  13.036  0.1296 -0.4281  0.2053
16953TIP3   OH272273   2.131   4.951  10.459 -0.0409  0.8675 -0.3321
16953TIP3    H172274   2.178   4.882  10.414  1.4873  2.1496 -0.7913
16953TIP3    H272275   2.152   5.030  10.410 -0.0442  1.9788  1.3686
16954TIP3   OH272276   0.713   0.037   0.068  0.2944  0.0707  0.5960
16954TIP3    H172277   0.676   0.124   0.081 -0.9834 -0.3294 -0.1826
16954TIP3    H272278   0.673  -0.016   0.137  1.8654  0.2753  1.7398
16955TIP3   OH272279   2.787   2.320  11.814  0.2635 -0.1992 -0.3944
16955TIP3    H172280   2.774   2.228  11.791 -1.1019 -0.0687 -0.2419
16955TIP3    H272281   2.872   2.322  11.858  0.8146 -1.1955 -1.3486
16956TIP3   OH272282   6.760   0.025   0.184  0.6912 -0.0119  0.5917
16956TIP3    H172283   6.811   0.104   0.165 -1.3194  0.8312 -1.8629
16956TIP3    H272284   6.674   0.058   0.210 -0.0158 -1.3894  0.0844
16957TIP3   OH272285   4.097   1.576   0.624  0.1069 -0.3001 -0.1336
16957TIP3    H172286   4.140   1.550   0.542  0.9941  1.0862 -0.1318
16957TIP3    H272287   4.067   1.493   0.662 -1.4510 -0.9039 -2.4379
16958TIP3   OH272288   6.255   5.866   1.108 -0.3948  0.2735 -0.4896
16958TIP3    H172289   6.286   5.836   1.022 -3.1982  0.9065 -1.8452
16958TIP3    H272290   6.287   5.800   1.169  0.2593 -1.1543 -2.2745
16959TIP3   OH272291   5.562   5.224  16.702  0.0826 -0.1988 -0.0261
16959TIP3    H172292   5.491   5.271  16.746  0.4536  0.7184 -0.3713
16959TIP3    H272293   5.520   5.183  16.626  0.0035  0.8259 -0.5596
16960TIP3   OH272294   6.191   0.809  12.622  0.0942  0.2682  0.1371
16960TIP3    H172295   6.245   0.772  12.552  1.7052 -0.3561  1.6298
16960TIP3    H272296   6.166   0.734  12.675 -0.3250  0.8347  0.7483
16961TIP3   OH272297   1.651   3.449  11.400 -0.0842 -0.0831  0.7215
16961TIP3    H172298   1.644   3.400  11.482  0.9141  0.1348  0.9523
16961TIP3    H272299   1.736   3.492  11.406 -0.5962  1.0342  0.1673
16962TIP3   OH272300   5.591   3.703  17.034 -0.2733  0.6632  0.4832
16962TIP3    H172301   5.577   3.709  16.940 -0.5512  2.3770  0.5918
16962TIP3    H272302   5.656   3.770  17.053  1.4601 -1.1428  1.2554
16963TIP3   OH272303   0.543   3.034   2.534  0.0504 -0.2982  0.1244
16963TIP3    H172304   0.577   3.122   2.551  0.2718  0.4368 -3.3336
16963TIP3    H272305   0.616   2.975   2.555  0.3399  0.4215  1.2406
16964TIP3   OH272306   2.125   4.822  16.275 -0.0184  0.1709  0.8865
16964TIP3    H172307   2.122   4.727  16.266  0.0537  0.1856  0.6954
16964TIP3    H272308   2.113   4.838  16.368  0.8652 -0.0703  1.0447
16965TIP3   OH272309   0.534   2.525  12.443 -0.3604  0.4357 -0.0662
16965TIP3    H172310   0.515   2.591  12.510 -0.7407  1.6975 -1.3633
16965TIP3    H272311   0.630   2.519  12.442 -0.3912 -1.0023  1.8680
16966TIP3   OH272312   6.689   0.634  15.298  0.4510  0.6127  0.3425
16966TIP3    H172313   6.743   0.569  15.344  0.5145 -0.8113 -1.6138
16966TIP3    H272314   6.650   0.585  15.225 -0.6080  2.4754 -0.4030
16967TIP3   OH272315   3.725   3.498   3.200  0.4319 -0.6982 -0.3586
16967TIP3    H172316   3.691   3.444   3.129 -1.5976 -0.3090  0.2232
16967TIP3    H272317   3.770   3.570   3.156 -2.5479  0.6804 -1.4570
16968TIP3   OH272318   5.528   6.342  13.711 -0.1870 -0.2221  0.2682
16968TIP3    H172319   5.551   6.388  13.792  0.8385  0.7434 -0.5380
16968TIP3    H272320   5.432   6.344  13.710 -0.2247 -0.4310  1.5465
16969TIP3   OH272321   0.070   1.192   5.176  0.1422 -0.5383  0.1824
16969TIP3    H172322   0.119   1.243   5.240  0.7435 -0.7515 -0.0997
16969TIP3    H272323   0.137   1.143   5.128 -0.2164  0.1830 -1.1177
16970TIP3   OH272324   5.353   6.161   5.747  0.1357 -0.0045 -0.1924
16970TIP3    H172325   5.388   6.074   5.766  0.2794  0.0253 -0.3219
16970TIP3    H272326   5.335   6.199   5.833 -2.4753 -1.1797 -0.1326
16971TIP3   OH272327   1.492   0.945  15.292  0.0525 -0.4699  0.1486
16971TIP3    H172328   1.586   0.928  15.284  0.1618 -0.8654  1.8737
16971TIP3    H272329   1.484   1.002  15.369 -1.0458  0.4284 -0.5891
16972TIP3   OH272330   1.329   1.574   5.222 -0.1030  1.0405 -0.0473
16972TIP3    H172331   1.328   1.509   5.152  0.5777  1.8025 -0.7989
16972TIP3    H272332   1.375   1.531   5.294 -0.3458  0.4216 -0.2563
16973TIP3   OH272333   0.391   2.766   5.123 -0.2378  0.0281 -0.4053
16973TIP3    H172334   0.406   2.833   5.056  0.5760  0.3346  0.0720
16973TIP3    H272335   0.448   2.694   5.098 -1.0867 -0.4902 -0.8980
16974TIP3   OH272336   3.048   4.989  16.924  0.0020  0.5293  0.1800
16974TIP3    H172337   2.971   4.932  16.914  0.0115  0.6084 -0.4104
16974TIP3    H272338   3.116   4.932  16.958  0.2641 -0.0414 -1.2342
16975TIP3   OH272339   5.334   3.027  16.051 -0.4728 -0.2903  0.2153
16975TIP3    H172340   5.420   3.024  16.009 -0.9760 -2.6155 -0.8254
16975TIP3    H272341   5.274   2.992  15.985 -2.3830  1.8748  0.6637
16976TIP3   OH272342   4.394   4.884  13.033  0.1114 -0.0077 -0.1915
16976TIP3    H172343   4.384   4.976  13.059 -2.9512  0.1571 -1.5408
16976TIP3    H272344   4.437   4.888  12.948 -0.2087  0.2013 -0.3460
16977TIP3   OH272345   0.488   0.293   2.510  0.1115 -0.1816 -0.3077
16977TIP3    H172346   0.441   0.328   2.435 -0.5677  1.3358  0.7817
16977TIP3    H272347   0.559   0.355   2.526  1.3749 -1.4499 -0.7673
16978TIP3   OH272348   3.971   3.488   5.211  0.1849 -0.2545 -0.0793
16978TIP3    H172349   3.884   3.494   5.250 -0.1406  2.9847 -1.0152
16978TIP3    H272350   4.029   3.536   5.270  0.6678  0.4127 -1.0609
16979TIP3   OH272351   0.839   1.449   3.515 -0.1136 -0.2796 -0.3173
16979TIP3    H172352   0.845   1.434   3.421 -0.7377  2.1449 -0.8152
16979TIP3    H272353   0.745   1.449   3.534  0.0284 -1.6851  0.5158
16980TIP3   OH272354   0.555   1.571  13.488  0.3377 -0.0787 -0.4264
16980TIP3    H172355   0.477   1.520  13.507 -0.4774  0.5051 -2.1110
16980TIP3    H272356   0.586   1.539  13.404  0.9997  0.7903 -0.5307
16981TIP3   OH272357   6.796   5.134  11.899  0.1163  0.2595  0.1617
16981TIP3    H172358   6.834   5.191  11.965  0.6037  0.2258 -0.0882
16981TIP3    H272359   6.704   5.159  11.896  0.3515  1.1256 -0.0383
16982TIP3   OH272360   3.758   1.196  12.574 -0.6340  0.2593 -0.1987
16982TIP3    H172361   3.720   1.190  12.661 -0.8386  2.7665 -0.0442
16982TIP3    H272362   3.715   1.127  12.523 -0.9340 -0.8534  1.5006
16983TIP3   OH272363   2.078   4.789  15.759 -0.3136  0.1280  0.0372
16983TIP3    H172364   1.990   4.801  15.796 -0.0434  0.3763  0.6049
16983TIP3    H272365   2.064   4.792  15.664 -1.3364 -2.7498  0.0020
16984TIP3   OH272366   5.569   2.225   5.393  0.0340 -0.3026 -0.3274
16984TIP3    H172367   5.558   2.191   5.481  0.2095  2.8749  1.0701
16984TIP3    H272368   5.501   2.292   5.384  0.2477 -0.3106 -2.4714
16985TIP3   OH272369   3.510   5.037   1.223  0.2856 -0.0234 -0.7235
16985TIP3    H172370   3.534   4.986   1.146  0.2344 -0.1400 -0.6631
16985TIP3    H272371   3.430   5.083   1.198  0.6587  0.4900 -0.9799
16986TIP3   OH272372   4.267   3.830   4.185 -0.4378 -0.5480  0.1511
16986TIP3    H172373   4.332   3.779   4.234 -1.4209 -1.0915  0.9159
16986TIP3    H272374   4.287   3.921   4.207 -1.3033 -0.7987  2.1911
16987TIP3   OH272375   0.712   4.267   1.073 -0.1527 -0.3819 -0.2406
16987TIP3    H172376   0.750   4.353   1.091  1.7349 -1.0305 -0.9387
16987TIP3    H272377   0.643   4.285   1.009 -0.0333  0.6629 -0.0978
16988TIP3   OH272378   1.353   5.485  15.981  0.4514 -0.1769 -0.2567
16988TIP3    H172379   1.312   5.543  16.046  0.7045  1.5819 -1.6031
16988TIP3    H272380   1.390   5.414  16.033 -1.6184 -0.2240  1.2871
16989TIP3   OH272381   2.908   0.235  16.453 -0.1024  0.0135 -0.0830
16989TIP3    H172382   2.813   0.238  16.443 -0.1081 -0.8966 -0.3962
16989TIP3    H272383   2.923   0.188  16.534  0.0834  0.1362 -0.0451
16990TIP3   OH272384   1.430   2.140  14.276  0.6792  0.3492 -0.4789
16990TIP3    H172385   1.464   2.066  14.226  2.7133  0.2054  0.9890
16990TIP3    H272386   1.344   2.110  14.308  0.3905 -0.4186 -1.8768
16991TIP3   OH272387   6.361   2.426  13.228  0.4939 -0.0177 -0.2246
16991TIP3    H172388   6.435   2.445  13.169 -1.0528  1.8995 -1.7205
16991TIP3    H272389   6.325   2.344  13.196  0.5177  0.3025 -1.1085
16992TIP3   OH272390   3.423   5.385  16.377 -0.3462 -0.1804  0.0623
16992TIP3    H172391   3.516   5.389  16.355 -0.4280  0.2692 -0.2108
16992TIP3    H272392   3.378   5.394  16.293 -0.6600  1.3801  0.3694
16993TIP3   OH272393   1.049   2.729   5.308  0.4053 -0.0990  0.2948
16993TIP3    H172394   0.967   2.689   5.279 -1.7469  3.2261  1.3226
16993TIP3    H272395   1.080   2.671   5.378 -2.0219 -0.5505  1.1043
16994TIP3   OH272396   5.954   1.673   5.209  0.4045  0.2146  0.4468
16994TIP3    H172397   6.006   1.673   5.289  2.2503  1.2293 -0.6701
16994TIP3    H272398   5.975   1.589   5.168 -1.5886 -0.9055  1.6085
16995TIP3   OH272399   2.473   6.009  15.452 -0.5191  0.0298 -0.8920
16995TIP3    H172400   2.389   6.041  15.417 -1.1564 -2.5649 -1.9386
16995TIP3    H272401   2.461   6.011  15.547 -1.1394  1.1855 -0.9651
16996TIP3   OH272402   4.675   4.061  11.771 -0.9982 -0.2592  0.2144
16996TIP3    H172403   4.763   4.085  11.742 -0.4117  0.7174  2.5347
16996TIP3    H272404   4.636   4.017  11.696  0.6048  1.3895 -1.7224
16997TIP3   OH272405   4.862   1.079   2.098 -0.2580 -0.1467 -0.4213
16997TIP3    H172406   4.778   1.049   2.132  0.5344 -2.8159 -0.5699
16997TIP3    H272407   4.924   1.060   2.168  0.4989 -0.1564 -1.0798
16998TIP3   OH272408   0.760   6.310   4.385  0.4395 -0.7248  0.4220
16998TIP3    H172409   0.853   6.330   4.380  0.5274 -1.1485  0.2810
16998TIP3    H272410   0.731   6.302   4.294  0.3347 -0.8766  0.4666
16999TIP3   OH272411   5.985   6.095  15.473  0.9466  0.6447  0.6788
16999TIP3    H172412   6.078   6.115  15.461  1.1903 -1.0895 -0.6646
16999TIP3    H272413   5.944   6.122  15.391  0.5532 -0.1158  0.6150
17000TIP3   OH272414   3.119   2.688   2.260  0.2067 -0.3609  0.4826
17000TIP3    H172415   3.210   2.661   2.273  0.8597  1.2686 -0.5072
17000TIP3    H272416   3.082   2.689   2.348  0.8829 -1.8609  0.8163
17001TIP3   OH272417   4.690   4.727   2.345 -0.2003  0.8119  0.1519
17001TIP3    H172418   4.654   4.641   2.367  1.9224 -0.5728 -1.4056
17001TIP3    H272419   4.712   4.766   2.429 -2.1067  0.2943  0.9447
17002TIP3   OH272420   5.145   2.543   4.279  0.5697 -0.6030  0.2871
17002TIP3    H172421   5.071   2.509   4.229  0.4085  0.3861 -0.1589
17002TIP3    H272422   5.213   2.475   4.270  0.6022 -0.3843 -1.4226
17003TIP3   OH272423   5.575   0.002  13.557 -0.1936  0.1238  0.2415
17003TIP3    H172424   5.495  -0.050  13.568  0.1844 -0.4540  0.3085
17003TIP3    H272425   5.626  -0.046  13.491  0.0726  0.5201  0.1547
17004TIP3   OH272426   3.406   3.412   5.223  0.3832  0.0633 -0.2974
17004TIP3    H172427   3.419   3.375   5.136 -2.3156  0.1678 -0.8183
17004TIP3    H272428   3.312   3.425   5.230  0.6240  0.9857  2.2845
17005TIP3   OH272429   1.945   4.065  15.115 -0.0953 -0.0173  0.0054
17005TIP3    H172430   1.938   4.010  15.038 -1.5680 -0.2880  0.2987
17005TIP3    H272431   2.027   4.038  15.157  1.7470  1.4288 -2.3870
17006TIP3   OH272432   3.012   1.118   6.318  0.3453  0.3264  0.1889
17006TIP3    H172433   2.944   1.184   6.333 -0.0217  0.0378 -0.1743
17006TIP3    H272434   2.964   1.039   6.294  0.8574  0.5385 -1.6929
17007TIP3   OH272435   1.984   0.487   6.701  0.0078  0.2569  0.2390
17007TIP3    H172436   1.966   0.580   6.717 -1.2206  0.0353  0.2712
17007TIP3    H272437   1.899   0.444   6.714  1.0642 -1.2412  2.7902
17008TIP3   OH272438   2.290   1.494  11.566  0.0059  0.1222  0.2085
17008TIP3    H172439   2.248   1.409  11.552 -1.0284  0.1687  2.5164
17008TIP3    H272440   2.347   1.506  11.490 -1.7054 -1.4750 -1.4265
17009TIP3   OH272441   5.609   6.101  10.543 -0.6837 -0.2724  0.0914
17009TIP3    H172442   5.643   6.182  10.506 -0.6573  0.1379  0.9833
17009TIP3    H272443   5.585   6.048  10.467 -0.8043  0.6100 -0.4976
17010TIP3   OH272444   5.781   5.795   2.637  0.0693 -0.3077 -0.1737
17010TIP3    H172445   5.818   5.760   2.718 -1.4076 -0.3500  0.4958
17010TIP3    H272446   5.692   5.820   2.659 -0.1633  0.2686 -1.6370
17011TIP3   OH272447   5.079   2.775  15.641  0.2020  0.4925  0.6727
17011TIP3    H172448   4.984   2.787  15.634  0.1019 -0.8840 -0.6685
17011TIP3    H272449   5.114   2.812  15.560  1.0258  2.4023  1.7945
17012TIP3   OH272450   5.142   6.770  16.558  0.2263  0.3745 -0.0186
17012TIP3    H172451   5.102   6.820  16.487 -0.8250 -1.6411 -0.9112
17012TIP3    H272452   5.168   6.837  16.622 -0.5457  2.0874 -1.4033
17013TIP3   OH272453   0.200   0.859   3.166  0.4481 -0.0766 -0.0678
17013TIP3    H172454   0.179   0.879   3.074  0.5121  0.4758  0.0314
17013TIP3    H272455   0.150   0.780   3.185 -0.7932  0.6580 -0.1275
17014TIP3   OH272456   5.452   1.418  15.897 -0.4851  0.2702 -0.2575
17014TIP3    H172457   5.500   1.469  15.963 -2.3764  0.7848  0.7855
17014TIP3    H272458   5.362   1.451  15.902 -1.3278 -1.7741 -0.9754
17015TIP3   OH272459   2.793   3.635   1.051  0.1526  0.3507  0.3731
17015TIP3    H172460   2.701   3.616   1.037  0.2901 -0.7752  0.8963
17015TIP3    H272461   2.797   3.730   1.065 -0.5955  0.8042 -2.1145
17016TIP3   OH272462   1.905   2.842   0.677  0.0424  0.0002 -0.0270
17016TIP3    H172463   1.988   2.819   0.634 -0.3479 -0.4078 -0.5691
17016TIP3    H272464   1.853   2.883   0.608 -0.6580 -0.8221 -0.0051
17017TIP3   OH272465   5.666   4.197   4.459 -0.0528 -0.3292  0.4460
17017TIP3    H172466   5.759   4.197   4.438  0.1435 -0.6083  1.2802
17017TIP3    H272467   5.655   4.124   4.519 -1.0079 -0.9591 -0.4575
17018TIP3   OH272468   0.306   4.538   3.335  0.3760  0.5175  0.6688
17018TIP3    H172469   0.297   4.602   3.406  2.3669  0.1500  1.3397
17018TIP3    H272470   0.303   4.453   3.379  0.0621  0.2203  0.0868
17019TIP3   OH272471   3.014   2.479   4.923 -0.2543  0.1540  0.5497
17019TIP3    H172472   2.967   2.428   4.989  2.7612 -0.2852  2.5618
17019TIP3    H272473   2.946   2.508   4.862 -2.8044 -1.8867  2.2072
17020TIP3   OH272474   1.230   4.978   1.953 -0.0138 -0.3532 -0.4063
17020TIP3    H172475   1.305   4.919   1.948 -0.8640 -1.4350 -0.8368
17020TIP3    H272476   1.266   5.064   1.935  1.1969 -0.7917 -0.1656
17021TIP3   OH272477   4.273   6.356   1.582  0.0932 -0.5527  0.3445
17021TIP3    H172478   4.298   6.288   1.644  1.3061 -0.0409  0.4465
17021TIP3    H272479   4.183   6.378   1.606 -0.1124 -1.7037  0.6799
17022TIP3   OH272480   0.865   5.258   4.241  0.2115  0.0418  0.5608
17022TIP3    H172481   0.922   5.308   4.298 -0.5510  0.3570  1.0629
17022TIP3    H272482   0.873   5.168   4.271  0.1149  0.1500  0.9155
17023TIP3   OH272483   2.839   0.363  15.753 -0.2255  0.6286  0.1088
17023TIP3    H172484   2.773   0.295  15.738  0.7138 -0.0280 -1.3034
17023TIP3    H272485   2.833   0.419  15.676  0.1438  1.1799  0.4790
17024TIP3   OH272486   3.745   4.646  11.658 -0.3219  0.4205  0.0200
17024TIP3    H172487   3.786   4.560  11.659  0.6860  0.8279  2.5541
17024TIP3    H272488   3.680   4.642  11.588 -2.3911 -3.3827  1.8937
17025TIP3   OH272489   3.894   4.016   0.175 -0.4560  0.8289 -0.2974
17025TIP3    H172490   3.854   3.930   0.188  0.1865  0.3701 -1.2369
17025TIP3    H272491   3.942   4.033   0.256  0.9259 -0.5402 -0.7853
17026TIP3   OH272492   3.274   0.144   1.503  0.3923  0.2939  0.4003
17026TIP3    H172493   3.345   0.080   1.503  1.4080  1.3470 -1.0530
17026TIP3    H272494   3.202   0.101   1.550  1.3858 -1.4813  0.3731
17027TIP3   OH272495   2.800   2.135  14.440  0.2845  0.0491  0.2307
17027TIP3    H172496   2.823   2.203  14.377 -1.8244  1.9881  1.4063
17027TIP3    H272497   2.739   2.079  14.393  0.4334  0.1748 -0.1152
17028TIP3   OH272498   6.719   5.503  12.091  0.2131 -1.1023 -0.2883
17028TIP3    H172499   6.681   5.559  12.160  1.1957 -2.7579  1.7135
17028TIP3    H272500   6.644   5.473  12.041 -0.7827 -1.3892  1.2965
17029TIP3   OH272501   2.010   5.620  15.874 -0.8247  0.2463 -0.2625
17029TIP3    H172502   2.008   5.579  15.788 -0.1038  1.0441 -0.6739
17029TIP3    H272503   2.102   5.616  15.900 -0.9978  0.2386  0.3618
17030TIP3   OH272504   4.836   4.464   0.159 -0.5333  0.3253 -0.0780
17030TIP3    H172505   4.859   4.539   0.214  2.4555  1.0312 -2.0280
17030TIP3    H272506   4.753   4.489   0.117 -0.3063  1.9076  0.3709
17031TIP3   OH272507   0.256   4.816   5.429  0.2219  0.0194  0.4494
17031TIP3    H172508   0.220   4.891   5.383  1.1319 -0.1196 -0.5279
17031TIP3    H272509   0.340   4.847   5.465 -1.3211  0.7279  3.8069
17032TIP3   OH272510   2.571   0.908  16.823  0.1062  0.3268  0.3533
17032TIP3    H172511   2.591   0.824  16.863 -1.8135 -0.2584  0.1823
17032TIP3    H272512   2.643   0.924  16.761  2.3920  0.5534  2.8596
17033TIP3   OH272513   3.621   1.957  14.310 -0.2605 -0.4275 -0.2619
17033TIP3    H172514   3.622   2.049  14.285  0.8370 -0.7972 -1.7617
17033TIP3    H272515   3.529   1.937  14.326 -0.4925  0.9513  0.2036
17034TIP3   OH272516   5.875   6.416   5.559  0.3895 -0.0762 -0.2003
17034TIP3    H172517   5.842   6.327   5.554  0.7915 -0.3201  1.0898
17034TIP3    H272518   5.969   6.406   5.577  0.0457  0.5588  2.2413
17035TIP3   OH272519   4.365   2.103   2.532  0.1214  1.0506  0.4249
17035TIP3    H172520   4.457   2.079   2.523  0.1728  0.7567  1.6919
17035TIP3    H272521   4.348   2.103   2.626 -1.6350 -0.6446  0.1707
17036TIP3   OH272522   2.328   3.110  15.432  0.6458 -0.5705 -0.8391
17036TIP3    H172523   2.366   3.193  15.462 -0.0679  0.0346 -1.5551
17036TIP3    H272524   2.236   3.130  15.417  0.8177 -1.0059 -2.7160
17037TIP3   OH272525   0.279   4.940  13.081 -0.5127 -0.2573 -0.2411
17037TIP3    H172526   0.227   4.938  13.001 -1.2830 -0.5288  0.2540
17037TIP3    H272527   0.322   5.025  13.080 -1.1480  0.0667 -0.5498
17038TIP3   OH272528   2.101   1.952   5.633  0.2086 -0.6002 -0.0894
17038TIP3    H172529   2.146   1.955   5.548 -0.4680 -0.9626 -0.4680
17038TIP3    H272530   2.151   1.889   5.684 -0.7851 -2.2380 -1.0656
17039TIP3   OH272531   1.650   1.932  15.124 -0.0440  0.0810  0.7198
17039TIP3    H172532   1.722   1.969  15.176  0.7388 -1.2192  0.5993
17039TIP3    H272533   1.612   2.007  15.079  0.8138  0.8874  1.3061
17040TIP3   OH272534   5.216   6.198  12.569 -0.3787 -0.0552 -1.0924
17040TIP3    H172535   5.181   6.271  12.619  0.1861 -1.2410  1.1846
17040TIP3    H272536   5.295   6.172  12.618 -0.8224 -2.4498 -1.5557
17041TIP3   OH272537   5.813   6.431  15.027 -0.3888  0.1211 -0.3317
17041TIP3    H172538   5.798   6.497  14.959 -0.3758  1.3980  0.8399
17041TIP3    H272539   5.729   6.425  15.073 -0.3622 -0.6335 -0.3743
17042TIP3   OH272540   1.665   4.022   0.345  0.4085 -0.3409 -0.0522
17042TIP3    H172541   1.684   3.988   0.258  1.2095  2.2098 -0.9409
17042TIP3    H272542   1.747   4.013   0.394 -0.1536 -2.1620  0.6488
17043TIP3   OH272543   2.001   6.511  13.194 -0.0278 -0.0828 -0.4124
17043TIP3    H172544   2.057   6.519  13.116 -2.0461  0.7209 -1.8845
17043TIP3    H272545   1.928   6.571  13.176 -0.2230  0.6645  2.4487
17044TIP3   OH272546   2.136   1.214   3.514  0.1398  0.4471 -0.0378
17044TIP3    H172547   2.056   1.248   3.554 -0.5300 -0.8127 -0.2632
17044TIP3    H272548   2.108   1.174   3.432  1.3897  2.2660 -1.4329
17045TIP3   OH272549   5.576   2.906  15.956  0.0281 -0.0971 -0.1467
17045TIP3    H172550   5.639   2.844  15.994 -0.0792 -0.3056 -0.3069
17045TIP3    H272551   5.596   2.907  15.862  1.8587  2.1966  0.1771
17046TIP3   OH272552   1.304   5.203   3.950 -0.2181 -0.5508  0.0314
17046TIP3    H172553   1.383   5.165   3.988 -0.9904 -1.8972  0.3909
17046TIP3    H272554   1.310   5.296   3.969  1.0241 -0.7000  0.4964
17047TIP3   OH272555   6.210   0.520  16.511 -0.3988 -0.2578 -0.3119
17047TIP3    H172556   6.247   0.441  16.472 -0.5005 -0.4951  0.0692
17047TIP3    H272557   6.117   0.502  16.520 -0.2738 -0.5013  0.7141
17048TIP3   OH272558   3.789   6.000  11.633  0.5568  0.2354 -0.1661
17048TIP3    H172559   3.734   6.020  11.558 -0.2683  0.7151  0.5464
17048TIP3    H272560   3.728   5.994  11.707  1.6303  2.7982  1.0411
17049TIP3   OH272561   4.969   0.649   0.745  0.3515  0.6393  0.1055
17049TIP3    H172562   5.007   0.591   0.810  0.6118  1.1787  0.4396
17049TIP3    H272563   5.036   0.716   0.730 -0.8039  2.1627  1.4242
17050TIP3   OH272564   4.889   0.031  14.883 -0.6377  0.3433 -0.2988
17050TIP3    H172565   4.892   0.041  14.978  0.8143 -1.0867 -0.1396
17050TIP3    H272566   4.861  -0.060  14.870  0.1126  0.2353 -1.1984
17051TIP3   OH272567   1.598   4.884   5.065  1.0514 -1.0984  0.5957
17051TIP3    H172568   1.585   4.824   5.139  0.3543 -1.1350  0.4510
17051TIP3    H272569   1.593   4.972   5.104  1.3867 -1.1273  0.7021
17052TIP3   OH272570   5.788   0.591   3.048  0.3263  0.5804 -0.1039
17052TIP3    H172571   5.743   0.652   2.990 -1.7050 -0.3949  0.3614
17052TIP3    H272572   5.737   0.510   3.042  2.5554 -0.8935 -0.1935
17053TIP3   OH272573   1.617   5.299   2.652 -0.4291 -0.2169  0.5593
17053TIP3    H172574   1.523   5.291   2.666 -0.6603  1.8809  0.4355
17053TIP3    H272575   1.653   5.216   2.684 -2.3861 -1.4503 -0.2597
17054TIP3   OH272576   4.251   1.650   4.471  0.1039  0.1261 -0.0171
17054TIP3    H172577   4.181   1.594   4.506  0.1012 -1.7419 -2.7476
17054TIP3    H272578   4.326   1.633   4.529 -0.8729 -0.0433  1.2441
17055TIP3   OH272579   2.423   4.067  14.857  0.3114  0.4938  0.2572
17055TIP3    H172580   2.337   4.063  14.899 -0.2258  2.1301 -0.6135
17055TIP3    H272581   2.484   4.042  14.926 -0.5340  3.1482  2.1190
17056TIP3   OH272582   6.308   6.780   6.383 -0.2955  0.7906 -0.0366
17056TIP3    H172583   6.340   6.858   6.428 -0.4980  2.3734 -2.4761
17056TIP3    H272584   6.217   6.772   6.411 -0.5453  2.0011 -0.4573
17057TIP3   OH272585   0.322   0.428   3.649 -0.3353 -0.1603  0.2938
17057TIP3    H172586   0.253   0.451   3.711  0.4538  0.4416  0.9776
17057TIP3    H272587   0.403   0.440   3.699  0.3502  0.8534 -1.0104
17058TIP3   OH272588   3.511   5.101  11.865 -0.1116  0.3273 -0.1303
17058TIP3    H172589   3.513   5.188  11.904 -0.3671  0.5655 -0.6444
17058TIP3    H272590   3.419   5.081  11.853 -0.0573  1.0923 -2.4034
17059TIP3   OH272591   3.172   3.886   3.077  0.2797  0.2991 -0.2852
17059TIP3    H172592   3.243   3.833   3.041  0.6259 -0.5979  1.6320
17059TIP3    H272593   3.124   3.917   3.000  1.9006 -0.2359 -1.5592
17060TIP3   OH272594   0.528   1.704   1.028 -0.0928 -0.2885  0.3779
17060TIP3    H172595   0.475   1.734   0.954 -1.4418 -1.3294  0.8953
17060TIP3    H272596   0.552   1.614   1.005  0.8558 -0.0748  0.4866
17061TIP3   OH272597   4.257   5.360  14.492 -0.1705 -0.7404  0.0029
17061TIP3    H172598   4.199   5.435  14.497 -1.0696 -1.4583  0.5635
17061TIP3    H272599   4.207   5.287  14.530  1.1842 -1.3227  0.7415
17062TIP3   OH272600   4.206   4.613  16.398  0.6405 -0.1399  0.5058
17062TIP3    H172601   4.253   4.627  16.315  1.7476 -0.3991  1.0619
17062TIP3    H272602   4.133   4.556  16.375  0.4917  0.4110 -0.4294
17063TIP3   OH272603   2.570   6.750  15.827  0.6602 -0.1811 -0.2233
17063TIP3    H172604   2.579   6.826  15.885 -3.7557  2.0659 -2.0283
17063TIP3    H272605   2.523   6.685  15.880 -1.5570  1.0882 -0.5040
17064TIP3   OH272606   3.844   3.239  12.893 -0.3658 -0.1104 -0.0664
17064TIP3    H172607   3.899   3.316  12.909  0.7642 -1.5408  4.5896
17064TIP3    H272608   3.882   3.198  12.815  2.1172  1.5091  0.1702
17065TIP3   OH272609   3.318   4.423   0.945  0.3171  0.0681 -0.6001
17065TIP3    H172610   3.239   4.471   0.969  0.1568  0.2774 -1.4856
17065TIP3    H272611   3.331   4.359   1.015 -1.1689 -0.5966 -0.8970
17066TIP3   OH272612   2.194   6.098  11.395  0.5398 -0.2063 -0.1933
17066TIP3    H172613   2.271   6.043  11.381  0.6294 -0.3681  0.9048
17066TIP3    H272614   2.188   6.150  11.314  3.8531  2.2958  0.9335
17067TIP3   OH272615   4.008   1.783   4.625 -0.2893 -0.1845 -0.3144
17067TIP3    H172616   3.975   1.808   4.538  0.0098 -1.4499 -0.8177
17067TIP3    H272617   4.030   1.690   4.616 -0.7422 -0.4737  1.2719
17068TIP3   OH272618   2.095   0.770  16.451  0.1539  0.5259  0.2120
17068TIP3    H172619   2.092   0.738  16.541  0.2090  0.0969  0.0647
17068TIP3    H272620   2.130   0.696  16.401  0.6322  0.9412 -0.0788
17069TIP3   OH272621   2.166   2.545   3.605 -0.4698  0.4601  0.2660
17069TIP3    H172622   2.184   2.638   3.589 -3.1557  0.8490 -1.1308
17069TIP3    H272623   2.193   2.532   3.696  1.2826  2.2083  0.0797
17070TIP3   OH272624   3.694   6.706   4.578  0.0275  0.1295 -0.8615
17070TIP3    H172625   3.632   6.670   4.642 -0.1703  0.4434 -0.8765
17070TIP3    H272626   3.775   6.719   4.628  0.6506 -1.9105 -1.2224
17071TIP3   OH272627   0.019   5.171  11.194 -0.2383 -0.0351 -0.1701
17071TIP3    H172628  -0.001   5.122  11.274 -0.0461  0.8986  0.4623
17071TIP3    H272629  -0.024   5.256  11.207 -0.9041 -0.1683 -1.4267
17072TIP3   OH272630   0.213   0.401  13.976 -0.1033 -0.5433  0.1953
17072TIP3    H172631   0.197   0.477  14.033  1.0392  0.1269 -0.3385
17072TIP3    H272632   0.137   0.398  13.918 -0.9223 -0.7801  1.2476
17073TIP3   OH272633   2.347   6.144   3.078  0.4773 -0.5162  0.0091
17073TIP3    H172634   2.424   6.198   3.095 -0.4719  0.8817 -0.0096
17073TIP3    H272635   2.275   6.192   3.118 -0.3923 -1.8337  0.0752
17074TIP3   OH272636   1.211   0.937   2.788  0.2985  0.1256  0.2498
17074TIP3    H172637   1.234   1.005   2.851  0.6059 -0.5282  0.8601
17074TIP3    H272638   1.145   0.884   2.833 -0.9217  0.7658 -0.7107
17075TIP3   OH272639   5.974   0.659   4.836  0.3868  0.2988  0.3002
17075TIP3    H172640   6.065   0.686   4.851 -0.1864  1.6579  1.6445
17075TIP3    H272641   5.934   0.662   4.922 -0.8176 -0.8029 -0.1981
17076TIP3   OH272642   3.437   1.908   5.707  0.0836 -0.3985  0.2582
17076TIP3    H172643   3.492   1.984   5.688 -0.2377 -0.1689  0.2267
17076TIP3    H272644   3.478   1.836   5.659  0.2598 -0.1955  0.0993
17077TIP3   OH272645   0.029   0.622   3.221 -0.1454 -0.7202  0.2611
17077TIP3    H172646  -0.062   0.635   3.195  0.1105 -0.4329 -0.5128
17077TIP3    H272647   0.026   0.613   3.316 -1.1576 -2.2438  0.1115
17078TIP3   OH272648   2.733   2.844  15.295  0.3387 -0.4467 -0.6059
17078TIP3    H172649   2.754   2.924  15.247 -2.0613  0.4336 -0.3278
17078TIP3    H272650   2.805   2.784  15.274  1.4219  1.2436 -2.0440
17079TIP3   OH272651   0.189   1.030   2.618 -0.2870  0.4401 -0.0384
17079TIP3    H172652   0.180   1.125   2.613 -0.6043  0.3989 -0.3501
17079TIP3    H272653   0.127   0.997   2.552 -1.5501 -0.0434  1.3414
17080TIP3   OH272654   6.335   2.194   0.838  0.1845  0.4341  0.4453
17080TIP3    H172655   6.394   2.178   0.912  0.5507 -0.6585 -0.0564
17080TIP3    H272656   6.343   2.115   0.785 -0.0785  1.2113 -0.7659
17081TIP3   OH272657   4.020   5.414  14.826  0.7496  0.1814  0.2152
17081TIP3    H172658   4.090   5.469  14.861  0.1351  1.7898 -0.9032
17081TIP3    H272659   3.955   5.410  14.897  1.1302  0.2905  0.5749
17082TIP3   OH272660   3.503   5.682   1.032 -0.5518 -0.5321  0.5878
17082TIP3    H172661   3.425   5.714   0.986  0.7061  1.6323 -0.2121
17082TIP3    H272662   3.561   5.758   1.036  0.1054 -1.0569  4.3517
17083TIP3   OH272663   1.650   2.550   3.509  0.1254  0.1282  0.0438
17083TIP3    H172664   1.583   2.490   3.476  0.8945 -1.0509  0.5825
17083TIP3    H272665   1.629   2.634   3.468 -0.4023 -0.7155 -1.4729
17084TIP3   OH272666   1.339   3.766   2.728  0.5628 -0.0092 -0.4833
17084TIP3    H172667   1.301   3.679   2.735 -1.2798  0.7484 -0.4323
17084TIP3    H272668   1.322   3.792   2.637  0.4824  0.5696 -0.3035
17085TIP3   OH272669   2.393   0.402   4.185 -0.0788  0.2071  0.3274
17085TIP3    H172670   2.432   0.338   4.245 -1.1219  2.3357  3.5288
17085TIP3    H272671   2.321   0.441   4.235 -0.2853  2.9984 -1.9016
17086TIP3   OH272672   1.165   4.184  14.104  0.0462 -0.1006  0.6936
17086TIP3    H172673   1.111   4.202  14.181 -1.7987 -3.0870  0.2294
17086TIP3    H272674   1.127   4.106  14.064  3.1827 -0.8790 -1.1891
17087TIP3   OH272675   0.715   0.349   4.048 -0.0131 -0.1967 -0.2089
17087TIP3    H172676   0.800   0.310   4.067 -0.3647 -1.3396 -0.8351
17087TIP3    H272677   0.728   0.443   4.058  0.8583 -0.4639  1.4234
17088TIP3   OH272678   1.998   1.772  15.485 -0.3238  0.4308  0.0281
17088TIP3    H172679   1.984   1.855  15.530 -2.0277 -0.1099  0.5515
17088TIP3    H272680   2.050   1.796  15.408 -1.8888  2.2383 -0.5698
17089TIP3   OH272681   0.352   2.126   4.172 -0.0485 -0.6172  0.5525
17089TIP3    H172682   0.446   2.142   4.176 -0.2653  0.8496  0.6642
17089TIP3    H272683   0.334   2.073   4.249  0.5599 -0.0358  1.1172
17090TIP3   OH272684   2.592   1.235  12.259  0.0335  0.5079  0.3491
17090TIP3    H172685   2.533   1.289  12.205  0.7301  1.4482  0.5213
17090TIP3    H272686   2.667   1.219  12.202  0.2871  0.5840  0.6678
17091TIP3   OH272687   0.583   4.957   0.324  0.5313 -0.1883 -0.1753
17091TIP3    H172688   0.671   4.963   0.361  0.3842  0.1598  0.1264
17091TIP3    H272689   0.588   4.883   0.263  1.1994  0.2112 -0.6264
17092TIP3   OH272690   2.819   1.609   2.307 -0.5124  0.1027 -0.2653
17092TIP3    H172691   2.742   1.632   2.360 -0.4136  0.5296 -0.3081
17092TIP3    H272692   2.861   1.692   2.287  0.8643 -0.2044  1.0979
17093TIP3   OH272693   2.564   6.174  12.359 -0.1668  0.0250 -0.3362
17093TIP3    H172694   2.591   6.265  12.364 -0.0425 -0.0241 -0.0498
17093TIP3    H272695   2.636   6.125  12.399 -0.6639 -0.1097  0.4244
17094TIP3   OH272696   4.459   2.219  16.700  0.2559 -0.0739  0.3747
17094TIP3    H172697   4.495   2.306  16.718  2.3462 -1.1623  1.9228
17094TIP3    H272698   4.476   2.205  16.607  2.1118  0.2814  0.6161
17095TIP3   OH272699   5.404   6.264   5.494  0.1176 -0.1274  0.3940
17095TIP3    H172700   5.480   6.321   5.502 -1.2454  1.9385 -0.5049
17095TIP3    H272701   5.389   6.232   5.582  1.5475  0.0385  0.7335
17096TIP3   OH272702   0.256   1.971  14.397 -0.3315 -0.2187 -0.0681
17096TIP3    H172703   0.349   1.981  14.413 -0.6201  0.9052  1.1394
17096TIP3    H272704   0.227   1.908  14.463 -0.5138 -0.1267 -0.0577
17097TIP3   OH272705   0.615   4.197  10.762 -0.3439 -0.8833 -0.3467
17097TIP3    H172706   0.553   4.269  10.750 -0.2934 -0.7925 -0.0677
17097TIP3    H272707   0.659   4.188  10.677 -2.2556 -2.3721 -1.2580
17098TIP3   OH272708   3.110   5.058  12.342  0.0634 -0.6521 -0.0796
17098TIP3    H172709   3.088   4.982  12.396  1.2187 -0.2488  1.0039
17098TIP3    H272710   3.147   5.021  12.262  0.2884 -1.2414  0.2903
17099TIP3   OH272711   5.364   6.728   1.856 -1.0789  0.4953 -0.2847
17099TIP3    H172712   5.376   6.713   1.762 -0.4493  0.9030 -0.2733
17099TIP3    H272713   5.418   6.662   1.898  1.8578  2.7436 -0.2338
17100TIP3   OH272714   6.417   5.030   2.222 -0.5176  0.2061  0.7576
17100TIP3    H172715   6.447   5.024   2.313  0.6481 -0.0393  0.3744
17100TIP3    H272716   6.403   5.124   2.208 -0.2261  0.2936  1.0411
17101TIP3   OH272717   0.698   3.219   4.277  0.4742 -0.2957 -0.1176
17101TIP3    H172718   0.707   3.309   4.247 -1.7100  0.3253  0.8736
17101TIP3    H272719   0.774   3.174   4.241  1.1338  1.7186 -1.4151
17102TIP3   OH272720   1.361   3.684   3.638 -0.3873  0.4212 -0.2774
17102TIP3    H172721   1.393   3.749   3.576  1.4998 -0.3289 -0.1660
17102TIP3    H272722   1.329   3.612   3.584 -1.5817  1.0005 -0.3820
17103TIP3   OH272723   4.167   2.754   3.945  0.2123 -0.2379  0.2526
17103TIP3    H172724   4.103   2.824   3.958 -0.5695 -0.5785 -1.4115
17103TIP3    H272725   4.120   2.675   3.970  1.0794 -0.2173  2.0814
17104TIP3   OH272726   2.230   3.859   2.529  0.2604  0.0345  0.0722
17104TIP3    H172727   2.214   3.765   2.524 -0.9759  0.0421  2.4334
17104TIP3    H272728   2.273   3.880   2.446 -1.0239 -2.2778 -1.2942
17105TIP3   OH272729   3.808   5.429  16.539  0.1442 -0.1611 -0.2180
17105TIP3    H172730   3.761   5.349  16.515 -2.8378  1.5563 -0.6342
17105TIP3    H272731   3.859   5.404  16.616  0.6316 -2.8352 -1.2955
17106TIP3   OH272732   3.841   1.446  14.803 -0.2860 -0.1829 -0.4932
17106TIP3    H172733   3.758   1.451  14.850 -0.8139 -0.4832 -1.3640
17106TIP3    H272734   3.816   1.434  14.711  0.6783 -2.9663 -0.5121
17107TIP3   OH272735   3.573   1.820   3.274  0.1973 -0.5119 -0.1935
17107TIP3    H172736   3.620   1.846   3.195  0.6673  1.2731  0.6179
17107TIP3    H272737   3.503   1.885   3.283 -0.3000 -1.1154  0.4846
17108TIP3   OH272738   0.387   4.771  14.592  0.1573 -0.1984 -0.0807
17108TIP3    H172739   0.345   4.820  14.522  0.4762  0.8165  0.4164
17108TIP3    H272740   0.371   4.823  14.671  0.0052 -1.1926  0.5637
17109TIP3   OH272741   0.754   2.701   5.884 -0.7100  0.0596  0.2516
17109TIP3    H172742   0.755   2.635   5.953 -1.6210  0.4452  0.6427
17109TIP3    H272743   0.843   2.698   5.847 -0.9831 -2.0203 -0.3637
17110TIP3   OH272744   5.510   2.161  16.365 -0.1982 -0.1392 -0.0214
17110TIP3    H172745   5.471   2.233  16.414  2.0758  0.3961  1.1367
17110TIP3    H272746   5.530   2.095  16.431  0.3841 -0.5900 -0.6350
17111TIP3   OH272747   3.598   0.273   0.970  0.4315  0.1000  0.4445
17111TIP3    H172748   3.631   0.363   0.960 -0.0859  0.1603 -0.9315
17111TIP3    H272749   3.544   0.277   1.049  0.1829  1.0901  0.2517
17112TIP3   OH272750   4.246   3.679  11.224 -1.1150  0.6493  0.0821
17112TIP3    H172751   4.330   3.647  11.258 -1.0066 -0.1092 -0.8686
17112TIP3    H272752   4.253   3.667  11.129 -2.1185  1.0297 -0.0478
17113TIP3   OH272753   1.840   5.523   0.413  0.2853 -0.1858 -0.5928
17113TIP3    H172754   1.897   5.597   0.393 -0.4517  0.3504 -0.7754
17113TIP3    H272755   1.807   5.495   0.327 -2.4056  1.7209 -0.3098
17114TIP3   OH272756   2.967   6.447   4.371 -0.3161 -0.3393 -0.0254
17114TIP3    H172757   3.060   6.464   4.358 -0.2655 -1.5788 -1.6122
17114TIP3    H272758   2.929   6.532   4.390  1.0298  0.2830 -0.0104
17115TIP3   OH272759   1.069   2.356  12.902 -0.2346  0.2737 -0.0594
17115TIP3    H172760   1.020   2.274  12.892  2.7324 -1.4540 -2.1284
17115TIP3    H272761   1.126   2.340  12.977 -0.2677  0.8314  0.0844
17116TIP3   OH272762   1.836   6.558  14.548  0.6308 -0.5444  0.1233
17116TIP3    H172763   1.889   6.634  14.524  0.3678 -0.5187 -0.3988
17116TIP3    H272764   1.747   6.592  14.552  0.0728 -1.3723 -2.9635
17117TIP3   OH272765   3.518   2.802   5.647  0.5346 -0.1424 -0.2506
17117TIP3    H172766   3.526   2.893   5.619 -0.3145 -0.0270 -0.1375
17117TIP3    H272767   3.517   2.806   5.743  0.6062 -0.2813 -0.2437
17118TIP3   OH272768   5.326   6.701  12.340  0.2512  0.0278 -0.0391
17118TIP3    H172769   5.417   6.692  12.366  0.1598 -0.1494  0.2221
17118TIP3    H272770   5.329   6.752  12.259  0.5114  1.0776  0.6058
17119TIP3   OH272771   3.503   5.846   0.285 -0.5346 -0.0286  0.2731
17119TIP3    H172772   3.475   5.765   0.242 -1.0120  0.3768 -0.1796
17119TIP3    H272773   3.518   5.908   0.214  0.1689  0.1824  0.5974
17120TIP3   OH272774   1.222   1.213   1.747 -0.2496 -0.2087 -0.4735
17120TIP3    H172775   1.261   1.194   1.662  0.3101 -0.2716 -0.2045
17120TIP3    H272776   1.241   1.136   1.800 -0.5769 -0.1585 -0.2772
17121TIP3   OH272777   2.580   2.600  11.019 -0.0183 -0.3060  0.1512
17121TIP3    H172778   2.540   2.535  10.961 -1.2851 -0.2965  0.9503
17121TIP3    H272779   2.673   2.581  11.017 -0.1563 -0.9165 -1.1234
17122TIP3   OH272780   3.944   2.524   0.262  0.2739 -0.4403 -0.3345
17122TIP3    H172781   3.971   2.451   0.318 -0.4983 -0.5215 -0.0610
17122TIP3    H272782   3.910   2.590   0.322 -1.7578 -1.0379 -0.7615
17123TIP3   OH272783   2.908   2.843  14.887  0.5439  0.0491  0.1594
17123TIP3    H172784   2.896   2.781  14.959  0.8764 -0.9496 -0.6215
17123TIP3    H272785   2.854   2.918  14.911 -0.6575 -0.9364  0.6691
17124TIP3   OH272786   2.631   1.455  11.008  0.5237  0.2387 -0.0660
17124TIP3    H172787   2.680   1.537  11.000  0.3526  0.3538  0.0477
17124TIP3    H272788   2.611   1.449  11.102 -0.7386  0.8149 -0.2745
17125TIP3   OH272789   6.080   5.992   2.800  0.3998  0.1962 -0.0470
17125TIP3    H172790   6.133   6.031   2.870  1.1636  0.2823 -0.6559
17125TIP3    H272791   6.113   6.033   2.720 -0.6672  0.3238 -0.4358
17126TIP3   OH272792   6.181   0.204   5.691  0.7734 -0.1718  0.0102
17126TIP3    H172793   6.237   0.275   5.723 -1.0217  1.8566 -1.0051
17126TIP3    H272794   6.106   0.204   5.751  0.9842 -1.6181  0.3073
17127TIP3   OH272795   4.994   5.124  13.293  0.1058  0.5227  1.2113
17127TIP3    H172796   5.069   5.179  13.316  0.5399  0.5849 -0.2684
17127TIP3    H272797   5.026   5.068  13.222 -1.1231  0.2461  0.8437
17128TIP3   OH272798   0.638   4.863   2.378  0.3950  0.4694 -0.0123
17128TIP3    H172799   0.643   4.959   2.386 -0.2646  0.3808  2.4598
17128TIP3    H272800   0.718   4.831   2.419 -1.4290 -0.0344  3.5529
17129TIP3   OH272801   0.067   3.543  16.418  0.1054  0.1960  0.0478
17129TIP3    H172802   0.046   3.592  16.339  0.4022 -0.6658 -0.5721
17129TIP3    H272803   0.057   3.451  16.394 -2.0589 -0.0715  1.6388
17130TIP3   OH272804   4.540   3.508  10.857 -0.2740  0.0148  0.2448
17130TIP3    H172805   4.502   3.520  10.770 -1.8512  0.9553  1.0401
17130TIP3    H272806   4.635   3.512  10.842 -0.4178 -1.7595 -1.6891
17131TIP3   OH272807   2.900   1.747   1.805 -0.1437 -0.0480  0.2478
17131TIP3    H172808   2.967   1.808   1.835  0.8200 -0.5003 -0.9132
17131TIP3    H272809   2.820   1.777   1.847  0.7602  0.5622  1.5910
17132TIP3   OH272810   3.851   6.620  12.961  0.2183 -0.0527  0.0726
17132TIP3    H172811   3.799   6.639  13.039 -0.1598 -2.3126  0.4449
17132TIP3    H272812   3.934   6.665  12.976 -0.3477  0.6952  1.1016
17133TIP3   OH272813   6.075   4.969   3.163 -0.2751  0.1148  0.6296
17133TIP3    H172814   6.057   4.982   3.070  0.9983 -0.2016  0.3137
17133TIP3    H272815   6.014   5.028   3.208 -0.6537  0.5444 -0.4132
17134TIP3   OH272816   5.235   6.789  17.008 -0.3745 -0.1465 -0.2697
17134TIP3    H172817   5.166   6.736  17.049 -1.0532  0.5348 -0.4995
17134TIP3    H272818   5.225   6.875  17.047 -2.4999  1.1943 -3.3049
17135TIP3   OH272819   4.770   0.135  15.475  0.1061 -0.5609 -1.0038
17135TIP3    H172820   4.764   0.124  15.570 -0.5665 -1.4350 -1.1319
17135TIP3    H272821   4.691   0.183  15.451  0.1518 -0.5594 -1.1521
17136TIP3   OH272822   0.726   1.009  16.166  0.3929  0.3303 -0.3161
17136TIP3    H172823   0.786   0.968  16.104  1.1635 -0.0978  0.6933
17136TIP3    H272824   0.662   0.940  16.186 -0.0690  0.5809 -0.8866
17137TIP3   OH272825   2.651   1.772  14.476 -0.3252 -0.4017  0.6521
17137TIP3    H172826   2.686   1.850  14.519  0.1351 -0.8628  1.1474
17137TIP3    H272827   2.619   1.802  14.392  1.9496 -0.0385 -0.1640
17138TIP3   OH272828   4.535   2.916   3.838 -0.0629 -0.5376 -0.5021
17138TIP3    H172829   4.473   2.923   3.765 -1.8452  3.3265  1.1092
17138TIP3    H272830   4.608   2.972   3.812 -0.7145  0.8708  0.5398
17139TIP3   OH272831   6.533   3.024   5.041  0.1326  0.7014  0.3071
17139TIP3    H172832   6.525   2.944   5.094  2.0665  0.7436  0.7454
17139TIP3    H272833   6.608   3.070   5.079  0.7403  1.4018 -1.6456
17140TIP3   OH272834   4.320   4.357  15.833  0.2335  0.0086  0.1765
17140TIP3    H172835   4.235   4.332  15.796  0.1229  1.3154 -0.4961
17140TIP3    H272836   4.383   4.333  15.765  0.2009  0.8014 -0.1439
17141TIP3   OH272837   1.174   3.682  14.496  0.4582  0.6219 -0.2366
17141TIP3    H172838   1.080   3.693  14.483  0.3246  1.9423  1.5252
17141TIP3    H272839   1.196   3.603  14.446 -2.2263 -1.7272  1.9544
17142TIP3   OH272840   1.824   6.113  13.573 -0.0687  0.3353  0.5692
17142TIP3    H172841   1.756   6.046  13.579 -0.2780  0.3193 -1.2882
17142TIP3    H272842   1.903   6.065  13.551  0.1731  0.5287  1.0056
17143TIP3   OH272843   2.358   1.396   4.339  0.0633  0.2325  0.2648
17143TIP3    H172844   2.274   1.430   4.368  0.1583  0.8487 -0.1676
17143TIP3    H272845   2.401   1.470   4.296  0.6331 -0.1989  0.0726
17144TIP3   OH272846   1.073   1.100  12.105  0.1133  0.2077  0.0342
17144TIP3    H172847   1.154   1.123  12.150 -0.1410  1.1993  0.0097
17144TIP3    H272848   1.028   1.184  12.092 -0.2088 -0.1445 -1.3067
17145TIP3   OH272849   4.070   2.900   5.577 -0.0956  0.3288 -0.0756
17145TIP3    H172850   4.017   2.906   5.497 -0.3552  0.0092  0.0720
17145TIP3    H272851   4.046   2.977   5.628 -0.6371  0.0252  0.1256
17146TIP3   OH272852   2.560   3.621   0.291  0.2137 -0.1285 -0.0013
17146TIP3    H172853   2.511   3.684   0.344  0.0183  1.9124 -2.4070
17146TIP3    H272854   2.650   3.653   0.292  0.1784  0.0439 -0.9876
17147TIP3   OH272855   5.560   5.626  12.368  0.2092 -0.1654 -0.1278
17147TIP3    H172856   5.582   5.571  12.443  1.8117 -0.6269 -0.8814
17147TIP3    H272857   5.635   5.617  12.309 -0.9621  0.2346 -1.7534
17148TIP3   OH272858   5.328   3.081  15.692 -1.0869  0.2337  0.1606
17148TIP3    H172859   5.346   2.989  15.708 -1.7227  0.2639  1.1444
17148TIP3    H272860   5.411   3.125  15.710 -1.3447  0.0828  1.9859
17149TIP3   OH272861   2.000   2.072  15.993 -0.0994  0.0062  0.0522
17149TIP3    H172862   1.988   2.141  15.928  0.6861  0.5227  0.4333
17149TIP3    H272863   1.929   2.086  16.056  1.0441  1.5937  1.0753
17150TIP3   OH272864   0.276   1.845   4.729 -0.3557  0.4113 -0.1218
17150TIP3    H172865   0.317   1.841   4.815  2.0510  0.0758 -1.2087
17150TIP3    H272866   0.269   1.754   4.702  0.4443  0.5919 -0.9589
17151TIP3   OH272867   2.113   3.335  13.715 -0.1505  0.1933 -0.3939
17151TIP3    H172868   2.046   3.354  13.649  0.5999 -1.5415 -1.7235
17151TIP3    H272869   2.063   3.302  13.790 -0.9012  0.4931 -0.7509
17152TIP3   OH272870   4.332   4.821  16.011 -0.5723 -0.2023  0.3945
17152TIP3    H172871   4.412   4.814  16.064 -0.0064 -1.5817 -0.5973
17152TIP3    H272872   4.360   4.865  15.931 -0.2059 -2.7556 -0.9847
17153TIP3   OH272873   1.097   3.920   3.911  0.1618 -0.3767  0.0570
17153TIP3    H172874   1.040   3.920   3.988  1.0194 -0.3304  0.7045
17153TIP3    H272875   1.050   3.867   3.847 -0.8454  0.0805  0.3911
17154TIP3   OH272876   2.395   4.025   2.665 -0.2821  0.0541 -0.0333
17154TIP3    H172877   2.424   3.989   2.749  1.0119 -1.2281 -0.9792
17154TIP3    H272878   2.323   3.968   2.638  0.5632 -0.7283 -0.6741
17155TIP3   OH272879   1.254   4.919  15.331 -0.1511  0.2975 -0.1644
17155TIP3    H172880   1.299   4.968  15.399  1.0797 -1.0128  0.0124
17155TIP3    H272881   1.202   4.854  15.379  2.6914 -2.3685 -0.3536
17156TIP3   OH272882   4.219   0.228  15.950 -0.3000  0.0269 -0.6628
17156TIP3    H172883   4.308   0.217  15.919  0.4622  0.4272  1.2151
17156TIP3    H272884   4.212   0.170  16.026 -0.6572  2.0748  0.9683
17157TIP3   OH272885   1.479   0.349  12.421 -0.0460  0.2869  0.0609
17157TIP3    H172886   1.419   0.341  12.496 -1.0995  0.3764 -0.7576
17157TIP3    H272887   1.487   0.259  12.389 -0.5052  0.4081 -0.4050
17158TIP3   OH272888   4.768   3.744   5.255 -0.2083  0.6401 -0.2884
17158TIP3    H172889   4.837   3.721   5.317 -0.6026 -0.1999 -0.1423
17158TIP3    H272890   4.689   3.753   5.308 -0.2727  1.3116 -0.4891
17159TIP3   OH272891   1.961   5.292   4.882 -0.5663  1.0263  0.4320
17159TIP3    H172892   2.049   5.259   4.866  0.8487  4.4052  0.4103
17159TIP3    H272893   1.906   5.245   4.819  1.3317 -0.5136 -0.1901
17160TIP3   OH272894   2.112   0.875  12.000 -0.0909 -0.5690  0.0598
17160TIP3    H172895   2.154   0.901  11.918 -0.6201  0.4508  0.1013
17160TIP3    H272896   2.029   0.922  12.001 -0.2519 -0.8435  1.0195
17161TIP3   OH272897   2.946   2.561  15.729  0.4299 -0.0296  0.1874
17161TIP3    H172898   2.882   2.528  15.792  0.6118 -1.8454 -0.5007
17161TIP3    H272899   2.992   2.482  15.698  1.9382  1.0581 -0.4814
17162TIP3   OH272900   0.061   6.611   0.004  0.2436 -0.0334 -0.0143
17162TIP3    H172901   0.113   6.667  -0.054  1.1354 -1.0846 -0.2625
17162TIP3    H272902  -0.010   6.668   0.035  0.8390  1.0835 -0.6345
17163TIP3   OH272903   5.626   2.360   0.301  0.2441  0.6828 -0.7130
17163TIP3    H172904   5.580   2.325   0.377  1.2462  1.4267  0.2820
17163TIP3    H272905   5.662   2.283   0.257 -0.8991  0.1929 -0.8337
17164TIP3   OH272906   4.166   5.597  12.194  0.1672 -0.3775  0.2695
17164TIP3    H172907   4.148   5.682  12.153  1.1999 -0.2674  0.0308
17164TIP3    H272908   4.171   5.617  12.288 -1.1165 -0.4516  0.3826
17165TIP3   OH272909   2.997   2.644   5.491  0.2076  0.0779  0.0725
17165TIP3    H172910   3.072   2.593   5.460 -0.6538 -0.9706 -0.3414
17165TIP3    H272911   3.012   2.652   5.585  1.0517  0.2565 -0.0614
17166TIP3   OH272912   4.075   1.041   2.886  0.0909  0.4092  0.7410
17166TIP3    H172913   4.150   1.097   2.867  0.0118  0.0158 -0.9226
17166TIP3    H272914   4.111   0.953   2.892 -0.1768  0.2696  0.3337
17167TIP3   OH272915   2.056   5.328  10.998 -0.4600  0.4452  0.0778
17167TIP3    H172916   2.035   5.362  10.911  1.0869 -0.4193 -0.6732
17167TIP3    H272917   2.135   5.375  11.024  1.2632 -1.8806 -0.6422
17168TIP3   OH272918   4.628   2.520  17.042 -0.2388 -0.5424  0.5056
17168TIP3    H172919   4.683   2.564  16.977  0.2397 -0.8633  0.6900
17168TIP3    H272920   4.583   2.591  17.087 -1.2920 -0.3355 -0.7924
17169TIP3   OH272921   1.606   1.638  13.341 -0.1800  0.3354  0.2258
17169TIP3    H172922   1.644   1.713  13.387  0.7700  0.1567 -0.2345
17169TIP3    H272923   1.603   1.569  13.408  0.1727  0.3992  0.3119
17170TIP3   OH272924   2.720   2.064   5.149 -0.6243  0.0783 -0.4311
17170TIP3    H172925   2.765   2.034   5.070  0.9028  2.3639 -0.5104
17170TIP3    H272926   2.719   1.988   5.206 -1.1543 -1.4497 -2.3463
17171TIP3   OH272927   4.352   3.081   1.963  0.0700 -0.0985 -0.5150
17171TIP3    H172928   4.290   3.138   2.009 -0.0161 -0.7084  0.1486
17171TIP3    H272929   4.342   3.104   1.871 -1.6501 -0.6481 -0.5049
17172TIP3   OH272930   4.861   2.947  12.359  0.2229  0.5486 -0.1571
17172TIP3    H172931   4.925   3.014  12.382  1.9164 -1.0363 -0.0689
17172TIP3    H272932   4.904   2.864  12.380 -0.9029 -0.6966 -2.4171
17173TIP3   OH272933   4.377   0.036   5.182  0.1455 -0.5125 -0.2167
17173TIP3    H172934   4.460   0.047   5.229  0.5951  1.6083 -1.3610
17173TIP3    H272935   4.311   0.063   5.246  0.5785  0.4045 -0.1334
17174TIP3   OH272936   1.661   3.075   3.845 -0.6317 -0.0781 -0.1605
17174TIP3    H172937   1.711   3.128   3.907 -2.3790  0.2988  0.9938
17174TIP3    H272938   1.622   3.005   3.898  1.2691 -2.3597 -1.5754
17175TIP3   OH272939   4.022   2.999   4.015 -0.1566  0.0377  0.4241
17175TIP3    H172940   4.055   3.070   3.961  0.1020 -0.5839 -0.2528
17175TIP3    H272941   4.043   3.025   4.105  1.0780  0.2282  0.0938
17176TIP3   OH272942   1.455   4.277   6.106 -0.3545  0.9257  0.2798
17176TIP3    H172943   1.537   4.314   6.074 -0.4824  0.6396 -0.3985
17176TIP3    H272944   1.404   4.353   6.133 -0.1879  1.1709 -0.0754
17177TIP3   OH272945   0.079   2.686  10.874  1.2635  0.1174 -0.0094
17177TIP3    H172946   0.174   2.681  10.861  1.4073  0.5805  0.8495
17177TIP3    H272947   0.045   2.714  10.789  1.7857 -1.0722 -0.6424
17178TIP3   OH272948   1.440   3.046   1.652  0.4135  0.0775  0.2193
17178TIP3    H172949   1.344   3.041   1.649  0.4122  0.2704 -0.1269
17178TIP3    H272950   1.465   2.984   1.720 -0.0099  0.7359  0.9832
17179TIP3   OH272951   1.864   2.613   2.118  0.1426  0.0428  0.7411
17179TIP3    H172952   1.830   2.697   2.150  0.6509  0.3774  0.4091
17179TIP3    H272953   1.800   2.585   2.053  0.5342  0.7177  0.0507
17180TIP3   OH272954   6.039   2.810   3.962  0.1449 -0.0656  0.2821
17180TIP3    H172955   6.009   2.756   4.036  0.6259 -1.8784 -0.7869
17180TIP3    H272956   6.031   2.753   3.886  1.9339  0.9437 -0.7310
17181TIP3   OH272957   3.621   1.578  11.845  0.6790 -0.0147  0.2841
17181TIP3    H172958   3.677   1.544  11.776  2.2133  0.9342  1.0169
17181TIP3    H272959   3.598   1.666  11.815  0.8168  0.1547  0.6728
17182TIP3   OH272960   3.788   3.356  14.195 -0.1301 -0.0946 -0.1577
17182TIP3    H172961   3.730   3.289  14.233  0.0574  0.2872  0.8508
17182TIP3    H272962   3.850   3.307  14.142 -0.7694 -0.6000 -0.4584
17183TIP3   OH272963   4.822   0.310  14.455 -0.8874  0.0502 -0.1122
17183TIP3    H172964   4.735   0.307  14.414  0.1857 -1.0783 -2.5250
17183TIP3    H272965   4.883   0.316  14.381  1.1154  0.7517  1.5017
17184TIP3   OH272966   4.695   0.959   6.772  0.0598 -0.6781  0.3944
17184TIP3    H172967   4.645   1.015   6.713 -0.1670  0.3729  1.5495
17184TIP3    H272968   4.725   1.017   6.842  2.7444 -1.3121 -0.1288
17185TIP3   OH272969   1.386   2.456  11.412 -0.5431  0.1099 -0.0763
17185TIP3    H172970   1.400   2.371  11.369  0.4509 -0.1235  0.6875
17185TIP3    H272971   1.367   2.516  11.340  1.7283 -0.1245 -0.9485
17186TIP3   OH272972   6.413   2.493  15.119  0.1631  0.5273  0.2679
17186TIP3    H172973   6.386   2.407  15.152 -1.0903  0.2686 -1.2970
17186TIP3    H272974   6.507   2.484  15.104 -0.0854 -0.8907 -0.6698
17187TIP3   OH272975   6.636   3.308  16.503 -0.2261  0.6168  0.7052
17187TIP3    H172976   6.668   3.255  16.576  0.9545  0.8828  0.3863
17187TIP3    H272977   6.711   3.321  16.446 -0.8105  1.5300  0.0990
17188TIP3   OH272978   2.367   0.151  15.329  0.0714  0.1645 -0.3885
17188TIP3    H172979   2.449   0.101  15.325 -0.9007 -1.4937 -0.8190
17188TIP3    H272980   2.386   0.233  15.284  1.3545 -0.4149 -0.9473
17189TIP3   OH272981   4.182   3.379   6.131 -0.4700  0.9525  0.1559
17189TIP3    H172982   4.172   3.401   6.223  0.8523  1.4263  0.1957
17189TIP3    H272983   4.220   3.457   6.091  0.4702  0.1961 -0.4750
17190TIP3   OH272984   3.899   4.726  10.785 -0.2239 -0.5013 -0.6639
17190TIP3    H172985   3.897   4.637  10.750  0.8488 -0.1348 -1.7488
17190TIP3    H272986   3.846   4.722  10.864 -0.0437 -2.1435 -0.5855
17191TIP3   OH272987   4.130   0.718   5.557 -0.3769  0.7851 -0.4033
17191TIP3    H172988   4.087   0.779   5.617 -1.0712  0.8124 -0.9192
17191TIP3    H272989   4.071   0.713   5.482  0.0681  0.0926 -0.7120
17192TIP3   OH272990   6.014   1.346   0.423 -0.1968 -0.3256 -0.7165
17192TIP3    H172991   5.966   1.429   0.422 -0.2941 -0.3863 -1.3598
17192TIP3    H272992   6.044   1.334   0.334  0.4593 -0.6200 -0.4612
17193TIP3   OH272993   5.148   2.748   1.174 -0.1778 -0.4252 -0.3644
17193TIP3    H172994   5.184   2.817   1.231  0.5773  1.0704 -2.5374
17193TIP3    H272995   5.225   2.707   1.135 -0.6790  0.5223 -2.4595
17194TIP3   OH272996   3.634   1.813  15.223 -0.2005  0.4205  0.4314
17194TIP3    H172997   3.545   1.778  15.211 -0.8086  1.6300  1.1338
17194TIP3    H272998   3.620   1.907  15.234  1.1640  0.5952  0.7813
17195TIP3   OH272999   3.935   5.438   2.074  0.1095  0.3193 -0.1500
17195TIP3    H173000   3.879   5.512   2.051  0.0721  0.4505  0.3462
17195TIP3    H273001   4.017   5.477   2.104  0.3094  0.1393 -0.4460
17196TIP3   OH273002   5.054   6.034   1.380  0.0130 -0.0629 -0.4109
17196TIP3    H173003   5.070   5.952   1.332 -1.9900 -0.5067 -0.4217
17196TIP3    H273004   4.960   6.033   1.398  0.3721  1.0064  1.8870
17197TIP3   OH273005   1.573   1.673  15.084  0.3894  0.5211  0.0976
17197TIP3    H173006   1.526   1.671  15.167  2.0820 -0.4643  1.0842
17197TIP3    H273007   1.600   1.765  15.074 -3.4303  1.6605 -1.5993
17198TIP3   OH273008   4.135   1.398   5.731 -0.1442  0.3337  0.6088
17198TIP3    H173009   4.138   1.490   5.756  0.6906  0.0944  1.4422
17198TIP3    H273010   4.113   1.352   5.812  0.4613 -0.2844  0.4349
17199TIP3   OH273011   2.234   4.954  10.716  0.0425 -0.1958  0.2103
17199TIP3    H173012   2.193   5.012  10.781  3.3634  3.3572 -0.4598
17199TIP3    H273013   2.207   4.991  10.631 -0.8454 -2.1468 -0.4107
17200TIP3   OH273014   0.130   3.285   0.081  0.1678  0.2990  0.1286
17200TIP3    H173015   0.177   3.341   0.143 -0.6270  2.5635 -1.1777
17200TIP3    H273016   0.041   3.322   0.080 -0.4160 -1.0749 -0.7361
17201TIP3   OH273017   3.076   6.807  12.595 -0.8326  0.4664 -0.5067
17201TIP3    H173018   3.135   6.748  12.548  4.1266  1.8955  3.0431
17201TIP3    H273019   3.078   6.888  12.545 -0.2538  0.3034 -0.7474
17202TIP3   OH273020   4.102   3.478  12.932 -0.3534  0.7624  0.0885
17202TIP3    H173021   4.150   3.395  12.937 -2.8674 -0.7300  1.5482
17202TIP3    H273022   4.108   3.504  12.840  0.4950 -1.0461 -0.4155
17203TIP3   OH273023   3.264   6.060   5.608 -0.7050  0.6132  0.5829
17203TIP3    H173024   3.338   6.090   5.661 -0.3630 -0.4319  0.7119
17203TIP3    H273025   3.239   6.137   5.557  3.0246  0.1040 -2.4768
17204TIP3   OH273026   3.918   4.604  13.081 -0.0060  0.1181  0.2128
17204TIP3    H173027   3.878   4.554  13.010  0.3453 -0.4347  0.3994
17204TIP3    H273028   3.957   4.538  13.139  2.5755  0.6524 -0.7661
17205TIP3   OH273029   1.245   5.290  15.800  0.2432 -0.2343  0.2501
17205TIP3    H173030   1.318   5.233  15.777  0.8458  0.4684  0.4010
17205TIP3    H273031   1.285   5.364  15.846 -0.5925  0.0068  0.6112
17206TIP3   OH273032   5.921   1.448  16.825  0.4224  0.6944  0.5340
17206TIP3    H173033   6.001   1.501  16.830 -0.0475  1.4090  0.5775
17206TIP3    H273034   5.896   1.450  16.733  2.2870 -2.3191 -0.1471
17207TIP3   OH273035   1.138   2.045   3.736  0.0709  1.0215 -0.1881
17207TIP3    H173036   1.147   2.052   3.641 -1.4546  0.8582 -0.3719
17207TIP3    H273037   1.113   2.133   3.764  2.0593  1.4622  0.2841
17208TIP3   OH273038   3.847   0.433   5.057  0.1365 -0.2527 -0.0454
17208TIP3    H173039   3.836   0.471   4.970  1.1114 -0.6127 -0.3343
17208TIP3    H273040   3.828   0.506   5.117  2.4898  0.9114 -0.6010
17209TIP3   OH273041   3.148   6.258  12.105  0.0985  0.4722  0.1894
17209TIP3    H173042   3.205   6.235  12.031 -0.4547  2.3538 -0.8866
17209TIP3    H273043   3.207   6.293  12.171  0.3784  0.6749 -0.1680
17210TIP3   OH273044   4.006   2.890   1.520 -0.4246 -0.1390 -0.3019
17210TIP3    H173045   4.011   2.815   1.460  0.0809 -0.8291  0.5701
17210TIP3    H273046   3.965   2.854   1.598  0.4062  0.3262  0.3605
17211TIP3   OH273047   0.716   4.889   4.946 -0.1404  0.7030 -0.5052
17211TIP3    H173048   0.684   4.869   5.034 -0.5741  0.9304 -0.6101
17211TIP3    H273049   0.808   4.860   4.947  1.2443  4.4259  1.3930
17212TIP3   OH273050   0.863   3.208   5.902 -0.3852  0.0449  0.1681
17212TIP3    H173051   0.870   3.113   5.902  0.7614  0.0989  1.4705
17212TIP3    H273052   0.814   3.229   5.822 -0.3880 -1.6027 -0.2894
17213TIP3   OH273053   5.087   0.685   1.177  0.6263 -0.2172 -0.2054
17213TIP3    H173054   5.101   0.778   1.194  1.3529 -0.7079  2.1206
17213TIP3    H273055   4.999   0.682   1.138  1.3600  1.5749 -2.2413
17214TIP3   OH273056   2.328   1.908  12.251 -0.0188 -0.1669 -0.3465
17214TIP3    H173057   2.329   1.814  12.235  1.3078 -0.1082 -0.7468
17214TIP3    H273058   2.369   1.919  12.337  1.9965  0.1556 -1.2805
17215TIP3   OH273059   3.573   6.564   4.783  0.2779  0.1049  0.9799
17215TIP3    H173060   3.517   6.486   4.782  1.3128 -0.6858  1.9386
17215TIP3    H273061   3.628   6.553   4.860  1.0061  1.4010  0.6733
17216TIP3   OH273062   6.477   6.110   5.540  0.4365 -0.7863  0.1980
17216TIP3    H173063   6.560   6.101   5.587  0.6359 -0.4508 -0.0882
17216TIP3    H273064   6.471   6.203   5.521  1.0949 -1.1169 -1.7840
17217TIP3   OH273065   2.537   0.030  11.734  0.1522 -0.8917  0.8886
17217TIP3    H173066   2.533  -0.064  11.717 -0.1111 -0.4799 -1.7230
17217TIP3    H273067   2.603   0.063  11.674 -1.4382  0.8933 -0.0116
17218TIP3   OH273068   6.716   1.612   2.308 -0.7953 -0.0066  0.4522
17218TIP3    H173069   6.709   1.533   2.361 -0.8771 -0.1765  0.1890
17218TIP3    H273070   6.704   1.582   2.218 -0.3435  0.2299  0.3066
17219TIP3   OH273071   0.598   0.522   1.322  0.7258 -0.8043  0.3789
17219TIP3    H173072   0.528   0.478   1.273  0.5111 -0.3967  0.3102
17219TIP3    H273073   0.557   0.547   1.405 -0.0935  1.9409 -0.7384
17220TIP3   OH273074   5.335   2.159  10.575 -0.7625 -0.3548  0.0662
17220TIP3    H173075   5.268   2.100  10.541 -1.9931 -0.1192  1.9340
17220TIP3    H273076   5.401   2.101  10.614 -0.8680 -0.5533 -0.0520
17221TIP3   OH273077   3.177   0.102  13.435 -0.2321  0.4905  0.0748
17221TIP3    H173078   3.272   0.094  13.434 -0.3711 -2.0552  0.1647
17221TIP3    H273079   3.149   0.040  13.503 -2.0654 -0.9414 -1.8712
17222TIP3   OH273080   4.662   0.581  11.391 -0.1973  0.4635 -0.2200
17222TIP3    H173081   4.668   0.488  11.412  1.8623  0.0871 -2.0239
17222TIP3    H273082   4.752   0.606  11.368 -0.6592  2.9608  0.4061
17223TIP3   OH273083   3.460   5.415   2.933 -0.3153  0.3082  0.4174
17223TIP3    H173084   3.424   5.496   2.969  0.0122  0.9248 -0.6013
17223TIP3    H273085   3.555   5.426   2.939 -0.2275 -1.0090  2.4275
17224TIP3   OH273086   5.541   1.972  13.611  0.0213  0.6307  0.1728
17224TIP3    H173087   5.635   1.988  13.599  0.2603 -0.7743 -0.0452
17224TIP3    H273088   5.537   1.889  13.659 -1.1142  0.4772 -0.1589
17225TIP3   OH273089   4.683   1.340  14.428 -0.4023 -0.1651 -1.1967
17225TIP3    H173090   4.754   1.281  14.453  2.4395  3.2301 -0.3943
17225TIP3    H273091   4.638   1.360  14.510  0.6605  1.1012 -0.8945
17226TIP3   OH273092   1.930   5.623  13.452 -0.2649 -0.4759  0.3112
17226TIP3    H173093   2.009   5.643  13.502 -0.2401 -0.1351  0.1357
17226TIP3    H273094   1.941   5.531  13.427 -0.1769 -0.5854  0.7461
17227TIP3   OH273095   4.317   2.175   1.415  0.0370  0.0941  0.2256
17227TIP3    H173096   4.407   2.170   1.447  0.5340  1.8479 -0.7653
17227TIP3    H273097   4.277   2.093   1.443  1.3836  0.0775  2.3286
17228TIP3   OH273098   1.995   1.629   4.992 -0.1148  0.1266  0.5610
17228TIP3    H173099   2.006   1.691   5.064  1.4246 -0.7601  1.1307
17228TIP3    H273100   2.070   1.643   4.935 -1.2750  0.7650 -0.8830
17229TIP3   OH273101   1.831   3.779  16.121  0.1711 -0.2150 -0.3877
17229TIP3    H173102   1.766   3.849  16.115 -0.1353 -0.2746  1.5232
17229TIP3    H273103   1.876   3.780  16.037 -2.6539 -0.5314 -2.0077
17230TIP3   OH273104   1.328   0.194  12.925  0.4384  0.1540 -0.2947
17230TIP3    H173105   1.365   0.106  12.934 -1.4067 -0.9137 -2.2241
17230TIP3    H273106   1.243   0.189  12.969 -0.1435  0.6181 -1.3200
17231TIP3   OH273107   1.994   6.183  14.035  0.0385  0.3427  0.3441
17231TIP3    H173108   2.048   6.121  13.986 -0.0598  0.0167  0.6405
17231TIP3    H273109   2.049   6.208  14.109 -0.3956 -0.3756  0.9226
17232TIP3   OH273110   4.893   4.948   0.882 -0.0066 -0.1212  0.1830
17232TIP3    H173111   4.806   4.908   0.889  0.0052  0.0424  1.3852
17232TIP3    H273112   4.954   4.877   0.901  0.0402  0.2672  1.5545
17233TIP3   OH273113   0.831   6.699  13.746 -0.2157 -0.0801  0.1879
17233TIP3    H173114   0.849   6.699  13.840  0.2162 -0.2750  0.1113
17233TIP3    H273115   0.885   6.770  13.711  1.4859 -1.4904 -0.2232
17234TIP3   OH273116   3.008   2.627  14.730  0.2738 -0.1513  0.3688
17234TIP3    H173117   3.031   2.667  14.646 -1.9561 -0.3676 -0.4143
17234TIP3    H273118   3.003   2.700  14.791 -1.2256  0.4755 -0.4561
17235TIP3   OH273119   0.748   0.089  15.899  0.2444  0.3497  0.4152
17235TIP3    H173120   0.839   0.059  15.896  0.2752  0.3062  1.5839
17235TIP3    H273121   0.698   0.020  15.855  0.6908  0.0705  0.3421
17236TIP3   OH273122   0.502   6.299  16.315 -0.1815 -0.2560  0.0210
17236TIP3    H173123   0.570   6.287  16.382 -1.3159 -0.7774  1.1116
17236TIP3    H273124   0.452   6.218  16.317  0.7103 -0.9758 -2.6268
17237TIP3   OH273125   3.934   6.788  10.872  0.4837  0.5177 -0.3214
17237TIP3    H173126   3.879   6.798  10.794 -0.3084  2.0393  0.3987
17237TIP3    H273127   3.886   6.833  10.942  0.7422 -1.5005  1.2916
17238TIP3   OH273128   0.379   3.788  12.123 -0.2723 -0.1612 -0.1194
17238TIP3    H173129   0.434   3.846  12.177  0.6114  1.0813 -2.2364
17238TIP3    H273130   0.414   3.700  12.139  0.7874  0.3234  0.3667
17239TIP3   OH273131   4.685   1.129   2.872 -0.2202  0.0440  0.3557
17239TIP3    H173132   4.610   1.151   2.927 -0.0097  1.0352  0.2715
17239TIP3    H273133   4.732   1.211   2.863  0.5733 -0.4498 -0.0572
17240TIP3   OH273134   6.064   0.058   6.185  0.0929 -0.2260  0.9165
17240TIP3    H173135   6.059   0.017   6.272  1.4661 -0.4821  0.8938
17240TIP3    H273136   6.024   0.144   6.197  0.1061 -0.3227  1.7566
17241TIP3   OH273137   1.656   3.453  12.837  0.2183  0.2592 -0.0299
17241TIP3    H173138   1.593   3.455  12.765 -0.8473 -0.8113  0.8341
17241TIP3    H273139   1.713   3.379  12.817 -1.2565 -1.2522  1.1379
17242TIP3   OH273140   5.764   1.082  16.491  0.2922  0.0749  0.1794
17242TIP3    H173141   5.686   1.081  16.435 -1.0270 -0.3244  1.9115
17242TIP3    H273142   5.809   1.000  16.471 -2.0528 -1.8505  2.0753
17243TIP3   OH273143   4.165   6.739  15.279 -0.4907 -0.4558 -0.1457
17243TIP3    H173144   4.071   6.731  15.263 -0.6960  1.2970 -0.0772
17243TIP3    H273145   4.205   6.723  15.193 -1.2271  3.3040 -1.3885
17244TIP3   OH273146   0.845   0.527  16.586 -0.5634 -0.0663 -0.5718
17244TIP3    H173147   0.760   0.485  16.579  0.1405 -1.9425  1.0314
17244TIP3    H273148   0.906   0.466  16.545  0.2250  0.4320 -0.1699
17245TIP3   OH273149   0.229   4.326   5.868  0.4023  0.5061  0.1487
17245TIP3    H173150   0.298   4.266   5.895 -1.3894 -0.9912  1.7320
17245TIP3    H273151   0.226   4.392   5.937  1.3150  1.5193 -0.7665
17246TIP3   OH273152   5.067   5.881  16.032 -0.6199  0.2965 -0.1986
17246TIP3    H173153   5.004   5.950  16.011  0.1113  0.3661 -2.4352
17246TIP3    H273154   5.116   5.868  15.951  0.9537 -1.1088  0.9108
17247TIP3   OH273155   2.516   0.617   0.168 -0.0171  0.1880  0.2675
17247TIP3    H173156   2.442   0.601   0.227  0.5397 -0.5977  0.7584
17247TIP3    H273157   2.568   0.683   0.213 -0.3012  0.5963  0.0114
17248TIP3   OH273158   2.559   2.792   6.326 -0.2653  0.0927 -0.5426
17248TIP3    H173159   2.627   2.735   6.361  1.6113  0.6812 -2.9688
17248TIP3    H273160   2.477   2.748   6.349  0.9283 -1.2238  1.5066
17249TIP3   OH273161   2.707   4.938   3.103  0.0327 -0.2586 -0.5451
17249TIP3    H173162   2.769   4.971   3.167  1.0546 -0.6826 -1.2856
17249TIP3    H273163   2.762   4.909   3.030 -1.1070  0.5982 -1.7862
17250TIP3   OH273164   0.320   2.045  15.088  0.1198  0.0479 -0.2262
17250TIP3    H173165   0.336   1.965  15.139 -1.7659 -0.3154 -0.1402
17250TIP3    H273166   0.364   2.114  15.137 -0.6352 -0.4926  1.2748
17251TIP3   OH273167   0.506   0.222  14.063  0.2436 -0.1791 -0.1323
17251TIP3    H173168   0.486   0.146  14.118 -1.9128  1.4297  1.4951
17251TIP3    H273169   0.515   0.295  14.125  1.3210  1.1075 -1.7006
17252TIP3   OH273170   4.770   3.682   5.955 -0.2749 -0.3907 -0.4559
17252TIP3    H173171   4.719   3.763   5.949 -1.8633 -1.2442  0.7475
17252TIP3    H273172   4.859   3.708   5.935 -0.6974  1.7225  0.1671
17253TIP3   OH273173   0.414   1.617   3.395 -0.7413  0.2401 -0.5736
17253TIP3    H173174   0.462   1.594   3.316 -0.4001 -1.3635  0.0649
17253TIP3    H273175   0.355   1.543   3.410 -1.0221  0.6619  0.4935
17254TIP3   OH273176   2.244   1.505  12.710  0.0281  0.5497  0.0698
17254TIP3    H173177   2.263   1.549  12.792  1.2574 -0.8334  0.5785
17254TIP3    H273178   2.294   1.554  12.644 -0.0123  0.9524  0.3372
17255TIP3   OH273179   4.661   3.789   4.295 -0.0244  0.0919  0.0137
17255TIP3    H173180   4.728   3.847   4.260  0.5742 -0.0893  0.8399
17255TIP3    H273181   4.679   3.704   4.256 -0.2652  0.2202 -0.3825
17256TIP3   OH273182   0.866   1.239  14.831  0.0411  0.2216 -0.6145
17256TIP3    H173183   0.935   1.181  14.863 -1.0905  0.2790  2.2742
17256TIP3    H273184   0.902   1.327  14.840  0.2489  0.1690 -0.9211
17257TIP3   OH273185   1.102   3.940  11.250  0.6121  0.6981  0.1628
17257TIP3    H173186   1.075   3.994  11.175  0.0170 -1.5077 -1.2931
17257TIP3    H273187   1.031   3.877  11.261  2.2768 -1.2541  0.3039
17258TIP3   OH273188   6.576   3.351   0.994  0.0004 -0.2103 -0.4188
17258TIP3    H173189   6.614   3.369   1.080 -0.4258 -0.9421 -0.0631
17258TIP3    H273190   6.488   3.318   1.013  0.2355 -1.2643 -1.0829
17259TIP3   OH273191   4.552   4.685   4.721 -0.2578 -0.4565  0.2250
17259TIP3    H173192   4.604   4.696   4.800 -0.7396 -1.1457  0.6504
17259TIP3    H273193   4.492   4.760   4.721  1.1950  0.7610 -0.6656
17260TIP3   OH273194   2.366   1.339   0.564 -0.1102  0.7810 -0.6405
17260TIP3    H173195   2.418   1.399   0.510  0.4798 -0.4622 -1.5011
17260TIP3    H273196   2.367   1.256   0.516  0.0497 -0.2514  1.0594
17261TIP3   OH273197   1.195   4.383   5.944  0.0840 -0.0816  1.2148
17261TIP3    H173198   1.183   4.288   5.952  3.5208 -0.6120  1.7362
17261TIP3    H273199   1.202   4.413   6.034  0.1532  0.5071  1.0150
17262TIP3   OH273200   4.524   2.461   3.743  0.1618  0.0820 -0.1033
17262TIP3    H173201   4.507   2.535   3.801 -1.7613 -0.9902  0.8212
17262TIP3    H273202   4.506   2.494   3.655  0.3248  0.9794  0.1978
17263TIP3   OH273203   3.835   6.386   0.814 -0.1526 -0.7836  0.6180
17263TIP3    H173204   3.773   6.402   0.743 -0.0317 -0.0293  0.6804
17263TIP3    H273205   3.902   6.454   0.805  0.2028 -1.0625  1.0724
17264TIP3   OH273206   6.639   2.081   2.023 -0.7215 -0.8412 -0.6232
17264TIP3    H173207   6.728   2.097   2.056 -1.5820  1.7524  0.6734
17264TIP3    H273208   6.625   2.150   1.959 -2.4721  0.0789  0.6688
17265TIP3   OH273209   2.522   4.187  11.667 -0.0621 -0.6858 -0.6403
17265TIP3    H173210   2.491   4.105  11.630 -1.1177 -0.7598  0.3597
17265TIP3    H273211   2.616   4.189  11.645 -0.3561 -1.3582 -2.0733
17266TIP3   OH273212   2.490   4.094   4.629 -0.8806 -0.0041 -0.2088
17266TIP3    H173213   2.569   4.131   4.670 -1.7871  1.6642  0.1140
17266TIP3    H273214   2.441   4.056   4.702  0.2918 -2.5143 -0.5975
17267TIP3   OH273215   5.600   5.029   5.728 -0.4333 -0.0834 -0.1233
17267TIP3    H173216   5.659   4.957   5.708  1.6196  1.0446  1.5257
17267TIP3    H273217   5.656   5.098   5.763 -2.5627  1.6077  0.1970
17268TIP3   OH273218   2.089   1.610  13.739 -0.2821 -0.1268  0.6684
17268TIP3    H173219   2.017   1.581  13.683  1.0412  0.2111 -1.3518
17268TIP3    H273220   2.050   1.674  13.798 -1.5626  0.4679 -0.7401
17269TIP3   OH273221   6.781   5.766   3.694 -0.4723  0.0562  0.1536
17269TIP3    H173222   6.721   5.838   3.673  0.1199  1.2676  2.3314
17269TIP3    H273223   6.834   5.799   3.766  1.1325 -1.9028 -0.0396
17270TIP3   OH273224   2.330   2.663   5.547 -0.4536  0.2838 -0.4521
17270TIP3    H173225   2.360   2.748   5.580 -0.0180  0.2062 -0.6368
17270TIP3    H273226   2.283   2.624   5.621  0.4889  0.1236  0.0794
17271TIP3   OH273227   5.045   6.669  14.204 -0.6655  0.2923 -0.2094
17271TIP3    H173228   4.976   6.693  14.143 -1.4896 -2.4046 -0.4984
17271TIP3    H273229   4.999   6.636  14.281  0.3672  2.5818  1.4989
17272TIP3   OH273230   4.371   0.599   5.596  0.1361  0.5690  0.0666
17272TIP3    H173231   4.393   0.595   5.689 -1.0518  1.4125  0.4076
17272TIP3    H273232   4.291   0.652   5.592  0.6675  1.3332 -1.5252
17273TIP3   OH273233   0.372   5.503  15.837 -0.3578 -0.7498  0.1723
17273TIP3    H173234   0.436   5.573  15.848  0.5481 -1.6396  0.6899
17273TIP3    H273235   0.422   5.430  15.801 -1.2674 -1.1698 -0.2744
17274TIP3   OH273236   0.980   5.882  10.716  0.1432 -0.0956  0.0105
17274TIP3    H173237   0.915   5.827  10.760 -0.4944  1.7564  1.5653
17274TIP3    H273238   0.930   5.929  10.649  0.6811 -1.3072 -1.3010
17275TIP3   OH273239   2.337   1.262   4.607  0.8970 -0.2648 -0.0781
17275TIP3    H173240   2.377   1.314   4.538 -2.2431  3.3212  0.4025
17275TIP3    H273241   2.249   1.243   4.574  0.4142 -1.2595  1.6660
17276TIP3   OH273242   0.924   4.630  12.746  0.4048  0.4688 -0.2687
17276TIP3    H173243   0.983   4.691  12.789 -0.7907  1.1710  0.4169
17276TIP3    H273244   0.852   4.617  12.808 -0.1689 -0.3601 -1.0695
17277TIP3   OH273245   2.028   6.189   1.842 -0.2660 -0.3895 -0.2477
17277TIP3    H173246   2.074   6.107   1.861  0.9018  0.0802 -0.9596
17277TIP3    H273247   1.992   6.216   1.926 -0.8720 -1.7410 -0.0411
17278TIP3   OH273248   3.331   4.912  15.071 -0.1601 -0.3016  0.2006
17278TIP3    H173249   3.302   4.921  14.980  0.0650  1.1595  0.2426
17278TIP3    H273250   3.422   4.886  15.065  0.0894  0.5742 -0.0278
17279TIP3   OH273251   0.418   0.493  15.041  0.5455 -0.4091 -0.8109
17279TIP3    H173252   0.444   0.401  15.044 -0.5836 -0.7805 -1.8617
17279TIP3    H273253   0.432   0.519  14.950 -1.3769 -0.2316 -1.0896
17280TIP3   OH273254   6.795   0.856   1.464  0.4845  0.5713 -0.2756
17280TIP3    H173255   6.800   0.766   1.497  1.8604  0.2806 -1.2177
17280TIP3    H273256   6.885   0.877   1.438 -0.2689  1.2904 -2.4892
17281TIP3   OH273257   1.835   3.565  14.594 -0.3635  0.5084  0.4743
17281TIP3    H173258   1.837   3.493  14.656  0.5443  0.2168  0.1305
17281TIP3    H273259   1.908   3.548  14.535  0.0817  1.8754  0.5813
17282TIP3   OH273260   0.167   0.357   5.944 -0.4596  0.5246 -0.2114
17282TIP3    H173261   0.148   0.288   5.879 -0.3772  1.4452 -1.2382
17282TIP3    H273262   0.135   0.321   6.026  0.7949 -1.3001 -0.4643
17283TIP3   OH273263   3.422   6.283  15.710  0.0242  0.3678  0.2267
17283TIP3    H173264   3.441   6.214  15.647 -2.4000 -0.8972  0.7803
17283TIP3    H273265   3.475   6.260  15.787  3.6507  2.3737 -1.4289
17284TIP3   OH273266   0.577   4.109   0.589  0.5120  0.3859  0.3428
17284TIP3    H173267   0.644   4.040   0.588 -0.8293 -0.9857  0.8724
17284TIP3    H273268   0.496   4.063   0.567  0.0939  2.4527 -3.1957
17285TIP3   OH273269   3.636   1.744   6.160  0.7844 -0.2059  0.1624
17285TIP3    H173270   3.638   1.832   6.196 -1.4783  0.2894 -0.7804
17285TIP3    H273271   3.543   1.723   6.153  1.2611 -2.2531 -0.6552
17286TIP3   OH273272   1.107   5.216   5.773 -0.0086  0.5280 -0.4788
17286TIP3    H173273   1.145   5.223   5.686  0.6976 -0.6457 -0.2776
17286TIP3    H273274   1.180   5.231   5.833 -0.4924  1.3453 -0.0761
17287TIP3   OH273275   0.841   3.288   3.557  0.3183  0.1722  0.0560
17287TIP3    H173276   0.822   3.245   3.473  1.9761 -1.3311  0.3918
17287TIP3    H273277   0.926   3.330   3.543 -0.0282  1.0565  0.5836
17288TIP3   OH273278   0.169   0.544  16.022 -0.4450  0.4332  0.0854
17288TIP3    H173279   0.199   0.533  16.112  1.7328  1.8724 -0.4057
17288TIP3    H273280   0.217   0.477  15.973  0.0156  1.0578 -0.3231
17289TIP3   OH273281   0.636   3.675  15.765 -0.3736 -0.1580  0.1459
17289TIP3    H173282   0.606   3.765  15.778  0.7973  0.0636  1.5923
17289TIP3    H273283   0.670   3.648  15.850  0.9344 -1.3438 -0.6959
17290TIP3   OH273284   6.694   1.933   1.736  0.3953 -0.1963  0.4263
17290TIP3    H173285   6.703   1.957   1.828  0.4969  1.6303 -0.0131
17290TIP3    H273286   6.751   1.995   1.689 -1.0158  0.0937 -0.9974
17291TIP3   OH273287   4.112   6.312   3.274 -0.4328 -0.5152 -0.1757
17291TIP3    H173288   4.103   6.397   3.316 -1.8375 -0.6962 -0.0512
17291TIP3    H273289   4.034   6.263   3.303  0.8559 -2.2015  0.5948
17292TIP3   OH273290   6.638   2.595   0.668  0.2883  0.2563 -0.7590
17292TIP3    H173291   6.563   2.550   0.706 -0.4195  2.8398  1.1905
17292TIP3    H273292   6.600   2.665   0.615  1.2686  1.4763  0.0908
17293TIP3   OH273293   3.490   5.496   5.817  0.0301  0.0539  0.2789
17293TIP3    H173294   3.444   5.512   5.735  0.8094 -0.0195 -0.1785
17293TIP3    H273295   3.495   5.582   5.859  0.3646  0.2447 -0.1422
17294TIP3   OH273296   2.496   2.752   3.243 -0.4038  0.4020  0.2521
17294TIP3    H173297   2.443   2.777   3.167 -2.5688  0.5223  1.7402
17294TIP3    H273298   2.458   2.669   3.272  1.4156 -0.4599  0.3232
17295TIP3   OH273299   1.617   0.656   0.342  0.0517  0.3325  0.1025
17295TIP3    H173300   1.596   0.747   0.366  2.9996  1.1302  0.0688
17295TIP3    H273301   1.616   0.608   0.424 -1.0359  0.4937  0.1905
17296TIP3   OH273302   5.558   6.594   0.294  0.2822  0.5316 -0.2024
17296TIP3    H173303   5.501   6.542   0.350  0.5873  1.8219  1.3660
17296TIP3    H273304   5.512   6.598   0.210 -0.0886 -1.6110 -0.1385
17297TIP3   OH273305   3.184   3.612  11.537 -0.3873 -0.4234 -0.3120
17297TIP3    H173306   3.240   3.616  11.460 -0.9729 -1.8654 -0.8417
17297TIP3    H273307   3.238   3.570  11.604  0.1453  0.8931  0.1180
17298TIP3   OH273308   3.960   3.332   5.462  0.4395 -0.2494  0.6163
17298TIP3    H173309   3.978   3.362   5.373 -1.3999  2.3485  0.9987
17298TIP3    H273310   3.901   3.399   5.498 -0.9489 -2.5390  2.9287
17299TIP3   OH273311   4.099   1.505  12.248 -0.1867  0.2526  0.2504
17299TIP3    H173312   4.192   1.486  12.242  0.0571  1.7219 -1.7521
17299TIP3    H273313   4.055   1.426  12.216  0.3748 -0.2823  0.7831
17300TIP3   OH273314   6.003   2.003  16.488  0.4189  0.0341  0.2729
17300TIP3    H173315   5.952   2.069  16.441  2.8559  0.5246 -1.9203
17300TIP3    H273316   5.974   1.919  16.450 -1.5524 -0.1286  1.9529
17301TIP3   OH273317   4.255   1.955   3.836  0.0463  0.0022 -0.9109
17301TIP3    H173318   4.236   2.047   3.855 -0.6518 -0.6606  2.1446
17301TIP3    H273319   4.321   1.931   3.901  0.0722 -1.7195 -1.5279
17302TIP3   OH273320   1.355   0.873   3.808 -0.1535  0.3149 -0.8003
17302TIP3    H173321   1.307   0.802   3.850 -0.2086  0.9308  0.2120
17302TIP3    H273322   1.289   0.940   3.792  0.3558  1.2305  0.7440
17303TIP3   OH273323   5.410   0.302  12.419  0.4734  0.2196 -0.3457
17303TIP3    H173324   5.403   0.280  12.512  2.8921 -2.5983 -0.7105
17303TIP3    H273325   5.364   0.231  12.374 -0.2342  1.2893 -1.3576
17304TIP3   OH273326   2.296   6.531  12.175  0.6565 -0.0578 -0.3856
17304TIP3    H173327   2.328   6.553  12.263  0.7155 -2.2289  0.1784
17304TIP3    H273328   2.351   6.583  12.117  0.5717  1.4826  0.8316
17305TIP3   OH273329   0.057   4.545  11.534  0.2402  0.2154  0.3227
17305TIP3    H173330  -0.012   4.544  11.467 -0.3699 -0.1074  0.9377
17305TIP3    H273331   0.074   4.638  11.549  1.4611  0.3072 -1.3364
17306TIP3   OH273332   0.217   2.381   5.032  0.5471  0.0837  0.7559
17306TIP3    H173333   0.181   2.441   5.097 -1.3638 -1.3113  1.0521
17306TIP3    H273334   0.242   2.437   4.958  0.0270  1.3565  1.5283
17307TIP3   OH273335   3.270   2.039  12.693 -0.1920  0.2804  0.4042
17307TIP3    H173336   3.275   1.988  12.613  0.0092  2.2650 -0.9369
17307TIP3    H273337   3.355   2.084  12.699 -1.0065  1.9109  0.4304
17308TIP3   OH273338   5.350   3.118   0.541 -0.7233 -0.0476 -0.3267
17308TIP3    H173339   5.306   3.199   0.564 -1.0334 -0.5007  0.7481
17308TIP3    H273340   5.282   3.050   0.548  0.4375 -1.1309  3.6713
17309TIP3   OH273341   4.409   1.179   3.046 -0.2152  0.2927 -0.1746
17309TIP3    H173342   4.403   1.264   3.091 -0.2575  0.6148 -0.7712
17309TIP3    H273343   4.383   1.199   2.956 -0.7031 -0.4542 -0.2015
17310TIP3   OH273344   6.682   0.541   1.521  0.1227  0.2068  0.1329
17310TIP3    H173345   6.626   0.511   1.594 -0.1419 -1.0818 -0.5651
17310TIP3    H273346   6.622   0.552   1.448  0.6402 -0.2256 -0.3629
17311TIP3   OH273347   2.347   1.510   3.954  0.0597  0.1811  0.2253
17311TIP3    H173348   2.314   1.428   3.990 -0.0953  0.1797  0.0831
17311TIP3    H273349   2.424   1.484   3.902 -0.1539  0.0890 -0.0488
17312TIP3   OH273350   4.747   2.338   5.200  0.0131 -0.0624 -0.1129
17312TIP3    H173351   4.755   2.433   5.192  5.0929 -0.2455 -0.8965
17312TIP3    H273352   4.737   2.306   5.110 -1.1609 -0.2989  0.0954
17313TIP3   OH273353   2.676   0.245  14.900  0.2501  0.2638  0.6026
17313TIP3    H173354   2.733   0.221  14.827 -0.2699  0.8250 -0.0044
17313TIP3    H273355   2.589   0.254  14.860 -0.2085 -0.2891  1.4577
17314TIP3   OH273356   5.953   4.724  14.534  0.1237 -0.5053  0.3783
17314TIP3    H173357   5.963   4.735  14.628 -0.4019 -0.6093  0.4516
17314TIP3    H273358   5.989   4.637  14.515 -1.8656 -1.5008  0.8592
17315TIP3   OH273359   4.576   4.488   5.288 -0.6664  0.8917  0.1337
17315TIP3    H173360   4.613   4.406   5.321  1.3817  1.4605 -0.6172
17315TIP3    H273361   4.515   4.460   5.220  1.2360 -0.0319 -1.3104
17316TIP3   OH273362   5.970   0.980   4.147  0.3885 -0.1820  0.1138
17316TIP3    H173363   5.986   0.887   4.160 -1.0292 -0.4732 -0.0384
17316TIP3    H273364   5.877   0.986   4.126  0.0163  1.4257  1.8986
17317TIP3   OH273365   6.092   3.538  16.093  0.0649 -0.2352  0.4425
17317TIP3    H173366   6.060   3.450  16.071  0.1349  0.0203 -0.7003
17317TIP3    H273367   6.047   3.559  16.175 -1.3360 -0.6221 -0.1882
17318TIP3   OH273368   1.976   6.166   3.574 -0.2819 -0.2807  0.7432
17318TIP3    H173369   1.956   6.079   3.539  0.1496 -0.8391  1.8480
17318TIP3    H273370   2.021   6.149   3.657  0.1419  0.9956  0.7946
17319TIP3   OH273371   2.713   3.605  14.992 -0.0749 -0.0697 -0.5817
17319TIP3    H173372   2.764   3.671  15.040 -0.0419  0.0292 -0.7511
17319TIP3    H273373   2.648   3.656  14.944  0.5925 -0.0672 -1.5117
17320TIP3   OH273374   0.084   2.375  14.105  0.1213  0.2158 -0.2572
17320TIP3    H173375   0.093   2.292  14.150  1.4462 -0.1822 -1.1993
17320TIP3    H273376  -0.008   2.380  14.081 -0.3296 -0.1596  1.2985
17321TIP3   OH273377   6.713   0.698  11.977 -0.5776 -0.2346 -0.1349
17321TIP3    H173378   6.628   0.656  11.995 -0.3533 -0.7333 -0.2209
17321TIP3    H273379   6.778   0.631  11.998 -0.2298 -0.1123 -0.7725
17322TIP3   OH273380   5.370   0.914  12.981  0.0876 -0.3180 -0.0938
17322TIP3    H173381   5.366   0.922  12.885 -1.1336 -0.4206 -0.0692
17322TIP3    H273382   5.306   0.977  13.013  0.3566 -0.4120  0.6561
17323TIP3   OH273383   2.073   5.822  14.065 -0.3361 -0.5798  0.0713
17323TIP3    H173384   1.989   5.861  14.091 -0.1619 -0.2642  0.1656
17323TIP3    H273385   2.103   5.875  13.992  0.8032  0.6532  1.3842
17324TIP3   OH273386   4.833   1.771   1.905 -0.1785  0.2652  0.4091
17324TIP3    H173387   4.796   1.757   1.992 -2.6989 -1.0545 -0.7596
17324TIP3    H273388   4.876   1.688   1.882 -0.5956  0.1754 -0.0704
17325TIP3   OH273389   2.215   1.287  11.132  0.2449  0.4352 -0.0092
17325TIP3    H173390   2.188   1.377  11.117  0.2492  0.4020 -0.2274
17325TIP3    H273391   2.219   1.248  11.044  1.8657  0.6833 -0.0740
17326TIP3   OH273392   2.319   1.133   6.318  0.0221 -0.0323  0.0182
17326TIP3    H173393   2.246   1.190   6.294 -2.4469 -1.9699  2.1739
17326TIP3    H273394   2.326   1.070   6.246 -0.2606  0.3662 -0.3572
17327TIP3   OH273395   1.522   3.721   0.753 -0.2501  0.1351  0.1623
17327TIP3    H173396   1.523   3.743   0.660 -1.0407 -1.7752 -0.3439
17327TIP3    H273397   1.429   3.706   0.773  0.0282 -0.6642  0.9340
17328TIP3   OH273398   0.154   4.559  13.173  0.2910  0.1039 -0.5898
17328TIP3    H173399   0.189   4.542  13.261  1.4499  3.1375 -0.3545
17328TIP3    H273400   0.060   4.573  13.188  0.5872  1.2816  0.3207
17329TIP3   OH273401   0.940   4.887   3.607  0.0460 -0.1491  0.0769
17329TIP3    H173402   1.007   4.840   3.658  0.7720  1.3427  0.5619
17329TIP3    H273403   0.891   4.818   3.562  1.5617 -1.3214  0.1447
17330TIP3   OH273404   2.193   4.975   0.698  0.4581  0.2708  0.0624
17330TIP3    H173405   2.107   4.936   0.718  0.1518  0.7653 -0.2844
17330TIP3    H273406   2.254   4.925   0.752 -0.1248  0.3281  0.7942
17331TIP3   OH273407   1.167   0.329   3.752 -1.1070  0.1988  0.2291
17331TIP3    H173408   1.247   0.375   3.725 -0.8889 -0.7235 -0.7775
17331TIP3    H273409   1.145   0.274   3.676 -1.9303 -0.5668  1.0103
17332TIP3   OH273410   0.565   0.112  10.865 -0.4089 -0.4039  0.0291
17332TIP3    H173411   0.657   0.092  10.848 -0.4532 -0.8366  0.2856
17332TIP3    H273412   0.554   0.202  10.834  0.3384  0.0002  0.8841
17333TIP3   OH273413   5.260   2.951   2.888 -0.5435  0.2334 -0.4885
17333TIP3    H173414   5.308   3.034   2.881 -0.5534  0.1485 -1.9950
17333TIP3    H273415   5.271   2.924   2.979  0.2277  1.4341 -0.2039
17334TIP3   OH273416   0.138   5.862   5.908 -0.1420  0.1561 -0.4460
17334TIP3    H173417   0.122   5.776   5.946 -2.0676 -0.2606 -2.0019
17334TIP3    H273418   0.062   5.915   5.933  0.4375  1.0465 -0.5025
17335TIP3   OH273419   0.837   1.652  16.013 -0.0335 -0.0987 -0.0939
17335TIP3    H173420   0.762   1.656  16.073  2.1370  2.8363  2.7573
17335TIP3    H273421   0.900   1.595  16.058  0.2207 -1.0131 -1.5431
17336TIP3   OH273422   3.596   2.876   3.873  0.2821  0.0769 -0.4169
17336TIP3    H173423   3.577   2.784   3.858  2.1284 -0.4540  0.2326
17336TIP3    H273424   3.632   2.907   3.789  0.0720  0.0994 -0.4998
17337TIP3   OH273425   0.062   4.068   0.400  0.1591 -0.5832 -0.1956
17337TIP3    H173426   0.026   3.987   0.366 -0.8992 -0.4730  0.6081
17337TIP3    H273427   0.008   4.137   0.362 -1.4721 -0.4847  2.0768
17338TIP3   OH273428   6.550   4.814  10.908 -0.1084  0.0053  0.4786
17338TIP3    H173429   6.475   4.867  10.932 -0.7019  0.1321 -1.5016
17338TIP3    H273430   6.626   4.864  10.938 -0.7725 -0.0984  2.4386
17339TIP3   OH273431   1.430   3.953  16.574 -1.1664  0.2701 -0.0648
17339TIP3    H173432   1.361   3.888  16.558 -0.8063  0.2642 -1.7577
17339TIP3    H273433   1.468   3.927  16.658 -2.6047 -0.2654  0.4568
17340TIP3   OH273434   0.826   5.531  16.471  0.2442  0.7535  0.8481
17340TIP3    H173435   0.733   5.535  16.493  0.6133 -0.7269  2.9490
17340TIP3    H273436   0.867   5.594  16.530  0.6693  0.7300  0.5749
17341TIP3   OH273437   5.409   2.156   1.198  0.1408  0.0797  0.1010
17341TIP3    H173438   5.432   2.235   1.150  3.4029  0.4518  1.9846
17341TIP3    H273439   5.398   2.185   1.289  0.5400 -1.4613  0.6724
17342TIP3   OH273440   4.845   6.240   3.666 -0.4265  0.3140 -0.2789
17342TIP3    H173441   4.785   6.187   3.719 -0.4356  0.5162 -0.0880
17342TIP3    H273442   4.906   6.278   3.729  0.7440 -0.9610 -0.5902
17343TIP3   OH273443   1.064   0.944   3.244  0.4701 -0.0302  0.6403
17343TIP3    H173444   1.048   0.870   3.303 -1.6260  0.7732  1.2000
17343TIP3    H273445   1.106   1.010   3.300  0.5376 -0.0930  0.6634
17344TIP3   OH273446   1.348   6.384  10.665 -0.2817 -0.2961  0.7915
17344TIP3    H173447   1.408   6.409  10.595  0.6481  1.7333  2.2222
17344TIP3    H273448   1.293   6.315  10.626  0.6273  0.2722 -1.6800
17345TIP3   OH273449   2.763   1.805   0.920 -0.1316 -0.6635 -0.5712
17345TIP3    H173450   2.792   1.716   0.940  0.5962 -0.7251 -1.8130
17345TIP3    H273451   2.693   1.793   0.856  0.4982 -0.3249 -1.3391
17346TIP3   OH273452   5.483   5.532   5.484  0.0912 -0.3675 -0.7454
17346TIP3    H173453   5.520   5.541   5.396 -1.2313 -3.0930 -1.6866
17346TIP3    H273454   5.399   5.578   5.480  0.0592 -0.4395 -0.9168
17347TIP3   OH273455   2.938   5.724  11.134 -0.0757  0.1113  0.0133
17347TIP3    H173456   3.021   5.678  11.130  0.0440  0.2945  0.3043
17347TIP3    H273457   2.923   5.738  11.228 -0.5363 -0.1064 -0.0242
17348TIP3   OH273458   6.063   5.992  11.052 -0.5726  0.6597  0.0905
17348TIP3    H173459   6.103   6.030  10.973 -0.9772 -0.0303 -0.4566
17348TIP3    H273460   5.992   5.937  11.019  0.8753 -1.7317  0.7219
17349TIP3   OH273461   0.056   5.513  16.210  0.3380  0.3063 -0.2012
17349TIP3    H173462   0.069   5.476  16.297 -0.3519  0.1630 -0.1520
17349TIP3    H273463   0.139   5.556  16.189  0.8530 -0.5166  0.1032
17350TIP3   OH273464   2.168   4.442  10.992  0.5809 -0.3111  0.1671
17350TIP3    H173465   2.182   4.395  11.074 -0.6041 -0.6045  0.2122
17350TIP3    H273466   2.133   4.376  10.932 -0.5765  0.3756  0.0616
17351TIP3   OH273467   2.317   4.199   4.038 -0.2684 -0.7110 -0.4715
17351TIP3    H173468   2.317   4.239   3.951 -2.4317 -0.2696 -0.3298
17351TIP3    H273469   2.285   4.269   4.096 -0.0672 -1.3812  0.4640
17352TIP3   OH273470   6.218   2.602   0.874  0.3048 -0.0619 -0.0440
17352TIP3    H173471   6.165   2.536   0.830 -0.6092  0.1695  0.6741
17352TIP3    H273472   6.216   2.677   0.814 -1.0085  0.2845  0.3810
17353TIP3   OH273473   1.258   2.590   3.063  0.9771  0.4793 -0.3338
17353TIP3    H173474   1.221   2.644   2.993  0.5252  0.7053  0.0736
17353TIP3    H273475   1.183   2.544   3.101  1.2614  0.1167 -0.2029
17354TIP3   OH273476   4.179   6.151   6.206 -0.0244  0.4095  0.1367
17354TIP3    H173477   4.196   6.083   6.272  0.0464  0.8655  0.5912
17354TIP3    H273478   4.229   6.122   6.129  0.0241 -0.0412  0.3334
17355TIP3   OH273479   1.947   3.273  11.224 -0.4890 -0.0422 -0.0896
17355TIP3    H173480   1.937   3.285  11.319  0.6841  1.0965 -0.0888
17355TIP3    H273481   1.968   3.361  11.191 -0.4702 -0.5052 -1.3549
17356TIP3   OH273482   6.222   5.504  12.314 -0.3618  0.4013  0.4561
17356TIP3    H173483   6.216   5.541  12.402 -0.5276  0.0266  0.6048
17356TIP3    H273484   6.140   5.455  12.303 -0.4623  0.6693 -0.0116
17357TIP3   OH273485   1.500   3.387   2.606  0.3554 -0.2119  0.0089
17357TIP3    H173486   1.471   3.327   2.674 -0.6579 -0.0761 -0.2719
17357TIP3    H273487   1.513   3.470   2.651  0.2763 -0.2746  0.1483
17358TIP3   OH273488   4.669   6.235  14.248 -0.1338 -0.2367  0.0391
17358TIP3    H173489   4.663   6.326  14.219  0.6263  0.6121  2.3644
17358TIP3    H273490   4.723   6.237  14.326 -1.6254 -2.4404  1.2640
17359TIP3   OH273491   5.236   1.614   4.348  0.2465 -0.0703  0.0241
17359TIP3    H173492   5.296   1.686   4.330 -1.9503  2.2278  1.2768
17359TIP3    H273493   5.149   1.650   4.333 -1.0346 -2.0222  2.0281
17360TIP3   OH273494   3.020   3.729   5.536  0.0937 -0.0475 -0.0998
17360TIP3    H173495   3.011   3.780   5.616  2.6525 -2.2408  1.7755
17360TIP3    H273496   2.981   3.784   5.468 -0.8396  2.5863  2.3549
17361TIP3   OH273497   0.088   0.918  13.433 -0.0692  0.1931  0.0994
17361TIP3    H173498   0.017   0.920  13.497  1.1984  0.7472  1.5415
17361TIP3    H273499   0.146   0.989  13.460  1.5226 -0.8508 -0.4794
17362TIP3   OH273500   2.372   5.211  12.416 -0.2964  0.2126  0.5748
17362TIP3    H173501   2.413   5.131  12.383 -2.7031 -0.6181 -0.6283
17362TIP3    H273502   2.370   5.269  12.340  1.8696  1.6968  1.5557
17363TIP3   OH273503   2.147   5.338   5.458 -0.1639  0.1049 -0.0580
17363TIP3    H173504   2.231   5.294   5.447  0.2601  0.7728  0.4850
17363TIP3    H273505   2.106   5.294   5.532 -0.3107 -0.2417 -0.3428
17364TIP3   OH273506   0.316   1.507   2.053 -0.1424 -0.2191  0.4541
17364TIP3    H173507   0.353   1.427   2.091  3.8431  1.8057  1.2933
17364TIP3    H273508   0.366   1.521   1.973 -1.4017  1.0194 -0.1533
17365TIP3   OH273509   4.304   4.566  13.663 -0.6802 -0.5277  0.1637
17365TIP3    H173510   4.365   4.537  13.596 -0.8041  0.4669 -0.4108
17365TIP3    H273511   4.219   4.570  13.618 -0.5896  1.1006  0.0682
17366TIP3   OH273512   1.180   2.008   5.656  0.0878  0.3558  1.1214
17366TIP3    H173513   1.249   2.074   5.654  0.8295 -0.3836 -1.5896
17366TIP3    H273514   1.175   1.975   5.566 -1.5181 -1.9981  1.9660
17367TIP3   OH273515   2.994   6.259  15.798  0.3181 -0.4853 -0.0691
17367TIP3    H173516   2.940   6.216  15.863 -0.4070 -0.5808 -0.7198
17367TIP3    H273517   2.933   6.287  15.730  0.8855  0.7414 -0.1149
17368TIP3   OH273518   3.214   4.663   4.349  0.1476 -0.0206  0.6542
17368TIP3    H173519   3.302   4.695   4.370  0.0846  1.8953 -1.5903
17368TIP3    H273520   3.225   4.570   4.333  2.4258  0.6355 -2.3949
17369TIP3   OH273521   1.365   0.632  15.028 -0.4656  0.0151  0.1515
17369TIP3    H173522   1.408   0.555  14.991  0.0341 -0.1129  0.9724
17369TIP3    H273523   1.283   0.640  14.979  0.0372 -0.3150 -0.7706
17370TIP3   OH273524   5.980   5.555  13.446 -0.3149  0.6644  0.3429
17370TIP3    H173525   6.034   5.476  13.452 -1.5272 -0.2668 -0.3279
17370TIP3    H273526   5.929   5.555  13.527  0.4196  1.3402  0.8115
17371TIP3   OH273527   5.148   0.356  15.061  0.2794  0.8455 -0.3877
17371TIP3    H173528   5.146   0.369  14.966  2.6567 -1.2582 -0.8237
17371TIP3    H273529   5.208   0.424  15.093  0.4484  0.7763 -0.5555
17372TIP3   OH273530   5.076   6.147  15.006  0.4672  0.2662 -0.0741
17372TIP3    H173531   5.029   6.224  15.038 -0.7400 -0.7121  0.5958
17372TIP3    H273532   5.118   6.177  14.925  1.0464  1.9437  0.7874
17373TIP3   OH273533   6.405   3.858  16.133  0.0889  0.2809  0.1822
17373TIP3    H173534   6.346   3.844  16.208 -0.1993 -0.7146 -0.2104
17373TIP3    H273535   6.431   3.950  16.141  1.0510 -0.1049  2.2010
17374TIP3   OH273536   1.138   6.748   0.699 -0.3664 -0.0056 -0.0999
17374TIP3    H173537   1.124   6.749   0.794 -0.8846  0.1835 -0.1729
17374TIP3    H273538   1.057   6.711   0.663  0.2705 -1.1372 -0.4089
17375TIP3   OH273539   3.253   0.719  12.101 -0.1442  0.0913 -0.1439
17375TIP3    H173540   3.300   0.635  12.096 -2.1679 -1.2585  1.6772
17375TIP3    H273541   3.204   0.724  12.020  1.6263  0.6239 -1.2377
17376TIP3   OH273542   1.023   3.559   6.221  0.8607 -0.3052 -0.4820
17376TIP3    H173543   0.978   3.504   6.285  1.5702  0.1327  0.4242
17376TIP3    H273544   1.024   3.646   6.261  0.4273  0.2166 -1.5508
17377TIP3   OH273545   4.876   0.405  16.700  0.0214 -0.3382  0.1300
17377TIP3    H173546   4.899   0.409  16.608  0.0090 -1.1118  0.0901
17377TIP3    H273547   4.783   0.381  16.701  0.0619 -0.4876  0.3499
17378TIP3   OH273548   0.617   0.461  13.073 -0.0794 -0.2239 -0.7137
17378TIP3    H173549   0.555   0.483  13.143  0.1659 -1.1142 -0.2024
17378TIP3    H273550   0.568   0.404  13.015  0.1875 -0.7431 -0.4323
17379TIP3   OH273551   0.545   5.767   3.042 -0.1700  0.1125  0.0214
17379TIP3    H173552   0.479   5.702   3.066  2.3326 -2.0798  1.4327
17379TIP3    H273553   0.562   5.750   2.949 -0.9625  0.1505 -0.1424
17380TIP3   OH273554   4.635   1.522  10.663 -0.8264  0.0418 -0.1597
17380TIP3    H173555   4.640   1.459  10.590 -2.8244  0.9282 -1.1413
17380TIP3    H273556   4.552   1.501  10.706 -0.0622  0.0820  1.3808
17381TIP3   OH273557   5.903   1.742   4.935 -0.2168 -0.5381  0.0968
17381TIP3    H173558   5.999   1.744   4.942 -0.0984 -0.3324 -1.2975
17381TIP3    H273559   5.877   1.664   4.983  0.6228 -0.3796  0.8332
17382TIP3   OH273560   4.680   4.352   3.765 -0.1629  0.0342 -0.0899
17382TIP3    H173561   4.748   4.389   3.822  0.0325 -0.4614  0.0066
17382TIP3    H273562   4.622   4.304   3.824 -1.4793  1.6977  0.0329
17383TIP3   OH273563   2.780   4.730  14.521  0.2679  0.3297 -0.0996
17383TIP3    H173564   2.769   4.818  14.484  1.2598  1.1101  1.3699
17383TIP3    H273565   2.805   4.745  14.612  0.6147 -1.4859  0.1453
17384TIP3   OH273566   4.171   3.315   0.582 -0.5744  0.1305  0.1192
17384TIP3    H173567   4.197   3.405   0.600  0.4274 -0.0108 -0.5119
17384TIP3    H273568   4.180   3.271   0.667  2.0159 -0.0519 -0.1564
17385TIP3   OH273569   1.805   1.339  14.958  0.3922 -0.6363 -0.1989
17385TIP3    H173570   1.820   1.245  14.959 -0.0840 -0.8198  3.3186
17385TIP3    H273571   1.710   1.348  14.961  0.4559 -0.1840  1.8447
17386TIP3   OH273572   1.884   3.251  10.337  0.3172 -0.1790  0.0275
17386TIP3    H173573   1.854   3.165  10.367  2.3545 -0.9148  0.0825
17386TIP3    H273574   1.978   3.252  10.354  0.4022  1.9674 -0.2434
17387TIP3   OH273575   1.077   3.400   0.028 -0.3252 -0.3087  0.1591
17387TIP3    H173576   0.986   3.382   0.050 -0.2986 -1.7162 -0.7822
17387TIP3    H273577   1.128   3.358   0.097 -0.3390 -1.5885 -0.5917
17388TIP3   OH273578   6.363   5.148   5.186  0.3350  0.2542 -0.4396
17388TIP3    H173579   6.343   5.232   5.227 -0.6450 -0.1034 -0.1497
17388TIP3    H273580   6.369   5.086   5.259 -1.0828 -0.3220 -0.7850
17389TIP3   OH273581   5.865   2.228  16.298  0.4108 -0.7542 -0.5040
17389TIP3    H173582   5.906   2.180  16.226  1.1435 -1.4028  0.3358
17389TIP3    H273583   5.790   2.273  16.257  0.5056 -1.5266 -1.5584
17390TIP3   OH273584   2.266   1.965   4.446 -0.2001 -0.1081 -0.0486
17390TIP3    H173585   2.294   1.901   4.512 -2.2952  0.7321  1.7549
17390TIP3    H273586   2.172   1.949   4.435 -0.2593  1.0145 -1.4666
17391TIP3   OH273587   0.730   4.713   3.379 -0.1743  0.2456 -0.5575
17391TIP3    H173588   0.705   4.639   3.323 -0.7407  0.8887 -1.1684
17391TIP3    H273589   0.695   4.691   3.465 -1.8106  0.5527 -1.1145
17392TIP3   OH273590   3.838   5.501  16.968  0.4381  0.2126 -0.4881
17392TIP3    H173591   3.870   5.502  16.877  0.0373 -2.9805 -0.7613
17392TIP3    H273592   3.892   5.436  17.012 -0.2380  0.7687  1.2460
17393TIP3   OH273593   0.996   0.867  16.303  0.5932 -0.0304 -0.7858
17393TIP3    H173594   0.939   0.791  16.288  3.1195 -1.7587 -2.2966
17393TIP3    H273595   0.996   0.913  16.218  1.0191  0.2758 -0.6189
17394TIP3   OH273596   4.095   2.554  12.931  0.5435  0.4812  0.1805
17394TIP3    H173597   4.172   2.514  12.891  1.1742  1.6335  0.2050
17394TIP3    H273598   4.073   2.626  12.873 -0.4720  0.2232  0.2282
17395TIP3   OH273599   5.915   0.773   0.695 -0.5650 -0.1849 -0.4621
17395TIP3    H173600   5.919   0.867   0.708  0.3217 -0.2242 -0.3853
17395TIP3    H273601   5.892   0.737   0.781  1.3816 -0.1734  0.1318
17396TIP3   OH273602   4.397   0.179  12.712  0.2075 -0.3973  0.4949
17396TIP3    H173603   4.309   0.157  12.743 -0.1996  1.6614  0.9533
17396TIP3    H273604   4.451   0.180  12.791  0.3338 -0.2915  0.4082
17397TIP3   OH273605   5.135   1.689  13.429  0.0352  0.3645  0.2246
17397TIP3    H173606   5.182   1.763  13.391  1.4967 -0.9257 -0.5764
17397TIP3    H273607   5.184   1.667  13.508  1.3302 -1.4554 -1.0041
17398TIP3   OH273608   5.367   5.796  10.374  0.4289  0.0298 -0.0246
17398TIP3    H173609   5.298   5.737  10.403  1.0236 -0.1689  1.0366
17398TIP3    H273610   5.406   5.751  10.298 -0.9112  0.3898 -0.9626
17399TIP3   OH273611   1.805   6.656   4.655 -0.2103 -0.0126 -0.4852
17399TIP3    H173612   1.765   6.571   4.678 -0.4555  0.3683  0.5869
17399TIP3    H273613   1.895   6.635   4.633  0.0072 -0.4655  0.7201
17400TIP3   OH273614   3.147   1.671   3.865  0.0746  0.2400 -0.6423
17400TIP3    H173615   3.123   1.763   3.880  2.8022  0.9329 -0.0296
17400TIP3    H273616   3.138   1.631   3.952  0.0948  0.2450 -0.6380
17401TIP3   OH273617   1.103   1.002   4.760 -0.2688 -0.6644 -0.0629
17401TIP3    H173618   1.045   1.002   4.836 -0.8486  1.2117 -0.4586
17401TIP3    H273619   1.044   0.996   4.685  0.1110 -0.0423 -0.4242
17402TIP3   OH273620   6.666   6.695   3.687 -0.3835  0.0806  0.4524
17402TIP3    H173621   6.753   6.663   3.708  0.9460  2.2169 -1.3550
17402TIP3    H273622   6.654   6.771   3.744  0.5178  1.9170 -1.6307
17403TIP3   OH273623   1.507   5.805   6.612  0.2551  0.3875  0.0853
17403TIP3    H173624   1.470   5.890   6.638 -1.2059  0.0111 -0.6947
17403TIP3    H273625   1.588   5.828   6.566 -0.5056  1.4240 -0.7871
17404TIP3   OH273626   1.075   4.681   3.721  0.2436 -0.2695  0.4451
17404TIP3    H173627   1.010   4.613   3.705  0.6969 -0.3678 -1.1374
17404TIP3    H273628   1.143   4.665   3.656  0.5098  1.4926  0.2367
17405TIP3   OH273629   3.252   0.820   3.797  0.9199  0.4305  0.1794
17405TIP3    H173630   3.320   0.771   3.843 -1.5471 -1.1813  2.3910
17405TIP3    H273631   3.238   0.772   3.716  1.3199 -0.1731  0.4652
17406TIP3   OH273632   3.063   0.284   2.119  0.2326  0.3662 -0.0039
17406TIP3    H173633   3.125   0.239   2.176 -0.0318 -0.8957 -0.6797
17406TIP3    H273634   2.979   0.277   2.165  0.1703  0.0757 -0.1638
17407TIP3   OH273635   6.617   5.181   0.008 -0.2366 -0.1518 -0.2419
17407TIP3    H173636   6.570   5.237   0.070 -2.4028 -1.4584 -0.6056
17407TIP3    H273637   6.612   5.227  -0.075  0.3597  0.3659  0.0051
17408TIP3   OH273638   2.911   4.810   4.330  0.2717  0.7068 -0.1924
17408TIP3    H173639   2.826   4.765   4.328  0.2045  0.6681  1.6117
17408TIP3    H273640   2.976   4.740   4.337  0.3298  0.7925  0.1526
17409TIP3   OH273641   3.703   4.256  15.905 -0.4797 -0.2290 -0.3903
17409TIP3    H173642   3.649   4.184  15.937  0.7747 -0.3945  1.5358
17409TIP3    H273643   3.780   4.255  15.961  0.3211  1.6361 -1.3522
17410TIP3   OH273644   6.622   0.937   4.871  0.5516 -0.3855  0.3110
17410TIP3    H173645   6.558   0.961   4.805  0.5166 -1.0418  0.0943
17410TIP3    H273646   6.572   0.889   4.937  0.7978 -0.8528  0.1682
17411TIP3   OH273647   5.884   3.156   4.754  0.0854  0.3530 -0.4415
17411TIP3    H173648   5.835   3.203   4.686 -0.1604  0.1941 -0.3734
17411TIP3    H273649   5.821   3.095   4.791  0.1983  0.4937 -0.0152
17412TIP3   OH273650   3.460   1.563   5.546 -0.3013 -0.4012 -0.6687
17412TIP3    H173651   3.380   1.615   5.549 -0.3650 -0.5035  1.7170
17412TIP3    H273652   3.434   1.477   5.580  0.8956 -0.2040  0.8903
17413TIP3   OH273653   0.534   5.396   5.390 -1.1281 -0.1056  0.3446
17413TIP3    H173654   0.527   5.371   5.298 -0.0258 -0.4466  0.3357
17413TIP3    H273655   0.479   5.474   5.398  1.8137  2.3960 -1.5514
17414TIP3   OH273656   4.220   6.754   0.217  0.2024 -0.2283  0.0402
17414TIP3    H173657   4.289   6.821   0.221  0.4160 -0.3713 -1.0333
17414TIP3    H273658   4.158   6.779   0.285  0.7763  0.5140  0.2974
17415TIP3   OH273659   5.754   4.294  10.957  0.2532 -0.0998 -0.0693
17415TIP3    H173660   5.714   4.313  10.873  2.0864  0.2901 -0.8992
17415TIP3    H273661   5.779   4.202  10.951  2.1170  0.4158 -0.7445
17416TIP3   OH273662   3.061   1.487  15.883 -0.4857 -0.5524 -0.4958
17416TIP3    H173663   3.072   1.404  15.929 -0.2663  0.3788  1.2030
17416TIP3    H273664   2.968   1.509  15.895  0.1235  1.0111  1.9389
17417TIP3   OH273665   1.954   6.084   4.034  0.1220 -0.1797  0.6104
17417TIP3    H173666   2.017   6.147   4.067  0.9601  0.0027 -1.1907
17417TIP3    H273667   1.869   6.127   4.045  0.5216  0.5210  0.9911
17418TIP3   OH273668   5.250   6.563   1.352  0.3343  0.5535 -0.3377
17418TIP3    H173669   5.250   6.468   1.346 -0.1786  0.5027  0.3700
17418TIP3    H273670   5.157   6.587   1.353  0.4256  1.2061 -2.4032
17419TIP3   OH273671   0.007   3.513   4.183 -0.3581  0.7276 -0.1032
17419TIP3    H173672  -0.085   3.511   4.157  0.0194 -0.4312 -1.4536
17419TIP3    H273673   0.055   3.509   4.101  0.9059  0.7538  0.6162
17420TIP3   OH273674   2.734   0.377   2.643 -0.4119  0.1633 -0.1232
17420TIP3    H173675   2.672   0.342   2.580 -0.1303 -1.5544  0.4931
17420TIP3    H273676   2.734   0.471   2.627 -0.6232 -0.1676 -2.4096
17421TIP3   OH273677   5.690   1.394  15.231 -0.3886 -0.1075 -0.3540
17421TIP3    H173678   5.737   1.473  15.259  2.1982 -1.7604  0.3900
17421TIP3    H273679   5.737   1.365  15.153 -1.4376 -0.8034 -0.7394
17422TIP3   OH273680   2.189   2.663  10.865  0.5070  0.1869  0.8422
17422TIP3    H173681   2.258   2.613  10.822 -1.3413 -0.7969 -1.1297
17422TIP3    H273682   2.163   2.609  10.940 -1.9811 -2.4156 -1.6676
17423TIP3   OH273683   6.252   5.363   2.937 -0.2279 -0.4146 -0.4006
17423TIP3    H173684   6.251   5.429   3.006 -2.1318  1.3222 -1.9834
17423TIP3    H273685   6.183   5.390   2.876  1.4315 -1.7809 -3.0710
17424TIP3   OH273686   6.685   3.667   3.815  0.0646  0.2235  0.8769
17424TIP3    H173687   6.604   3.625   3.847 -0.0873  0.9474  1.4876
17424TIP3    H273688   6.726   3.701   3.894 -0.3994  2.2208  0.3178
17425TIP3   OH273689   1.903   3.570   0.547 -0.4064 -0.2131 -0.0718
17425TIP3    H173690   1.885   3.628   0.621 -1.9780  0.5478 -1.0024
17425TIP3    H273691   1.836   3.501   0.554  0.1127 -0.7379 -0.1913
17426TIP3   OH273692   3.578   1.401  10.830  0.4117  0.7204  0.4197
17426TIP3    H173693   3.592   1.333  10.896 -0.8674 -0.8003 -0.7853
17426TIP3    H273694   3.656   1.455  10.834  1.9906 -1.4631  0.7097
17427TIP3   OH273695   2.022   5.468  10.745 -0.2479 -0.0268  0.4900
17427TIP3    H173696   1.986   5.540  10.693  2.2100 -0.4463 -2.0572
17427TIP3    H273697   1.954   5.401  10.743 -1.4020  1.1094  0.3789
17428TIP3   OH273698   4.074   4.285  14.961 -0.0620  0.2479  0.3055
17428TIP3    H173699   4.116   4.270  14.876  0.1016  2.6602 -0.0903
17428TIP3    H273700   4.143   4.322  15.016 -0.4136 -0.4257  1.2294
17429TIP3   OH273701   1.466   4.779   2.414 -0.2594 -0.4667  0.1938
17429TIP3    H173702   1.425   4.844   2.356 -1.6745  0.7291  2.3952
17429TIP3    H273703   1.442   4.695   2.375 -0.5732  0.2713 -1.3208
17430TIP3   OH273704   6.301   4.409   3.820 -0.0432 -0.1441 -0.1728
17430TIP3    H173705   6.274   4.423   3.911 -0.3039 -0.1713 -0.2453
17430TIP3    H273706   6.396   4.412   3.823 -0.0611  0.3091  0.0313
17431TIP3   OH273707   1.539   6.486  14.391 -0.4142  0.0605 -0.0071
17431TIP3    H173708   1.603   6.511  14.325  1.5884 -1.4896  1.1954
17431TIP3    H273709   1.561   6.539  14.468 -0.2329 -0.7993  0.5562
17432TIP3   OH273710   0.582   3.502   3.721 -0.0066  0.7495 -0.0965
17432TIP3    H173711   0.530   3.483   3.799  1.2999 -0.7269  0.4661
17432TIP3    H273712   0.601   3.416   3.684  1.5484  1.2696 -0.5932
17433TIP3   OH273713   4.844   6.466   3.870 -0.0246  0.2424 -0.1393
17433TIP3    H173714   4.931   6.502   3.859 -0.3786  1.7249  1.5282
17433TIP3    H273715   4.849   6.416   3.951 -0.6781  0.2008 -0.1198
17434TIP3   OH273716   1.504   2.345   5.431  0.2269  0.1947  0.4162
17434TIP3    H173717   1.433   2.302   5.479 -0.5324  1.1267  0.1529
17434TIP3    H273718   1.499   2.308   5.342  0.1961  0.1190  0.4496
17435TIP3   OH273719   5.170   5.325   3.993  0.0028 -0.1689 -0.0197
17435TIP3    H173720   5.158   5.420   3.988  0.1355 -0.1179  0.5312
17435TIP3    H273721   5.264   5.312   3.981  0.0356 -0.1999  0.2601
17436TIP3   OH273722   0.580   1.110  14.360  0.5907 -0.1163 -0.3389
17436TIP3    H173723   0.634   1.118  14.438 -0.2785  0.3474  0.2298
17436TIP3    H273724   0.490   1.111  14.392  0.2014  0.5107 -1.3681
17437TIP3   OH273725   5.678   6.201   5.528 -0.9251 -0.1869 -0.4525
17437TIP3    H173726   5.710   6.184   5.440 -1.1166  0.7380 -0.7077
17437TIP3    H273727   5.630   6.121   5.552 -1.0201 -0.3769 -1.2505
17438TIP3   OH273728   6.135   4.797   2.681 -0.0446 -0.3414 -0.5607
17438TIP3    H173729   6.134   4.887   2.647  1.5530  0.0850  0.4155
17438TIP3    H273730   6.228   4.775   2.689 -0.3628 -2.7245 -2.3255
17439TIP3   OH273731   2.812   1.389   3.206  1.0543  0.0294 -0.2004
17439TIP3    H173732   2.830   1.478   3.174 -0.6905  0.7552  0.6795
17439TIP3    H273733   2.726   1.368   3.170  1.4247 -1.3135 -0.3453
17440TIP3   OH273734   1.832   2.464   1.793 -0.5444  0.0538 -0.5150
17440TIP3    H173735   1.879   2.395   1.746  0.4766 -0.2754  0.9179
17440TIP3    H273736   1.878   2.545   1.770  0.6565 -0.2370  0.6898
17441TIP3   OH273737   3.578   5.373   0.950 -0.5542 -0.2345  0.2530
17441TIP3    H173738   3.501   5.340   0.903  0.2155 -0.5121 -0.8530
17441TIP3    H273739   3.628   5.420   0.883  0.2365 -0.0538  0.9599
17442TIP3   OH273740   5.969   4.249  17.079 -0.4168 -0.3504 -0.1853
17442TIP3    H173741   5.903   4.288  17.022  1.3671 -2.7586 -4.3614
17442TIP3    H273742   5.933   4.163  17.101  0.1546 -0.5879 -0.1728
17443TIP3   OH273743   1.824   6.183   1.644  0.0505 -0.1170  0.4452
17443TIP3    H173744   1.769   6.191   1.723  0.7885  0.0367  0.9515
17443TIP3    H273745   1.912   6.205   1.674  0.2820  0.2784 -0.5045
17444TIP3   OH273746   3.409   1.432  10.618 -0.1521  0.2449 -0.1792
17444TIP3    H173747   3.343   1.368  10.590 -0.3046 -0.5184  1.7532
17444TIP3    H273748   3.434   1.403  10.706  0.8434  2.0357  0.1744
17445TIP3   OH273749   4.690   2.560  14.330 -0.0928 -0.7201  0.0699
17445TIP3    H173750   4.742   2.639  14.344  0.0812 -0.7203 -0.5839
17445TIP3    H273751   4.744   2.489  14.366  0.1016 -0.6454 -0.0740
17446TIP3   OH273752   5.565   0.259  13.469  0.5735  0.1904  0.4933
17446TIP3    H173753   5.500   0.217  13.525  0.9359  0.1456  0.8870
17446TIP3    H273754   5.643   0.204  13.479  1.1703  1.1572  1.2980
17447TIP3   OH273755   5.857   2.830  16.521  0.9707 -0.6156 -0.5822
17447TIP3    H173756   5.766   2.856  16.509  1.1521  0.1870 -0.2393
17447TIP3    H273757   5.883   2.869  16.604  0.9170 -2.8208  0.5504
17448TIP3   OH273758   1.774   0.484   5.801  0.4322 -0.1764 -0.5870
17448TIP3    H173759   1.757   0.555   5.739 -2.1158 -1.3044 -1.3053
17448TIP3    H273760   1.869   0.472   5.798  0.6663  1.5597 -2.2485
17449TIP3   OH273761   5.996   5.256  15.362  0.2264 -0.3172 -0.2229
17449TIP3    H173762   5.981   5.329  15.302  2.9920 -0.3550 -1.0777
17449TIP3    H273763   5.971   5.178  15.312 -1.3868 -0.1059  0.1971
17450TIP3   OH273764   3.172   2.536   2.774  0.8588  0.1290  0.2645
17450TIP3    H173765   3.191   2.610   2.832 -0.1675  1.0996 -0.6149
17450TIP3    H273766   3.097   2.492   2.815  0.8461  0.1494  0.2626
17451TIP3   OH273767   4.990   3.020  15.378  0.3828  0.3142 -0.2179
17451TIP3    H173768   5.072   2.986  15.413  1.2550  2.3385 -0.1789
17451TIP3    H273769   4.954   3.074  15.449 -0.8647 -0.3047 -0.3416
17452TIP3   OH273770   3.517   3.280  11.542 -0.2007  0.0645 -0.3686
17452TIP3    H173771   3.527   3.330  11.461 -0.7272 -0.0953 -0.5311
17452TIP3    H273772   3.493   3.192  11.513  0.6257 -0.2723 -0.0798
17453TIP3   OH273773   6.216   5.513   1.119 -0.2673 -0.0531 -0.8205
17453TIP3    H173774   6.263   5.456   1.058 -0.6889  1.6614 -2.8453
17453TIP3    H273775   6.282   5.576   1.148 -0.5176  0.2940 -1.0044
17454TIP3   OH273776   1.845   5.903   5.514  0.0478 -0.6430 -0.1956
17454TIP3    H173777   1.855   5.996   5.533 -2.0714 -0.5280  0.6190
17454TIP3    H273778   1.879   5.859   5.591 -0.0090 -0.5100 -0.0943
17455TIP3   OH273779   2.177   1.094   5.140 -0.0212  0.5414  0.4295
17455TIP3    H173780   2.261   1.090   5.186  1.0636  2.3535 -1.2268
17455TIP3    H273781   2.201   1.094   5.047 -1.9234  0.2456 -0.0952
17456TIP3   OH273782   1.412   1.230  13.477  0.1276  0.2861 -0.2375
17456TIP3    H173783   1.401   1.143  13.516 -0.0799 -0.5468 -2.0670
17456TIP3    H273784   1.493   1.224  13.427 -0.9100  0.4698 -2.0132
17457TIP3   OH273785   0.482   3.316  11.675  0.5546 -0.1430 -0.4852
17457TIP3    H173786   0.564   3.347  11.714  0.7608  0.3830 -1.3077
17457TIP3    H273787   0.443   3.395  11.637 -0.9955 -0.1320  1.0402
17458TIP3   OH273788   5.390   3.681  12.120 -0.0063  0.6412 -0.0616
17458TIP3    H173789   5.408   3.737  12.045 -2.1224  0.9038 -0.4049
17458TIP3    H273790   5.359   3.741  12.188  0.4765  0.2149  0.5515
17459TIP3   OH273791   0.914   0.608  15.488 -0.3914 -0.5416 -0.2795
17459TIP3    H173792   1.001   0.582  15.517 -0.4808  0.6498  1.1743
17459TIP3    H273793   0.929   0.671  15.418 -0.0404  0.3052  0.5378
17460TIP3   OH273794   4.102   4.517  11.723  0.2441  0.0232 -0.1788
17460TIP3    H173795   4.145   4.552  11.801  1.5919 -0.3508 -0.7222
17460TIP3    H273796   4.045   4.588  11.693 -1.3548 -0.2755  1.8555
17461TIP3   OH273797   4.604   1.937  11.259 -0.1096  0.3167 -0.0301
17461TIP3    H173798   4.568   2.024  11.272 -1.1482 -0.4169  2.7147
17461TIP3    H273799   4.529   1.883  11.234 -0.4751 -0.6107  2.7210
17462TIP3   OH273800   5.092   0.925   0.992  0.2654  0.0439  0.1284
17462TIP3    H173801   5.168   0.875   0.963  0.5948  0.2590  0.6011
17462TIP3    H273802   5.077   0.988   0.922  1.4581  0.9945  0.6788
17463TIP3   OH273803   1.666   6.795   6.170 -0.0942 -0.2793 -0.1922
17463TIP3    H173804   1.657   6.718   6.226  1.4075  0.6776  1.4684
17463TIP3    H273805   1.648   6.869   6.228 -0.9742  0.6796 -1.6261
17464TIP3   OH273806   0.798   2.861  12.488  0.0710 -0.1491  0.2369
17464TIP3    H173807   0.800   2.937  12.430 -1.1822 -0.6295 -0.4716
17464TIP3    H273808   0.728   2.880  12.550 -0.7871 -1.0400 -0.4275
17465TIP3   OH273809   0.366   5.267  14.576 -0.2529  0.3229 -0.1685
17465TIP3    H173810   0.416   5.257  14.657 -1.5664  0.7893  0.7262
17465TIP3    H273811   0.307   5.191  14.575 -1.6762  1.3823  0.3955
17466TIP3   OH273812   5.458   5.959   1.131  0.0850  0.2360 -0.0284
17466TIP3    H173813   5.371   5.923   1.115  1.3875 -4.0420  1.3383
17466TIP3    H273814   5.499   5.964   1.045 -0.3532 -1.1233 -0.3227
17467TIP3   OH273815   2.461   6.480   2.234 -0.2050 -0.2517  0.4151
17467TIP3    H173816   2.500   6.552   2.283 -2.0038  0.8777  0.2842
17467TIP3    H273817   2.526   6.409   2.239  0.4572  0.4277  2.8503
17468TIP3   OH273818   1.274   3.430   0.689 -0.4341 -0.2490  0.2754
17468TIP3    H173819   1.284   3.481   0.769  0.4354 -1.6206  1.0648
17468TIP3    H273820   1.179   3.427   0.675 -0.5180  1.6230  0.1418
17469TIP3   OH273821   2.281   5.588   4.834 -0.6862 -0.2902 -0.0114
17469TIP3    H173822   2.287   5.529   4.759  1.5053 -0.5299  0.3077
17469TIP3    H273823   2.256   5.531   4.907  1.1916 -0.8345  0.2464
17470TIP3   OH273824   5.550   2.949   0.766  0.0361  0.8121  0.1677
17470TIP3    H173825   5.471   2.905   0.735  0.7957 -0.5495  0.1217
17470TIP3    H273826   5.524   3.041   0.772 -1.8468  0.2755  1.1187
17471TIP3   OH273827   4.985   5.881   5.270 -0.1715 -0.0298  0.5423
17471TIP3    H173828   5.025   5.951   5.218 -0.8266  0.5051  0.7413
17471TIP3    H273829   4.897   5.913   5.289 -0.2902 -0.6742  1.1081
17472TIP3   OH273830   5.371   3.704  13.532 -0.3440 -0.7638  0.1133
17472TIP3    H173831   5.326   3.680  13.451 -0.4697 -1.8430  0.4953
17472TIP3    H273832   5.331   3.650  13.599  0.5820 -0.7478  0.7012
17473TIP3   OH273833   6.221   0.449  11.350  0.1099 -0.1461 -0.1471
17473TIP3    H173834   6.145   0.431  11.405 -1.0593  0.7388 -1.3777
17473TIP3    H273835   6.296   0.442  11.408 -1.0173  0.0926  1.3826
17474TIP3   OH273836   0.030   4.413   1.998  0.0247 -1.0019 -0.1773
17474TIP3    H173837  -0.042   4.353   1.982 -1.5076  0.7524 -0.1209
17474TIP3    H273838   0.081   4.371   2.067 -2.0488 -1.4175  1.1866
17475TIP3   OH273839   5.053   2.981  11.766  0.0799 -0.0510 -0.4715
17475TIP3    H173840   5.116   2.993  11.838  0.8711 -0.1227 -1.1324
17475TIP3    H273841   5.006   2.901  11.790 -0.7399  0.7615  0.7223
17476TIP3   OH273842   6.097   3.808   0.478 -0.0822  0.2309  0.0151
17476TIP3    H173843   6.172   3.806   0.418 -0.6135 -2.3995 -0.7011
17476TIP3    H273844   6.023   3.835   0.423 -0.0015  1.1253  0.3225
17477TIP3   OH273845   5.175   4.508  13.610  0.2854 -0.3546  0.1757
17477TIP3    H173846   5.087   4.478  13.588  0.5334  0.0650 -1.5165
17477TIP3    H273847   5.233   4.452  13.558  0.9419  0.3450  0.1372
17478TIP3   OH273848   1.070   1.288  12.363 -0.1230  0.3964  0.4172
17478TIP3    H173849   1.147   1.284  12.306  0.0713 -1.3575  0.7394
17478TIP3    H273850   1.106   1.297  12.451 -0.4315  3.7942  0.3342
17479TIP3   OH273851   2.399   6.373   2.500  0.2836 -0.1609  0.3791
17479TIP3    H173852   2.304   6.386   2.507  0.2757 -1.1858  5.3108
17479TIP3    H273853   2.425   6.430   2.427 -4.1935 -1.0805 -2.3496
17480TIP3   OH273854   0.503   2.042   0.043 -0.5088 -0.2760  0.0113
17480TIP3    H173855   0.552   2.091   0.110 -0.5087 -0.8421  0.4338
17480TIP3    H273856   0.417   2.083   0.041 -0.0967  0.6018 -0.5945
17481TIP3   OH273857   4.764   5.279  13.254  0.0615  0.0521 -0.0111
17481TIP3    H173858   4.858   5.262  13.264  0.1120 -0.2137 -0.8581
17481TIP3    H273859   4.750   5.284  13.159 -1.4919 -4.1273 -0.1977
17482TIP3   OH273860   5.830   3.631   1.894  0.1817  0.2580  0.3893
17482TIP3    H173861   5.868   3.547   1.869 -0.1476  0.1536  0.2460
17482TIP3    H273862   5.865   3.646   1.982 -0.6056 -0.5454  0.8566
17483TIP3   OH273863   0.809   6.443  11.557 -0.2154 -0.3515  0.0149
17483TIP3    H173864   0.821   6.390  11.636 -2.4314  0.1975  0.7932
17483TIP3    H273865   0.715   6.442  11.541 -0.6253  4.0861  0.7170
17484TIP3   OH273866   5.604   5.617  15.216 -0.2085 -0.3507  0.3569
17484TIP3    H173867   5.519   5.580  15.240 -2.0399  1.7373 -2.2782
17484TIP3    H273868   5.627   5.676  15.287 -0.2122 -1.9550  1.7436
17485TIP3   OH273869   0.599   1.343  12.586 -0.1730 -0.1027  0.3234
17485TIP3    H173870   0.591   1.323  12.680 -2.1549 -0.9928  0.0135
17485TIP3    H273871   0.528   1.295  12.545  0.6670  0.2567 -1.6746
17486TIP3   OH273872   2.091   1.768   4.552  0.2386 -0.1009  0.0285
17486TIP3    H173873   2.011   1.780   4.603  0.8740  1.7783  0.6309
17486TIP3    H273874   2.060   1.763   4.461 -0.6026 -0.0672  0.3035
17487TIP3   OH273875   2.730   6.100  15.784 -0.7066 -0.1572 -0.0140
17487TIP3    H173876   2.734   6.192  15.756  2.6389 -0.1681  0.0322
17487TIP3    H273877   2.729   6.104  15.879 -2.3647 -0.2164  0.0023
17488TIP3   OH273878   6.215   0.263   1.412  0.0623 -0.7317 -0.6988
17488TIP3    H173879   6.175   0.275   1.326  1.9830  0.9397 -1.4378
17488TIP3    H273880   6.193   0.342   1.461 -0.1400 -1.2045 -0.0162
17489TIP3   OH273881   4.333   4.678   3.992 -0.2922 -0.1332  0.1110
17489TIP3    H173882   4.266   4.683   3.924 -0.8049 -0.5252  0.5738
17489TIP3    H273883   4.292   4.716   4.069 -0.3729 -1.3363  0.6893
17490TIP3   OH273884   5.016   1.482  13.308 -0.1392 -0.0515 -0.4936
17490TIP3    H173885   5.013   1.518  13.220 -1.3171  1.9108  0.2815
17490TIP3    H273886   5.059   1.550  13.360  0.4065 -1.1144  0.4834
17491TIP3   OH273887   3.311   2.379   6.147  0.5761  0.1100 -0.2292
17491TIP3    H173888   3.271   2.456   6.188 -0.3034  0.2898 -1.3965
17491TIP3    H273889   3.403   2.403   6.138  0.8057  0.0888  1.5388
17492TIP3   OH273890   0.958   6.772  15.771 -0.1423 -0.0149  0.8833
17492TIP3    H173891   1.032   6.759  15.712 -0.4759  0.6492  0.2995
17492TIP3    H273892   0.881   6.754  15.717 -0.4588  0.8247  1.0370
17493TIP3   OH273893   3.423   2.864  12.400  0.1955  0.9211 -0.1229
17493TIP3    H173894   3.414   2.898  12.489 -0.2746  2.0148 -0.5634
17493TIP3    H273895   3.418   2.769  12.409  0.6264  1.0021  1.0613
17494TIP3   OH273896   4.506   3.699  16.057 -0.1982  0.0950  0.7364
17494TIP3    H173897   4.510   3.760  16.130 -0.8937 -0.9776  1.7011
17494TIP3    H273898   4.428   3.725  16.008  0.3442  0.9001  0.2857
17495TIP3   OH273899   3.071   0.382   4.372 -0.4339  0.0671  0.4202
17495TIP3    H173900   3.008   0.427   4.316 -0.2022 -0.8302 -0.5918
17495TIP3    H273901   3.021   0.310   4.411 -0.2615 -0.1258  0.2902
17496TIP3   OH273902   0.812   2.259   2.002  0.0721 -0.3083  0.4519
17496TIP3    H173903   0.846   2.249   1.913 -0.2719  0.2862  0.2478
17496TIP3    H273904   0.789   2.352   2.009  1.1497 -0.0923  1.5392
17497TIP3   OH273905   3.505   4.329  16.550 -0.2974 -0.2464  0.7221
17497TIP3    H173906   3.495   4.351  16.457 -1.7725  0.4864  1.0222
17497TIP3    H273907   3.595   4.354  16.570 -0.3828  0.9222 -0.1829
17498TIP3   OH273908   1.568   4.366   3.171 -0.0958  0.4349 -0.0555
17498TIP3    H173909   1.503   4.416   3.121 -0.5668 -0.6323 -0.5504
17498TIP3    H273910   1.637   4.429   3.192 -1.5498  1.7350  0.9822
17499TIP3   OH273911   2.436   0.820   2.590 -0.6791  0.4125 -0.3559
17499TIP3    H173912   2.474   0.906   2.608 -2.5970  1.0619  0.8751
17499TIP3    H273913   2.510   0.768   2.557  1.1482  1.7450  1.3577
17500TIP3   OH273914   6.396   4.663  11.298 -0.1723 -0.3980 -0.1015
17500TIP3    H173915   6.333   4.591  11.307 -0.4056  0.0185  2.3011
17500TIP3    H273916   6.375   4.723  11.370  1.7686  0.6939 -0.3613
17501TIP3   OH273917   4.421   6.385   2.034  0.0469  0.1777 -0.3230
17501TIP3    H173918   4.491   6.320   2.030  1.5476  1.7966 -1.8333
17501TIP3    H273919   4.361   6.351   2.100  0.0223 -3.4235 -1.9723
17502TIP3   OH273920   5.478   3.684   2.434  0.5795  0.2435  0.4169
17502TIP3    H173921   5.421   3.619   2.393  0.5576  1.9706 -2.6360
17502TIP3    H273922   5.560   3.638   2.449 -0.7239 -1.5819  2.4727
17503TIP3   OH273923   2.649   5.246   1.004 -0.1763  0.4337 -0.1342
17503TIP3    H173924   2.630   5.310   1.073  1.3017  0.3482  0.3922
17503TIP3    H273925   2.696   5.295   0.937  0.9053 -0.0485  0.2405
17504TIP3   OH273926   4.038   0.599   4.758  0.1914 -0.6594  0.3976
17504TIP3    H173927   4.077   0.666   4.703  0.6110 -0.2414  1.1869
17504TIP3    H273928   3.961   0.641   4.797 -0.7618 -1.2997 -0.7074
17505TIP3   OH273929   5.258   4.870  15.770  0.3817 -0.1284  0.3180
17505TIP3    H173930   5.347   4.897  15.748  0.0240  2.0449  1.2734
17505TIP3    H273931   5.201   4.924  15.716 -0.4161 -1.9456 -0.7628
17506TIP3   OH273932   1.944   3.890  10.933  0.5412 -0.2087  0.2842
17506TIP3    H173933   1.919   3.805  10.897  0.7728  0.0260 -0.4469
17506TIP3    H273934   2.032   3.906  10.900 -0.0010  0.9160 -0.7107
17507TIP3   OH273935   4.252   2.699   3.230 -0.1440 -0.0742 -0.7160
17507TIP3    H173936   4.305   2.771   3.196 -1.5301  1.7128  0.6700
17507TIP3    H273937   4.244   2.718   3.324 -1.3767 -1.5042 -0.4910
17508TIP3   OH273938   6.137   5.622   5.128  0.3711  0.0720  0.5306
17508TIP3    H173939   6.099   5.627   5.216 -0.9946 -1.6221  0.0996
17508TIP3    H273940   6.091   5.690   5.079  0.3398  0.2827  0.8432
17509TIP3   OH273941   6.002   5.851   4.983  0.0173  0.3626 -0.4412
17509TIP3    H173942   5.916   5.890   5.002 -1.0453 -0.2823 -3.4219
17509TIP3    H273943   6.031   5.895   4.904  1.2277 -1.2402 -0.9335
17510TIP3   OH273944   4.362   5.921   4.406  0.2815 -0.2184 -0.0103
17510TIP3    H173945   4.367   5.947   4.314  2.5431 -0.4964 -0.0294
17510TIP3    H273946   4.346   6.002   4.453  0.4346  0.1345 -0.5536
17511TIP3   OH273947   3.056   1.924  16.337  0.4212 -0.2215 -0.4473
17511TIP3    H173948   3.012   1.962  16.261  0.6574 -0.8907 -0.9274
17511TIP3    H273949   3.150   1.931  16.317  0.4687 -2.4614 -1.2832
17512TIP3   OH273950   4.241   0.611  14.285 -0.2643  0.0713  1.2919
17512TIP3    H173951   4.334   0.630  14.272 -0.0191 -1.8271 -0.2369
17512TIP3    H273952   4.197   0.695  14.271  0.8803  0.1943 -2.7144
17513TIP3   OH273953   1.370   0.658  11.265  0.3211 -1.0089 -0.0491
17513TIP3    H173954   1.329   0.629  11.347 -0.2333  1.4419  0.6260
17513TIP3    H273955   1.309   0.632  11.196 -2.5814  2.4544  0.9053
17514TIP3   OH273956   0.873   5.856  11.139 -0.2720 -0.5958 -0.3111
17514TIP3    H173957   0.854   5.779  11.193 -1.5830  1.4797  2.4517
17514TIP3    H273958   0.800   5.859  11.077 -0.6744 -1.1107  0.1199
17515TIP3   OH273959   0.951   3.898  15.593  0.4359 -0.1532  0.1805
17515TIP3    H173960   0.895   3.965  15.632 -0.4471 -1.7841  1.9055
17515TIP3    H273961   0.904   3.816  15.609  1.3533 -1.1964 -2.0401
17516TIP3   OH273962   5.463   1.330   5.828  0.4063  0.0726  0.0896
17516TIP3    H173963   5.375   1.315   5.862  0.2397  0.7131 -0.0372
17516TIP3    H273964   5.493   1.244   5.799  0.3355 -0.3998  1.3359
17517TIP3   OH273965   1.381   5.564  10.459 -0.3213 -0.3031 -0.5346
17517TIP3    H173966   1.393   5.659  10.458  2.2107 -0.4850  1.6488
17517TIP3    H273967   1.313   5.550  10.525 -1.7290 -0.0065 -1.8634
17518TIP3   OH273968   1.781   2.929  16.939  0.0895  0.0322  0.1098
17518TIP3    H173969   1.700   2.975  16.960 -0.2355 -0.8792  0.9595
17518TIP3    H273970   1.851   2.985  16.972 -0.3683 -0.9205  2.9495
17519TIP3   OH273971   4.299   0.148  11.696  0.1417  0.4132  0.3105
17519TIP3    H173972   4.349   0.152  11.778 -0.3782  1.8545  0.5906
17519TIP3    H273973   4.240   0.223  11.701 -1.5010 -0.7815 -0.3788
17520TIP3   OH273974   3.903   4.460   5.148 -0.6145  0.1564 -0.5365
17520TIP3    H173975   3.815   4.455   5.109 -0.9104  0.6670  0.0555
17520TIP3    H273976   3.902   4.540   5.199  0.8091  1.1518 -1.9854
17521TIP3   OH273977   6.757   1.873  10.311  0.1460  0.3023  0.2441
17521TIP3    H173978   6.826   1.931  10.279  1.8738 -0.9068  1.5342
17521TIP3    H273979   6.686   1.931  10.337  1.3530  1.7444  0.4339
17522TIP3   OH273980   3.979   4.290   2.330  0.5556 -0.0448  0.9143
17522TIP3    H173981   3.899   4.307   2.380 -0.1635  0.7224 -0.4446
17522TIP3    H273982   4.050   4.312   2.391 -0.1947 -1.6614  2.4727
17523TIP3   OH273983   5.561   4.448   4.546  0.6868  0.0664 -0.2020
17523TIP3    H173984   5.479   4.430   4.592  2.3182 -0.9193  2.5549
17523TIP3    H273985   5.593   4.362   4.519  1.9151  0.1574  0.8647
17524TIP3   OH273986   4.179   6.642   1.421  0.9804 -0.4073 -0.5498
17524TIP3    H173987   4.100   6.592   1.405  0.3516  0.7827 -1.3018
17524TIP3    H273988   4.192   6.637   1.516  0.1202 -0.7605 -0.4438
17525TIP3   OH273989   0.262   4.889  14.344  0.0505 -0.2436  0.5630
17525TIP3    H173990   0.182   4.883  14.292 -0.3642 -2.9544  1.3992
17525TIP3    H273991   0.332   4.863  14.285 -0.0265 -0.3765  0.5308
17526TIP3   OH273992   4.776   6.393  16.465  0.3718  0.1465  0.2436
17526TIP3    H173993   4.822   6.312  16.485 -0.2241 -0.4109 -0.5865
17526TIP3    H273994   4.831   6.462  16.503  1.2931 -0.5805  0.2563
17527TIP3   OH273995   5.280   4.358  17.078  0.5739 -0.2280 -0.1167
17527TIP3    H173996   5.215   4.326  17.016  0.5410  0.6090 -0.5311
17527TIP3    H273997   5.284   4.452  17.062  3.5935 -0.5257 -1.7824
17528TIP3   OH273998   5.895   2.019  11.621  0.2985  0.1467 -0.1641
17528TIP3    H173999   5.903   1.924  11.606  2.9055  0.1171  0.9974
17528TIP3    H274000   5.944   2.035  11.701 -1.9284  2.2275  0.9192
17529TIP3   OH274001   4.946   5.886  10.685  0.2385 -0.3924 -0.3933
17529TIP3    H174002   4.908   5.974  10.680  0.5915  0.1416  3.3431
17529TIP3    H274003   5.034   5.897  10.649 -0.4114  0.2563 -1.8492
17530TIP3   OH274004   4.988   3.815   3.442  0.0523 -0.0667 -0.3296
17530TIP3    H174005   4.971   3.722   3.433  0.0842 -0.2096  0.8697
17530TIP3    H274006   5.037   3.822   3.524  0.7354  0.9261 -0.7983
17531TIP3   OH274007   3.101   2.952  15.908  0.0733 -1.0064  0.1643
17531TIP3    H174008   3.042   2.877  15.904  0.6905 -1.6194  1.5392
17531TIP3    H274009   3.183   2.920  15.871  0.2370 -0.9263  0.4476
17532TIP3   OH274010   0.588   4.313  15.905 -0.5184  0.5858 -0.7471
17532TIP3    H174011   0.509   4.354  15.939 -0.5753  1.7198 -2.1473
17532TIP3    H274012   0.579   4.317  15.810  2.2465  3.0253 -1.0819
17533TIP3   OH274013   4.092   1.064   1.814 -0.5638  0.1534 -0.1138
17533TIP3    H174014   4.126   1.139   1.863 -0.4393  0.4234 -0.6081
17533TIP3    H274015   4.024   1.028   1.870 -0.1238  0.1908  0.4590
17534TIP3   OH274016   3.690   3.302   2.464  0.3292  0.4453 -0.1716
17534TIP3    H174017   3.610   3.251   2.448  0.2449  0.4985  0.0755
17534TIP3    H274018   3.742   3.290   2.385 -0.0810  0.7078 -0.4880
17535TIP3   OH274019   1.870   3.835   5.236  0.0141 -0.5173 -0.9634
17535TIP3    H174020   1.893   3.767   5.299 -0.3370  0.5729  0.3765
17535TIP3    H274021   1.786   3.869   5.266  1.2850  2.1506 -0.1396
17536TIP3   OH274022   0.357   1.866  15.683  0.0809 -0.0363 -0.3034
17536TIP3    H174023   0.345   1.945  15.736  0.0931  0.5454 -1.1363
17536TIP3    H274024   0.287   1.807  15.710  0.6242 -0.1225  0.9899
17537TIP3   OH274025   5.633   4.494  13.997 -0.5746 -0.1936 -0.1871
17537TIP3    H174026   5.561   4.510  13.935 -0.8581 -1.1357 -0.1156
17537TIP3    H274027   5.592   4.506  14.083 -0.5990 -0.5189 -0.1519
17538TIP3   OH274028   4.902   5.185  16.745 -0.1583 -0.3446  0.4219
17538TIP3    H174029   4.981   5.154  16.702 -0.1253 -0.9572  0.9078
17538TIP3    H274030   4.931   5.258  16.799 -0.0796 -0.0126 -0.0689
17539TIP3   OH274031   5.186   4.149  14.106 -0.1836  0.0624  0.2572
17539TIP3    H174032   5.156   4.230  14.146 -1.4500 -0.4481  0.3911
17539TIP3    H274033   5.167   4.158  14.013 -0.8421 -0.2842  0.3502
17540TIP3   OH274034   2.672   6.044  16.062 -0.2350  0.2322  0.2344
17540TIP3    H174035   2.608   6.060  16.131 -1.6148  0.6419 -1.0850
17540TIP3    H274036   2.644   5.963  16.021  0.8422 -0.2513  0.4279
17541TIP3   OH274037   0.152   3.389  12.649  0.5110 -0.3862  0.1080
17541TIP3    H174038   0.114   3.475  12.661  1.6104 -0.0372  1.3071
17541TIP3    H274039   0.223   3.385  12.713 -0.6219 -2.8440  1.3627
17542TIP3   OH274040   2.867   0.465  15.253  0.4247 -0.1116 -0.2740
17542TIP3    H174041   2.831   0.545  15.215  0.3426 -0.4608 -0.9307
17542TIP3    H274042   2.948   0.494  15.296  0.8255  0.1935 -1.2010
17543TIP3   OH274043   3.039   4.307   4.939 -0.5759  0.7034 -0.2094
17543TIP3    H174044   3.093   4.237   4.902  0.1727  0.2446  1.6622
17543TIP3    H274045   2.969   4.262   4.987 -0.7601  1.2562  0.0567
17544TIP3   OH274046   3.931   5.111  12.115 -0.5097  0.2874  0.2155
17544TIP3    H174047   3.991   5.126  12.188 -0.4437 -0.8261  0.3983
17544TIP3    H274048   3.961   5.172  12.047  0.8853 -0.3022  0.2639
17545TIP3   OH274049   1.024   0.398  12.255 -0.4055 -0.0058 -0.0688
17545TIP3    H174050   1.021   0.343  12.177 -1.2348 -1.4922  0.9703
17545TIP3    H274051   1.114   0.431  12.257 -0.0482 -0.8803 -1.0128
17546TIP3   OH274052   1.282   3.536   1.986 -0.1697 -0.1765 -0.6522
17546TIP3    H174053   1.354   3.472   1.979 -0.6993 -0.6300 -2.5338
17546TIP3    H274054   1.320   3.608   2.036  0.6729 -1.6253  0.9305
17547TIP3   OH274055   1.062   6.490   2.466  0.0301 -0.4050 -0.7025
17547TIP3    H174056   1.061   6.492   2.561 -1.2340  2.0403 -0.6649
17547TIP3    H274057   1.005   6.417   2.442  0.2931 -0.9846  0.3942
17548TIP3   OH274058   2.329   4.207  13.455  0.5197 -0.0355 -0.0773
17548TIP3    H174059   2.347   4.280  13.396  1.5759  0.3081  0.6330
17548TIP3    H274060   2.341   4.129  13.402  1.4871  0.2663 -0.3131
17549TIP3   OH274061   5.373   5.836  11.435 -0.6037  0.4406 -0.2943
17549TIP3    H174062   5.390   5.743  11.419  4.4039  1.2296 -1.1815
17549TIP3    H274063   5.423   5.856  11.514  1.2591  2.8880 -1.9264
17550TIP3   OH274064   1.611   6.049  12.908  0.2515 -0.2856 -0.3412
17550TIP3    H174065   1.661   6.093  12.976 -0.5463  0.1853 -0.0487
17550TIP3    H274066   1.644   6.085  12.826 -1.3509  2.0123 -0.0904
17551TIP3   OH274067   5.391   4.107  11.251 -0.3416  0.1792  0.5045
17551TIP3    H174068   5.348   4.046  11.190 -0.9474  0.8310  0.2679
17551TIP3    H274069   5.484   4.083  11.246 -0.7187 -1.7745  1.6165
17552TIP3   OH274070   1.949   3.719   2.395  0.3572 -0.5821 -0.3403
17552TIP3    H174071   1.887   3.655   2.360 -0.2020 -0.4722  0.4294
17552TIP3    H274072   1.955   3.786   2.327 -1.5507  0.1906  0.1968
17553TIP3   OH274073   6.134   0.042  14.075  0.3630  0.4905  0.0678
17553TIP3    H174074   6.206  -0.011  14.110  0.3667  1.1207  1.0389
17553TIP3    H274075   6.055  -0.001  14.105  0.3438  0.3422 -0.1904
17554TIP3   OH274076   3.607   0.161   5.974  0.2438 -0.0828 -0.2668
17554TIP3    H174077   3.633   0.238   5.924 -2.0247  0.4943 -0.7069
17554TIP3    H274078   3.515   0.148   5.951  0.1817 -2.1116  0.8670
17555TIP3   OH274079   5.940   6.517  14.777  0.3563  0.0131 -0.3629
17555TIP3    H174080   6.009   6.505  14.712 -0.6249 -1.4367 -1.1894
17555TIP3    H274081   5.859   6.498  14.730 -0.2939 -2.8576  1.6487
17556TIP3   OH274082   4.844   6.215  12.167 -0.2205  0.0677  0.5115
17556TIP3    H174083   4.775   6.220  12.102  1.2784  1.4456 -1.0900
17556TIP3    H274084   4.822   6.283  12.231 -0.2305  0.6941 -0.1416
17557TIP3   OH274085   6.054   3.755   3.384  0.2806 -0.0777 -0.6055
17557TIP3    H174086   6.149   3.749   3.394  0.5814  0.4095 -2.6510
17557TIP3    H274087   6.020   3.764   3.473  2.0404 -1.5478  0.2765
17558TIP3   OH274088   0.059   5.838   5.229  0.0047  0.5570 -0.1795
17558TIP3    H174089   0.010   5.886   5.295 -2.2989 -1.3950 -0.3388
17558TIP3    H274090  -0.007   5.804   5.170  1.6331 -1.4895 -0.9571
17559TIP3   OH274091   6.441   1.083  16.162 -0.0540  0.9318  0.1966
17559TIP3    H174092   6.427   1.176  16.145  0.1189  0.6881 -1.4194
17559TIP3    H274093   6.531   1.067  16.135  0.5660  0.6538  2.2531
17560TIP3   OH274094   6.801   1.250  13.407  0.1525  0.0345  0.3069
17560TIP3    H174095   6.831   1.309  13.476  1.1275  1.5859 -1.3293
17560TIP3    H274096   6.708   1.238  13.424  0.0551  1.5933  1.0427
17561TIP3   OH274097   0.066   1.988  15.926 -0.6102 -0.1945  0.0115
17561TIP3    H174098   0.003   1.957  15.862  0.8478 -4.6448  0.3269
17561TIP3    H274099   0.143   2.013  15.875  0.0391 -2.3803 -0.1973
17562TIP3   OH274100   4.192   4.713  12.394 -0.9580 -0.4216  0.1966
17562TIP3    H174101   4.283   4.696  12.367 -0.3515  0.0751  1.8190
17562TIP3    H274102   4.199   4.736  12.487 -2.6661  0.4332  0.1378
17563TIP3   OH274103   6.023   1.235   3.784  0.1576 -0.0648 -0.9587
17563TIP3    H174104   6.054   1.287   3.858 -2.0984 -1.5852  1.2049
17563TIP3    H274105   6.003   1.149   3.820 -1.3087 -0.8096 -3.2757
17564TIP3   OH274106   2.526   4.612   2.365  0.2471 -0.5839  0.5255
17564TIP3    H174107   2.444   4.657   2.344 -0.1762 -1.3250  0.5625
17564TIP3    H274108   2.581   4.625   2.288  0.9701  1.8422  1.3591
17565TIP3   OH274109   4.920   4.808   5.449  0.5779  0.7401 -0.3202
17565TIP3    H174110   4.986   4.837   5.386  3.4321 -3.3555  0.3372
17565TIP3    H274111   4.856   4.760   5.397  1.3422 -0.1431 -0.4833
17566TIP3   OH274112   3.877   4.878  16.321 -0.0140  0.0600  0.4784
17566TIP3    H174113   3.898   4.949  16.382  1.9332 -1.7494  2.0547
17566TIP3    H274114   3.955   4.867  16.268 -0.0825 -1.2305  0.6134
17567TIP3   OH274115   4.852   4.432  12.429 -0.2947  0.0494  0.4261
17567TIP3    H174116   4.885   4.504  12.482 -2.1319  1.5307 -0.3451
17567TIP3    H274117   4.922   4.416  12.365  0.0388  1.3681  0.4226
17568TIP3   OH274118   1.982   3.421  13.020  0.3635 -0.5079 -0.3494
17568TIP3    H174119   1.983   3.464  12.934 -0.3830 -1.4816 -0.8609
17568TIP3    H274120   1.901   3.451  13.061  1.1025  0.5830  0.3665
17569TIP3   OH274121   4.544   1.396   2.555  0.4367  0.4398 -0.0856
17569TIP3    H174122   4.550   1.301   2.550 -0.0686  0.4765 -2.8370
17569TIP3    H274123   4.451   1.414   2.561  0.5461  0.7999  0.7972
17570TIP3   OH274124   2.080   0.943  13.454 -0.0015 -0.3568  0.0259
17570TIP3    H174125   2.124   1.027  13.460  0.9262 -0.9272  2.0777
17570TIP3    H274126   2.125   0.897  13.383  0.6186  0.2329  0.0250
17571TIP3   OH274127   4.980   3.427   3.762  0.2352 -0.6854  0.0392
17571TIP3    H174128   5.049   3.491   3.744  0.3906 -1.2446 -1.5848
17571TIP3    H274129   4.927   3.467   3.831  0.3206  1.2139 -0.9254
17572TIP3   OH274130   4.278   3.325  12.559  0.0820 -0.1109 -0.6101
17572TIP3    H174131   4.320   3.302  12.642 -0.0015  1.3857 -0.1378
17572TIP3    H274132   4.285   3.245  12.506  1.1438 -0.7247  0.4158
17573TIP3   OH274133   4.760   0.017   1.201 -0.4371 -0.4017  0.0482
17573TIP3    H174134   4.812   0.067   1.264  0.3290 -0.3721 -0.5932
17573TIP3    H274135   4.711   0.083   1.153  0.2443 -0.2903 -0.5044
17574TIP3   OH274136   0.972   5.322   3.724 -0.0294 -0.4094 -0.1810
17574TIP3    H174137   0.978   5.266   3.802  0.3078 -1.8416 -1.1816
17574TIP3    H274138   0.900   5.382   3.742  0.4111 -0.3276  1.4511
17575TIP3   OH274139   4.462   3.747   5.297  0.1329 -0.0445 -0.7636
17575TIP3    H174140   4.391   3.764   5.359  1.7819 -1.2544  1.6464
17575TIP3    H274141   4.457   3.652   5.281  1.2600 -0.1752 -0.4267
17576TIP3   OH274142   6.689   0.922  12.763  0.4674 -0.0023  0.1391
17576TIP3    H174143   6.711   0.939  12.854 -0.2780 -1.9761  0.7260
17576TIP3    H274144   6.687   0.827  12.755 -0.6177  0.1149 -1.6430
17577TIP3   OH274145   2.226   2.752  11.723  0.3841 -0.6826  0.0371
17577TIP3    H174146   2.239   2.814  11.652  0.8545  0.5119  1.1366
17577TIP3    H274147   2.140   2.773  11.759  0.3751 -0.9365  0.1715
17578TIP3   OH274148   6.217   0.774   1.461 -0.3242 -0.5098  1.2998
17578TIP3    H174149   6.156   0.848   1.463 -0.6460 -0.7239  0.2629
17578TIP3    H274150   6.290   0.803   1.406  0.2861 -0.4298  2.1348
17579TIP3   OH274151   2.304   4.752   2.264  0.4129  0.1932 -0.7395
17579TIP3    H174152   2.279   4.734   2.173 -0.6060 -0.1625 -0.4096
17579TIP3    H274153   2.220   4.760   2.310  0.9094  1.2387  0.0091
17580TIP3   OH274154   6.084   4.715  11.096  0.0787  0.1152 -0.0875
17580TIP3    H174155   6.149   4.728  11.027  0.8147  0.6185  0.6752
17580TIP3    H274156   6.095   4.624  11.123  0.2978  0.1261 -0.1357
17581TIP3   OH274157   5.952   3.976  14.819 -0.0156  0.6913 -0.2853
17581TIP3    H174158   5.940   4.037  14.892  1.1416 -1.5989  1.9368
17581TIP3    H274159   5.873   3.922  14.820 -0.1625  0.8859 -0.9884
17582TIP3   OH274160   3.434   0.554   0.240  0.0261  0.9507  0.0996
17582TIP3    H174161   3.365   0.580   0.179 -2.4700 -0.8643  1.9375
17582TIP3    H274162   3.487   0.492   0.191  0.0842  1.9866 -1.1937
17583TIP3   OH274163   1.739   3.375   1.526 -0.0339  0.0243  0.6192
17583TIP3    H174164   1.825   3.417   1.528  1.2405 -2.3584 -0.0645
17583TIP3    H274165   1.747   3.308   1.458 -3.1693  1.1107 -0.9997
17584TIP3   OH274166   3.493   2.722   4.184 -0.1789 -0.1265  0.3786
17584TIP3    H174167   3.434   2.712   4.259 -1.2515 -0.3662 -0.4642
17584TIP3    H274168   3.495   2.817   4.168  1.5747  0.1333  1.8510
17585TIP3   OH274169   3.335   6.487   1.067  0.4763  0.3340 -0.9594
17585TIP3    H174170   3.350   6.422   1.136 -1.6285 -1.9854 -2.5079
17585TIP3    H274171   3.398   6.464   0.999 -0.1862 -0.0658 -1.4546
17586TIP3   OH274172   6.092   2.035   5.886 -0.4040  0.1402  0.7162
17586TIP3    H174173   6.042   2.069   5.960 -0.6946  0.0865  0.5453
17586TIP3    H274174   6.181   2.067   5.901 -0.5429  0.4517  0.8868
17587TIP3   OH274175   3.591   3.184  12.982 -0.2339 -0.4082 -0.1612
17587TIP3    H174176   3.671   3.200  12.931 -0.7809 -1.0459 -1.2782
17587TIP3    H274177   3.552   3.270  12.993  1.0973  0.0502  1.2767
17588TIP3   OH274178   0.414   4.570  16.716 -0.5512  0.4343  0.4252
17588TIP3    H174179   0.438   4.508  16.647 -1.6160 -0.6083  0.9648
17588TIP3    H274180   0.453   4.653  16.689  2.0264 -0.7187  0.3076
17589TIP3   OH274181   4.602   0.137  12.904  0.3397 -0.2623 -0.5681
17589TIP3    H174182   4.675   0.162  12.847 -1.1680  0.2506 -2.3806
17589TIP3    H274183   4.606   0.200  12.976  0.6264  0.9425 -1.5934
17590TIP3   OH274184   1.088   3.655  13.520 -0.0778  0.0737 -0.2606
17590TIP3    H174185   1.113   3.598  13.448  1.3420 -1.2699  1.1998
17590TIP3    H274186   1.000   3.626  13.545  0.6537 -1.6504  0.5233
17591TIP3   OH274187   3.114   1.503   1.183  0.1760 -0.7539  0.8438
17591TIP3    H174188   3.057   1.426   1.180  0.5412 -1.0084  0.0225
17591TIP3    H274189   3.185   1.479   1.242  0.9811 -1.5631 -0.4039
17592TIP3   OH274190   0.295   2.518   3.689 -0.0115 -0.2926  0.5209
17592TIP3    H174191   0.249   2.491   3.768  1.6860 -0.4216  1.5311
17592TIP3    H274192   0.237   2.493   3.617 -2.0143  0.6353  1.7251
17593TIP3   OH274193   3.008   2.255  11.627  0.6474 -0.1929  0.1106
17593TIP3    H174194   3.084   2.287  11.675  0.0093  1.7276 -0.0846
17593TIP3    H274195   3.042   2.184  11.573  2.0532 -0.1458  0.8962
17594TIP3   OH274196   3.350   3.055   3.004 -0.1093  0.0122  0.4147
17594TIP3    H174197   3.438   3.022   3.021  1.3876  2.6998 -1.3736
17594TIP3    H274198   3.300   3.031   3.082  2.8419  0.4376  2.6365
17595TIP3   OH274199   3.838   5.284  15.027 -0.3770  0.1015 -0.1824
17595TIP3    H174200   3.836   5.188  15.023  0.3847  0.0691 -0.1165
17595TIP3    H274201   3.914   5.303  15.083 -1.7713  0.7210  1.5969
17596TIP3   OH274202   2.979   6.779  10.630 -0.0464  0.8390  0.2602
17596TIP3    H174203   3.030   6.725  10.690 -1.0430  0.4296  0.7668
17596TIP3    H274204   3.024   6.864  10.630  1.3599  0.1175 -0.3266
17597TIP3   OH274205   1.329   2.658   6.542  0.4675  0.4827 -0.1143
17597TIP3    H174206   1.267   2.730   6.534  0.4837  0.5406  0.2995
17597TIP3    H274207   1.276   2.585   6.574  0.6020  0.5199  0.1948
17598TIP3   OH274208   0.597   0.862  15.091  0.1995 -0.8071 -0.2070
17598TIP3    H174209   0.506   0.851  15.118  0.5308  0.4012  1.6159
17598TIP3    H274210   0.601   0.953  15.060  0.3615 -1.4735 -2.2544
17599TIP3   OH274211   5.289   4.614  15.051 -0.1327 -0.4058 -0.7832
17599TIP3    H174212   5.219   4.667  15.090  1.5351  0.0397  1.8350
17599TIP3    H274213   5.350   4.678  15.015  0.7549 -0.5689  0.3571
17600TIP3   OH274214   1.582   6.335  14.752  0.2628 -0.2844 -0.2413
17600TIP3    H174215   1.672   6.325  14.721 -0.2379  1.3088 -2.4577
17600TIP3    H274216   1.565   6.255  14.802  2.0746 -1.8334 -1.9179
17601TIP3   OH274217   2.332   1.520   1.679  0.1094 -0.2572  0.1319
17601TIP3    H174218   2.422   1.530   1.646 -0.7250  0.5850 -2.0616
17601TIP3    H274219   2.342   1.522   1.774  2.5074 -1.1393 -0.0144
17602TIP3   OH274220   0.405   5.530  12.022  0.1070 -0.7084 -0.0819
17602TIP3    H174221   0.399   5.435  12.023  0.9910 -0.8399  3.4323
17602TIP3    H274222   0.314   5.560  12.019 -0.3083 -1.7395  1.4290
17603TIP3   OH274223   5.942   2.500   0.114  0.3907 -0.4181 -0.6331
17603TIP3    H174224   5.889   2.580   0.111  3.9773  2.2733  0.6328
17603TIP3    H274225   5.958   2.479   0.022 -2.5236 -1.2648 -1.0598
17604TIP3   OH274226   4.124   6.123   2.756 -0.4264 -0.1491 -0.4230
17604TIP3    H174227   4.171   6.128   2.672 -0.2164  1.7354 -0.2338
17604TIP3    H274228   4.098   6.032   2.763  1.4825 -0.8388 -1.4971
17605TIP3   OH274229   0.066   5.868  16.258  0.3569 -0.0280 -0.2562
17605TIP3    H174230  -0.004   5.850  16.321 -2.5573  0.1143 -3.1537
17605TIP3    H274231   0.030   5.839  16.174  2.6009  2.8674 -2.4193
17606TIP3   OH274232   6.335   3.332  11.054  0.1406  0.4809 -0.2570
17606TIP3    H174233   6.376   3.342  10.968 -0.5122  0.5003 -0.5696
17606TIP3    H274234   6.370   3.249  11.087 -1.0229 -0.4793 -1.3480
17607TIP3   OH274235   1.223   2.079  14.459  0.2693  0.3542  0.1287
17607TIP3    H174236   1.190   1.999  14.418 -0.1919  1.2034 -1.2298
17607TIP3    H274237   1.158   2.101  14.525 -0.4196  0.4256 -0.5557
17608TIP3   OH274238   4.460   4.958   3.044  0.1380 -0.0406  0.4915
17608TIP3    H174239   4.510   4.974   2.964 -2.5747  0.4867 -1.2274
17608TIP3    H274240   4.456   5.044   3.087  0.0258  0.0926  0.2171
17609TIP3   OH274241   5.459   2.369   5.763 -0.1765 -0.1114  0.3177
17609TIP3    H174242   5.500   2.452   5.787 -0.8033 -0.7284  4.2582
17609TIP3    H274243   5.367   2.380   5.789 -0.6881 -1.4516 -0.8225
17610TIP3   OH274244   4.154   0.835  14.837  0.0014  0.0939  0.0660
17610TIP3    H174245   4.221   0.894  14.873 -0.3247  1.5743 -1.5859
17610TIP3    H274246   4.146   0.765  14.902  1.0466  1.4067  1.6999
17611TIP3   OH274247   6.715   2.170   2.384 -0.5423  0.7379 -0.0036
17611TIP3    H174248   6.743   2.187   2.294  0.7923 -0.9855  0.0457
17611TIP3    H274249   6.691   2.078   2.384  0.4497  0.4487  1.6324
17612TIP3   OH274250   0.569   2.152  12.692  0.5000  0.8665  0.4913
17612TIP3    H174251   0.535   2.114  12.773 -0.1994  0.2106 -0.0921
17612TIP3    H274252   0.581   2.245  12.713 -1.5104  1.1173  0.8125
17613TIP3   OH274253   4.911   4.969  14.381 -0.4836  0.2249  0.0784
17613TIP3    H174254   4.906   4.991  14.474  0.0048 -1.0886  0.4371
17613TIP3    H274255   5.002   4.942  14.367 -0.1762  1.6992 -1.1147
17614TIP3   OH274256   0.408   2.618  15.324 -0.6231 -0.0485  0.4467
17614TIP3    H174257   0.390   2.643  15.234  1.8804  0.3749 -0.0006
17614TIP3    H274258   0.368   2.532  15.334 -0.0490 -0.5655 -1.3987
17615TIP3   OH274259   1.778   2.529  12.617 -0.2849 -0.2716 -0.0244
17615TIP3    H174260   1.825   2.471  12.677 -2.0903 -1.0241  0.7247
17615TIP3    H274261   1.744   2.599  12.673  0.5398  0.6779 -0.6767
17616TIP3   OH274262   6.056   3.478   3.309 -0.1637  0.1733  0.3595
17616TIP3    H174263   6.151   3.470   3.301 -0.1472  1.6172 -1.3368
17616TIP3    H274264   6.039   3.572   3.310 -1.6204 -0.0523  0.3233
17617TIP3   OH274265   4.720   1.403  10.455 -0.8560  0.2463  0.6758
17617TIP3    H174266   4.805   1.437  10.483 -1.3329 -0.2375  2.8934
17617TIP3    H274267   4.697   1.457  10.379  0.1725  2.2741  1.7091
17618TIP3   OH274268   5.348   4.580   4.065  0.0443  0.5004  0.4791
17618TIP3    H174269   5.425   4.636   4.054  0.1010  0.2477 -0.5389
17618TIP3    H274270   5.290   4.630   4.122  0.8893  0.7678  1.1193
17619TIP3   OH274271   3.533   4.000  14.379  0.3309  0.2173 -0.1890
17619TIP3    H174272   3.546   4.051  14.459  3.2167 -1.4042  0.5362
17619TIP3    H274273   3.444   4.020  14.351  0.0881  2.7579  2.0344
17620TIP3   OH274274   5.666   1.701  13.075  0.2034 -1.1549 -0.4056
17620TIP3    H174275   5.709   1.662  12.999 -0.0429 -0.2569 -1.0231
17620TIP3    H274276   5.669   1.795  13.059 -0.8658 -1.0077  0.1364
17621TIP3   OH274277   0.087   6.266   3.933 -0.2736  0.2597 -0.8588
17621TIP3    H174278   0.087   6.305   4.021  1.0385 -0.8991 -0.2932
17621TIP3    H274279   0.161   6.308   3.889 -0.5650  0.4032 -1.2153
17622TIP3   OH274280   0.000   3.749  11.825  0.4542 -0.6598 -0.2198
17622TIP3    H174281  -0.078   3.803  11.822  0.2965 -0.9191 -0.8068
17622TIP3    H274282   0.067   3.805  11.865  0.3486  0.0423 -1.0072
17623TIP3   OH274283   5.021   5.025   0.653  0.6472 -0.1695  0.3221
17623TIP3    H174284   4.974   4.986   0.727  1.2273  0.0684  0.8175
17623TIP3    H274285   5.047   5.111   0.683  1.8222 -0.4777  0.2303
17624TIP3   OH274286   6.436   2.494   2.550 -0.2197  0.0080 -0.1313
17624TIP3    H174287   6.345   2.488   2.520 -0.0245  1.8548 -1.2289
17624TIP3    H274288   6.439   2.575   2.600  0.9085  0.1600 -0.4250
17625TIP3   OH274289   5.494   3.464  16.443  0.1059 -1.1122  0.0779
17625TIP3    H174290   5.434   3.423  16.505 -1.0815 -1.1442 -1.0666
17625TIP3    H274291   5.438   3.497  16.373  1.1617  0.9864  0.1231
17626TIP3   OH274292   0.889   3.978  16.753 -0.0211 -0.0314 -0.4039
17626TIP3    H174293   0.917   4.004  16.841  0.1170 -0.0666 -0.4370
17626TIP3    H274294   0.899   4.057  16.701 -1.0393  0.2643 -0.1736
17627TIP3   OH274295   2.648   1.759  13.662 -0.4007  0.6588 -0.3720
17627TIP3    H174296   2.667   1.834  13.606 -0.1124  0.1478 -0.9733
17627TIP3    H274297   2.665   1.683  13.607  0.4934  0.1198  0.6034
17628TIP3   OH274298   0.636   3.774  16.346 -0.0857  0.1722 -0.2089
17628TIP3    H174299   0.599   3.853  16.384  0.1214  0.2835 -0.2383
17628TIP3    H274300   0.564   3.710  16.349 -0.0978  0.2049  0.2795
17629TIP3   OH274301   5.379   3.210  13.861  0.6073 -0.2650  0.2080
17629TIP3    H174302   5.420   3.124  13.869 -0.6045 -0.7466  1.5737
17629TIP3    H274303   5.299   3.194  13.811  0.3861  0.0815  0.4512
17630TIP3   OH274304   0.663   0.927   4.357  0.6041 -0.0939 -0.5824
17630TIP3    H174305   0.604   0.999   4.375 -2.5838 -2.9120  1.5741
17630TIP3    H274306   0.695   0.900   4.443 -0.6128 -2.8796 -0.8851
17631TIP3   OH274307   6.182   0.709   2.301 -0.6750  0.4677  0.6750
17631TIP3    H174308   6.109   0.668   2.348  0.4357 -0.6821  1.4636
17631TIP3    H274309   6.255   0.705   2.363  1.1340 -1.9580 -1.4301
17632TIP3   OH274310   3.497   0.309   5.470  0.0637  0.3121 -0.2102
17632TIP3    H174311   3.437   0.334   5.400  2.0524 -1.3975 -2.7154
17632TIP3    H274312   3.570   0.371   5.463  0.7721 -0.5190 -0.3954
17633TIP3   OH274313   0.146   0.127   2.752  0.0454 -0.3819 -0.2845
17633TIP3    H174314   0.136   0.221   2.738  0.6638 -0.3317 -0.4348
17633TIP3    H274315   0.240   0.115   2.770  0.0719 -1.0366 -0.8137
17634TIP3   OH274316   0.502   5.159   3.490 -1.2979 -0.4305 -0.0939
17634TIP3    H174317   0.560   5.174   3.416 -2.5737 -1.6917 -1.4185
17634TIP3    H274318   0.538   5.213   3.560 -0.0308  0.8059 -1.6137
17635TIP3   OH274319   5.404   0.995   1.231  0.3741  0.5260 -0.2250
17635TIP3    H174320   5.358   0.988   1.147 -0.5884 -0.0858  0.3399
17635TIP3    H274321   5.407   0.905   1.264  2.4381  0.4527 -0.4742
17636TIP3   OH274322   3.115   2.462  14.917  0.2029  0.5280  0.0105
17636TIP3    H174323   3.129   2.374  14.883  0.5632 -0.3137  2.1874
17636TIP3    H274324   3.046   2.499  14.861  0.3153 -0.9751 -1.1752
17637TIP3   OH274325   4.888   5.941   4.819  0.1994 -0.2082  0.2803
17637TIP3    H174326   4.802   5.910   4.847  0.1520 -0.4097 -0.0730
17637TIP3    H274327   4.911   5.884   4.745  0.4737  0.0768  0.1406
17638TIP3   OH274328   2.665   4.419   4.521  0.3523  0.4466  0.0232
17638TIP3    H174329   2.709   4.501   4.544 -0.7124  1.3287 -0.9523
17638TIP3    H274330   2.695   4.357   4.587  1.7667  1.4173  0.3507
17639TIP3   OH274331   0.121   0.221   5.132  0.2579  0.0008  0.6809
17639TIP3    H174332   0.111   0.313   5.108  0.9908  0.4173  1.8730
17639TIP3    H274333   0.203   0.218   5.182 -0.0986 -1.1802  1.2398
17640TIP3   OH274334   0.888   1.896   3.434 -0.3657 -0.6553  0.2352
17640TIP3    H174335   0.818   1.848   3.479 -0.8392 -0.9036 -0.7385
17640TIP3    H274336   0.893   1.855   3.348  1.0947 -0.7416  0.3295
17641TIP3   OH274337   3.646   3.556  13.729 -0.2278  0.4037  0.0420
17641TIP3    H174338   3.594   3.567  13.808  0.6511  1.5334  0.5021
17641TIP3    H274339   3.625   3.633  13.676  0.2597  0.3886 -0.1787
17642TIP3   OH274340   4.893   5.564   2.159  0.3501 -0.0664  0.1643
17642TIP3    H174341   4.935   5.639   2.117 -1.0028  0.4404 -0.3347
17642TIP3    H274342   4.849   5.518   2.088  1.4364 -1.5736  0.3991
17643TIP3   OH274343   3.515   4.136  10.754  0.3914 -0.1359 -0.3114
17643TIP3    H174344   3.420   4.140  10.746  0.4724  0.2108 -1.1838
17643TIP3    H274345   3.534   4.043  10.765 -0.1332 -0.0895  1.1450
17644TIP3   OH274346   2.996   5.080  14.710 -0.5359 -0.3575 -0.2133
17644TIP3    H174347   3.021   5.126  14.630 -1.3366 -0.1274 -0.3464
17644TIP3    H274348   2.909   5.044  14.691 -0.5664 -0.6429  0.4158
17645TIP3   OH274349   1.786   1.868  13.903 -0.5044  0.0716 -0.5878
17645TIP3    H174350   1.799   1.943  13.845 -0.8381  0.2916 -0.3824
17645TIP3    H274351   1.705   1.889  13.951  0.0157  0.1097  0.2865
17646TIP3   OH274352   5.077   6.593  12.815 -0.2615  0.0375 -0.8076
17646TIP3    H174353   5.104   6.606  12.723  1.5329  0.2339 -0.2933
17646TIP3    H274354   5.007   6.657  12.828 -1.8363 -1.2467 -2.5326
17647TIP3   OH274355   3.983   0.362   5.351  0.4543 -0.1214  0.6305
17647TIP3    H174356   3.922   0.294   5.377 -1.4418  1.5692  0.8428
17647TIP3    H274357   3.930   0.423   5.299  2.0494  1.2412  0.5170
17648TIP3   OH274358   6.677   1.827  14.027  0.4522  0.2171  0.2651
17648TIP3    H174359   6.702   1.769  14.099  0.6851  0.7810  0.6506
17648TIP3    H274360   6.586   1.804  14.008  0.5214 -0.2200  0.4645
17649TIP3   OH274361   5.727   6.250  11.192 -0.3149  0.2783  0.2996
17649TIP3    H174362   5.661   6.244  11.123 -0.5743  0.3453  0.5407
17649TIP3    H274363   5.766   6.336  11.179 -1.5852  1.0470  1.3226
17650TIP3   OH274364   5.685   3.839  13.802  0.0518 -0.1933 -0.5865
17650TIP3    H174365   5.696   3.809  13.712  0.1876 -0.9903 -0.3108
17650TIP3    H274366   5.594   3.819  13.823 -0.4415  1.4046 -1.0464
17651TIP3   OH274367   2.421   5.128   2.414 -0.1781 -0.1532 -0.2152
17651TIP3    H174368   2.439   5.207   2.362 -1.8058 -1.2030 -2.5640
17651TIP3    H274369   2.326   5.123   2.418 -0.0882 -0.9494  1.6386
17652TIP3   OH274370   1.714   2.823   1.293 -0.2780  0.1014 -0.0034
17652TIP3    H174371   1.751   2.815   1.206 -1.1583  0.2042 -0.4000
17652TIP3    H274372   1.763   2.760   1.346 -0.2795 -0.5566 -0.7609
17653TIP3   OH274373   2.835   0.206  16.739 -0.1829  0.3839  0.8723
17653TIP3    H174374   2.786   0.128  16.712  0.7875  0.4225 -1.1619
17653TIP3    H274375   2.786   0.240  16.813 -2.7860 -0.0342 -0.5387
17654TIP3   OH274376   5.275   1.814  16.314  0.4651  0.3195  0.2381
17654TIP3    H174377   5.370   1.815  16.314  0.4657  0.3746  0.4753
17654TIP3    H274378   5.251   1.745  16.376  0.3422  2.9203  3.3231
17655TIP3   OH274379   6.236   6.742   1.051 -0.5183 -0.8835 -0.5476
17655TIP3    H174380   6.300   6.671   1.045 -0.3188 -0.7050 -0.5291
17655TIP3    H274381   6.167   6.707   1.108  0.2577 -0.5522  0.6433
17656TIP3   OH274382   3.354   0.204  15.757  0.2974 -0.3187 -0.5710
17656TIP3    H174383   3.262   0.210  15.784  0.4182  0.7796 -0.3400
17656TIP3    H274384   3.350   0.171  15.667 -0.4424  1.2886 -1.1647
17657TIP3   OH274385   5.257   3.010  12.303 -0.3115 -0.0814  0.0805
17657TIP3    H174386   5.240   2.926  12.346 -1.3489 -0.5066 -1.0775
17657TIP3    H274387   5.348   3.030  12.324  0.3687 -2.1412 -0.6543
17658TIP3   OH274388   4.569   3.514  15.562  0.3973 -0.0764 -0.4091
17658TIP3    H174389   4.518   3.433  15.562 -1.3355  0.9342 -1.8827
17658TIP3    H274390   4.585   3.533  15.470 -0.0053  1.6954 -0.1525
17659TIP3   OH274391   4.806   0.050   6.111 -0.2829 -0.1507  0.2071
17659TIP3    H174392   4.789   0.144   6.098 -1.9288 -0.4155  0.2265
17659TIP3    H274393   4.891   0.035   6.070 -0.5201  1.1294 -0.8189
17660TIP3   OH274394   0.972   6.739  16.044  0.4036  0.4173 -0.5599
17660TIP3    H174395   1.022   6.668  16.003  0.9765  1.9411 -2.6502
17660TIP3    H274396   0.881   6.709  16.041  0.5639  0.0121 -1.9574
17661TIP3   OH274397   0.751   1.501   0.595 -0.0060 -0.4236  0.2618
17661TIP3    H174398   0.770   1.589   0.561 -1.2409 -0.0847  0.3967
17661TIP3    H274399   0.821   1.446   0.560 -0.1446  0.2922 -1.2270
17662TIP3   OH274400   2.869   4.870   1.065 -0.4661 -0.0143 -0.2718
17662TIP3    H174401   2.867   4.816   1.144 -1.2834  1.0802  0.4863
17662TIP3    H274402   2.777   4.874   1.037 -0.5624  1.6410  0.1797
17663TIP3   OH274403   2.328   0.821  16.990  0.2716  0.4341 -0.4489
17663TIP3    H174404   2.346   0.727  16.982 -0.5316  0.3224 -1.1573
17663TIP3    H274405   2.409   0.859  17.024  0.7853 -0.4461 -0.6731
17664TIP3   OH274406   1.876   6.321   1.395 -0.7303  0.1096 -0.1729
17664TIP3    H174407   1.901   6.294   1.483  1.7608  1.0526 -0.5087
17664TIP3    H274408   1.874   6.239   1.345 -0.7259 -0.2730  0.4336
17665TIP3   OH274409   6.408   5.324   1.308 -0.5140 -0.1506  0.3620
17665TIP3    H174410   6.356   5.244   1.313  1.9486 -1.8033  1.3597
17665TIP3    H274411   6.396   5.354   1.218 -0.9730 -2.0208 -0.2490
17666TIP3   OH274412   3.490   1.212   3.290  0.2003  0.5445 -0.0493
17666TIP3    H174413   3.548   1.231   3.363 -0.2215  1.3681  0.0768
17666TIP3    H274414   3.463   1.297   3.257 -0.9666  0.1756 -0.0858
17667TIP3   OH274415   0.059   6.725  10.460 -0.0346  0.4959  0.0992
17667TIP3    H174416   0.076   6.819  10.462 -0.1724  0.5337 -0.3346
17667TIP3    H274417   0.146   6.686  10.468  0.0010  0.6586  0.5023
17668TIP3   OH274418   6.670   6.769  11.414 -0.4045  1.0261 -0.2311
17668TIP3    H174419   6.577   6.757  11.397 -0.4706  1.5254 -0.2431
17668TIP3    H274420   6.711   6.688  11.383 -0.5687  1.7335 -2.4188
17669TIP3   OH274421   1.514   4.611  10.710 -0.0028 -0.3626 -0.0644
17669TIP3    H174422   1.589   4.670  10.712 -0.5481  0.3218  1.1092
17669TIP3    H274423   1.551   4.527  10.683  1.2249 -0.0803  0.6366
17670TIP3   OH274424   6.001   1.433   5.062 -0.1281  0.2021 -0.0249
17670TIP3    H174425   5.948   1.465   4.989 -1.3086 -2.2198 -0.3256
17670TIP3    H274426   6.077   1.392   5.020 -1.0113 -1.5552  0.0419
17671TIP3   OH274427   3.190   5.128   5.176  0.1769  0.2972  0.3215
17671TIP3    H174428   3.185   5.033   5.169  0.4482  0.2652  0.5341
17671TIP3    H274429   3.146   5.148   5.259 -1.8774  0.5606 -0.7793
17672TIP3   OH274430   5.863   0.331   5.738 -0.1871 -0.2466 -0.4848
17672TIP3    H174431   5.909   0.277   5.802 -3.2607 -0.7344  1.5752
17672TIP3    H274432   5.876   0.421   5.769  1.8323 -0.0610 -1.7361
17673TIP3   OH274433   6.382   2.355   4.307  0.2758  0.1787 -0.1432
17673TIP3    H174434   6.411   2.272   4.269  1.2114  0.0472  0.7959
17673TIP3    H274435   6.290   2.341   4.327  0.2165 -0.3457 -0.7558
17674TIP3   OH274436   4.830   2.668  16.468  0.3474 -0.5298  0.7258
17674TIP3    H174437   4.901   2.683  16.530 -1.8252  1.0946  3.0387
17674TIP3    H274438   4.772   2.745  16.479 -1.1636 -1.1882 -1.8783
17675TIP3   OH274439   0.473   5.129  14.082 -0.5183  0.0607 -0.4184
17675TIP3    H174440   0.419   5.208  14.088 -0.7220 -0.0455 -0.7935
17675TIP3    H274441   0.562   5.160  14.097 -0.5899  0.3749 -0.6111
17676TIP3   OH274442   2.782   6.372   1.377  0.4633 -0.5805 -0.4309
17676TIP3    H174443   2.750   6.288   1.343  0.3840 -0.6236 -0.2529
17676TIP3    H274444   2.705   6.428   1.379  0.0450 -1.1386  1.4185
17677TIP3   OH274445   5.853   0.027  11.528 -0.0893  0.8671  0.1911
17677TIP3    H174446   5.856  -0.035  11.455  0.8241 -0.1919  1.0875
17677TIP3    H274447   5.937   0.074  11.523 -0.0543  0.8429  0.5167
17678TIP3   OH274448   4.032   5.900  14.220 -0.2620 -0.3216  0.2938
17678TIP3    H174449   4.023   5.970  14.156 -1.9785  0.8783  1.7210
17678TIP3    H274450   4.121   5.908  14.253 -0.2912  0.9138  0.1030
17679TIP3   OH274451   3.874   5.651   5.013 -0.3017 -0.6185  0.1291
17679TIP3    H174452   3.835   5.667   4.927  2.6828  3.2787 -0.7783
17679TIP3    H274453   3.952   5.598   4.994 -0.1838 -0.5945  0.5483
17680TIP3   OH274454   3.408   1.501   1.123  0.1787  0.0368  0.5245
17680TIP3    H174455   3.404   1.469   1.213  1.0096 -1.2346  0.1314
17680TIP3    H274456   3.468   1.441   1.078 -0.6616  0.2904 -1.0261
17681TIP3   OH274457   4.387   1.589   0.628 -0.2494  0.3293  0.2579
17681TIP3    H174458   4.406   1.503   0.664 -0.3470  1.0882  2.2075
17681TIP3    H274459   4.297   1.607   0.653 -0.2720  0.9481 -0.2431
17682TIP3   OH274460   4.913   6.301   2.315 -0.3670 -0.0407  0.0150
17682TIP3    H174461   4.957   6.354   2.382 -1.5357  2.2015 -0.8596
17682TIP3    H274462   4.979   6.291   2.246 -0.1229  0.3437  0.1866
17683TIP3   OH274463   6.761   4.192  12.084  0.3461  0.2198  0.5910
17683TIP3    H174464   6.845   4.147  12.088  0.5074  0.2486 -1.4724
17683TIP3    H274465   6.782   4.283  12.108  1.3094  0.6521 -1.6383
17684TIP3   OH274466   1.342   3.067  12.340 -0.1560  0.1504  0.1216
17684TIP3    H174467   1.430   3.068  12.302 -0.2058 -1.6386 -0.1195
17684TIP3    H274468   1.357   3.063  12.435  0.0017  0.9336  0.1345
17685TIP3   OH274469   3.560   2.157  14.627  0.0490 -0.4035 -0.7107
17685TIP3    H174470   3.642   2.109  14.635  0.2885  0.1158 -0.0199
17685TIP3    H274471   3.569   2.208  14.546  0.8590  0.5029 -0.0678
17686TIP3   OH274472   0.673   0.145   4.415 -0.2745  0.2973  0.1937
17686TIP3    H174473   0.644   0.224   4.459  0.6380  1.1097 -0.6162
17686TIP3    H274474   0.754   0.121   4.460  1.8933  2.3850 -2.2896
17687TIP3   OH274475   5.013   4.509  11.479 -0.8559  0.1480  0.0775
17687TIP3    H174476   5.092   4.557  11.505 -0.9243 -0.2022  0.9520
17687TIP3    H274477   5.014   4.514  11.383 -0.2410  0.8946  0.1008
17688TIP3   OH274478   0.256   4.178   6.173 -0.2489  0.0622  0.4181
17688TIP3    H174479   0.325   4.139   6.227 -2.1680 -1.9069  1.5885
17688TIP3    H274480   0.197   4.220   6.235 -2.7831 -2.6827  0.0871
17689TIP3   OH274481   1.544   2.211  16.303  0.4663 -0.0787  0.1350
17689TIP3    H174482   1.479   2.163  16.252 -0.9114  0.4317  1.3527
17689TIP3    H274483   1.555   2.294  16.256 -2.5863  1.4271  1.7681
17690TIP3   OH274484   4.443   3.753  15.640 -0.1282  1.1956  0.5619
17690TIP3    H174485   4.495   3.674  15.628 -1.1239  0.7393 -0.9692
17690TIP3    H274486   4.409   3.745  15.729  0.2179  0.1718  0.6195
17691TIP3   OH274487   1.301   4.672  11.004 -0.1791 -0.5030  0.1122
17691TIP3    H174488   1.391   4.705  11.011  0.0763 -1.2071  0.1550
17691TIP3    H274489   1.285   4.668  10.909  0.4024 -1.8823  0.0531
17692TIP3   OH274490   2.253   2.354   5.302  0.2045 -0.0535 -0.0441
17692TIP3    H174491   2.326   2.404   5.339 -0.4693 -0.3160  1.7472
17692TIP3    H274492   2.260   2.267   5.341 -2.5068  0.6423  2.3179
17693TIP3   OH274493   1.660   2.603   3.996  0.2556 -0.0401  0.3749
17693TIP3    H174494   1.731   2.616   3.933 -0.3701  0.4835 -0.2496
17693TIP3    H274495   1.700   2.555   4.069  1.4294  0.9421  0.3985
17694TIP3   OH274496   1.964   0.087  11.211 -0.8555  0.2138 -0.0535
17694TIP3    H174497   1.953   0.092  11.116  0.6028 -0.3033 -0.2773
17694TIP3    H274498   1.955  -0.006  11.232 -1.9696  0.4205  0.4368
17695TIP3   OH274499   2.529   5.599  12.807 -0.7970 -0.1972  0.4341
17695TIP3    H174500   2.546   5.527  12.868  0.2549  1.2185  1.9089
17695TIP3    H274501   2.593   5.587  12.737 -3.0285 -2.7332 -1.3398
17696TIP3   OH274502   2.781   0.194  11.864 -0.0475  0.1628 -0.0947
17696TIP3    H174503   2.865   0.205  11.819 -0.2184  0.6952 -0.2889
17696TIP3    H274504   2.765   0.100  11.862  2.1021 -0.3964  2.7834
17697TIP3   OH274505   2.124   2.975  16.376  0.4609  0.0775  0.1249
17697TIP3    H174506   2.141   2.955  16.468 -0.9171 -0.6153  0.2552
17697TIP3    H274507   2.031   2.996  16.373  1.1203  3.4951 -0.5602
17698TIP3   OH274508   2.993   5.215   0.865  0.4205  0.0432 -0.1170
17698TIP3    H174509   3.013   5.288   0.806  0.7078  0.1236  0.0787
17698TIP3    H274510   2.997   5.253   0.952  0.5408 -0.2011 -0.0151
17699TIP3   OH274511   1.222   2.257   1.378  0.1698 -0.5251  0.2900
17699TIP3    H174512   1.262   2.180   1.419  1.6728  0.3678  0.5509
17699TIP3    H274513   1.147   2.277   1.435 -0.9908 -2.4461 -0.4264
17700TIP3   OH274514   2.587   4.954   4.775 -0.6468  0.3030  0.0746
17700TIP3    H174515   2.673   4.984   4.746 -0.8069  1.0860  0.3893
17700TIP3    H274516   2.562   4.888   4.711 -0.1431  0.6116 -0.4521
17701TIP3   OH274517   1.591   6.155   4.665 -0.2835  0.6447 -0.4360
17701TIP3    H174518   1.516   6.213   4.668  0.0227  1.2630 -2.6211
17701TIP3    H274519   1.653   6.191   4.728 -2.6659 -1.3608  3.3963
17702TIP3   OH274520   3.961   5.811  16.351 -0.0220 -0.0264 -0.0433
17702TIP3    H174521   3.960   5.817  16.255  0.2466 -0.0569 -0.0510
17702TIP3    H274522   4.050   5.779  16.371 -0.0484  0.0666  0.2210
17703TIP3   OH274523   4.796   2.510   1.104 -0.4105  0.2018  0.3162
17703TIP3    H174524   4.762   2.543   1.187 -0.2168 -0.5117  0.6830
17703TIP3    H274525   4.729   2.449   1.073 -0.2058  0.0194  0.2342
17704TIP3   OH274526   1.808   3.570  15.903 -0.0843  0.3233  0.0633
17704TIP3    H174527   1.726   3.619  15.904  0.2426  0.8857  1.5306
17704TIP3    H274528   1.811   3.527  15.989  2.0647  1.8727  0.8294
17705TIP3   OH274529   1.742   5.681   0.888 -0.3685  0.9607  0.2981
17705TIP3    H174530   1.780   5.735   0.957  0.4254  0.5117  0.2262
17705TIP3    H274531   1.725   5.743   0.816  0.2797  1.1714  0.3162
17706TIP3   OH274532   0.390   5.543   4.989 -0.0623  0.3622  0.4281
17706TIP3    H174533   0.420   5.507   4.906  0.7251  0.9804  0.4339
17706TIP3    H274534   0.308   5.587   4.967  0.3720  0.9179 -0.1267
17707TIP3   OH274535   3.462   2.354  12.194 -0.6554  0.1879 -0.0117
17707TIP3    H174536   3.505   2.317  12.117  1.3447 -0.7904  1.4886
17707TIP3    H274537   3.515   2.325  12.268 -1.1794  2.9386  1.6036
17708TIP3   OH274538   3.502   6.573  13.932  0.0451 -0.2906  0.2632
17708TIP3    H174539   3.462   6.534  14.010  1.4011 -0.6703  0.7903
17708TIP3    H274540   3.509   6.500  13.870  1.2571 -0.5947  0.7243
17709TIP3   OH274541   3.827   1.662  12.053 -0.4069 -0.2063 -0.2064
17709TIP3    H174542   3.801   1.649  11.962  0.5522  0.0651 -0.5267
17709TIP3    H274543   3.793   1.586  12.099 -3.7836  1.1596 -0.1462
17710TIP3   OH274544   5.321   0.143   3.085  0.1163  0.2106 -0.2510
17710TIP3    H174545   5.277   0.064   3.117  2.2748 -0.7833  0.4851
17710TIP3    H274546   5.326   0.200   3.161 -0.0965  0.4123 -0.3879
17711TIP3   OH274547   0.276   2.607   4.846  0.0954 -0.3463  0.2657
17711TIP3    H174548   0.356   2.644   4.811  0.5368  0.0832  1.6673
17711TIP3    H274549   0.239   2.676   4.902 -1.0883 -0.6465 -0.1148
17712TIP3   OH274550   6.256   6.308  11.795 -0.3942 -0.1911 -0.2265
17712TIP3    H174551   6.320   6.329  11.728 -0.5185  0.7730 -0.0493
17712TIP3    H274552   6.257   6.212  11.799  2.8887 -0.2588  1.5174
17713TIP3   OH274553   4.218   5.763   2.982  0.8272  0.1382 -0.6959
17713TIP3    H174554   4.287   5.802   2.928  3.3237 -0.4654  1.8298
17713TIP3    H274555   4.197   5.681   2.938  1.5177  0.4616 -1.6558
17714TIP3   OH274556   0.248   6.292   2.875 -0.6871 -0.2705 -0.0036
17714TIP3    H174557   0.264   6.201   2.851  0.9681 -0.6722  2.3156
17714TIP3    H274558   0.193   6.326   2.804 -0.4305 -2.7315 -1.5000
17715TIP3   OH274559   6.762   4.492   0.800 -0.0206 -0.1346  0.9098
17715TIP3    H174560   6.802   4.426   0.857  1.6975  0.1589  0.1190
17715TIP3    H274561   6.832   4.515   0.739 -1.7935 -0.4728 -1.3772
17716TIP3   OH274562   4.782   4.479  15.474  0.5326 -0.6243 -0.0910
17716TIP3    H174563   4.716   4.542  15.444  0.5143 -0.7089 -0.2327
17716TIP3    H274564   4.761   4.399  15.425 -0.1629 -1.0913  0.9373
17717TIP3   OH274565   5.722   1.858   4.189 -0.1687 -0.2699  0.6612
17717TIP3    H174566   5.653   1.795   4.207 -0.1062  0.1146  2.4906
17717TIP3    H274567   5.803   1.812   4.212 -0.0226  0.0409  0.7805
17718TIP3   OH274568   2.369   6.026  11.789 -0.1241  0.2955 -0.2673
17718TIP3    H174569   2.444   6.038  11.847 -0.7106  1.0481  0.3717
17718TIP3    H274570   2.333   6.114  11.778 -0.9201 -0.0550 -0.5517
17719TIP3   OH274571   4.277   2.337  15.010 -0.5666 -0.4140 -0.3192
17719TIP3    H174572   4.289   2.254  14.964  0.7140 -1.5870  1.9388
17719TIP3    H274573   4.206   2.320  15.072 -0.9129  0.4693 -0.4697
17720TIP3   OH274574   3.933   5.952  15.300 -0.2256 -0.6257  0.1651
17720TIP3    H174575   3.986   6.031  15.316  1.4462 -1.7466  0.3548
17720TIP3    H274576   3.853   5.985  15.259  0.6191  1.1275 -0.1641
17721TIP3   OH274577   6.156   0.708   6.191  0.0346  0.7327 -0.5267
17721TIP3    H174578   6.172   0.797   6.224 -0.7089  0.8495 -0.4619
17721TIP3    H274579   6.063   0.692   6.210  0.6215 -0.8538  1.3264
17722TIP3   OH274580   1.521   3.584   2.166  0.5719 -0.3466  0.2017
17722TIP3    H174581   1.552   3.638   2.094 -0.6225  0.5684  0.3328
17722TIP3    H274582   1.443   3.630   2.198  2.3378  0.6489  3.6279
17723TIP3   OH274583   3.481   4.864   1.419  0.0585 -0.4292  0.0529
17723TIP3    H174584   3.511   4.788   1.370 -0.2606 -0.8996  0.5826
17723TIP3    H274585   3.507   4.939   1.365 -1.6157 -0.9774 -1.6213
17724TIP3   OH274586   6.740   5.650   0.102 -0.1935 -0.1067 -0.1503
17724TIP3    H174587   6.798   5.693   0.039  0.2541 -2.0409 -1.1291
17724TIP3    H274588   6.779   5.564   0.116 -1.8908 -0.8091  0.4956
17725TIP3   OH274589   2.000   3.096  17.015  0.7046 -0.3886  0.5237
17725TIP3    H174590   2.093   3.077  17.023  0.8491  0.5554  1.1761
17725TIP3    H274591   1.996   3.188  16.991 -0.0692 -0.3134  0.9063
17726TIP3   OH274592   1.151   4.654   1.352 -0.4384 -0.6534  0.0088
17726TIP3    H174593   1.190   4.724   1.300 -1.3304 -0.8457 -0.9399
17726TIP3    H274594   1.220   4.629   1.414 -0.4658  1.8234  1.1569
17727TIP3   OH274595   6.175   1.721   4.894  0.3942  0.3026  0.6758
17727TIP3    H174596   6.230   1.749   4.820  1.2771  0.1711  1.2622
17727TIP3    H274597   6.222   1.647   4.932 -1.4703 -1.5014 -0.3337
17728TIP3   OH274598   5.860   5.342   0.625 -0.1680  0.1854 -0.0541
17728TIP3    H174599   5.852   5.421   0.571 -2.5189 -0.3108 -0.5469
17728TIP3    H274600   5.838   5.373   0.714 -2.1977 -0.0360 -0.4219
17729TIP3   OH274601   6.408   1.268   5.381 -0.2305 -0.4677  0.6774
17729TIP3    H174602   6.469   1.207   5.341  0.9261 -0.8933  2.8992
17729TIP3    H274603   6.386   1.228   5.465  0.3551  1.9869  2.1235
17730TIP3   OH274604   3.672   4.225   0.207  0.1563  0.0013  0.1992
17730TIP3    H174605   3.649   4.189   0.293 -2.7285 -0.5834 -0.7363
17730TIP3    H274606   3.636   4.314   0.208 -0.2539 -0.1539 -0.5680
17731TIP3   OH274607   6.278   5.854  11.131  0.8403  0.5562 -0.3573
17731TIP3    H174608   6.316   5.913  11.196  0.0984  1.9983 -1.1776
17731TIP3    H274609   6.208   5.905  11.090 -0.8423 -1.4155 -0.0949
17732TIP3   OH274610   2.265   1.049  15.541  0.4946 -0.0155 -0.0420
17732TIP3    H174611   2.258   1.047  15.637  1.0234 -0.3220 -0.0071
17732TIP3    H274612   2.247   1.140  15.518  0.1756  0.0220  0.3302
17733TIP3   OH274613   1.810   4.939  16.784  0.3780 -0.8649 -0.0809
17733TIP3    H174614   1.727   4.921  16.738 -0.4494  0.5307  0.7809
17733TIP3    H274615   1.786   4.936  16.876  1.3458 -0.6386  0.1789
17734TIP3   OH274616   2.968   4.713  16.018 -0.0661  0.3921 -0.0553
17734TIP3    H174617   2.990   4.705  15.925 -2.6632 -2.7376 -0.5452
17734TIP3    H274618   3.046   4.682  16.063  0.7430  0.6486 -1.2152
17735TIP3   OH274619   4.291   4.615   4.630 -0.1834 -0.1341  0.1706
17735TIP3    H174620   4.374   4.615   4.583 -0.9469  1.5463 -1.2801
17735TIP3    H274621   4.300   4.684   4.696 -0.8778  1.0645 -0.9393
17736TIP3   OH274622   2.436   1.299  12.876 -0.7229 -0.4819 -0.3491
17736TIP3    H174623   2.444   1.246  12.956  0.9686 -1.3714 -1.0545
17736TIP3    H274624   2.517   1.348  12.871  0.2971 -2.1885 -2.6686
17737TIP3   OH274625   1.624   5.223  11.793 -0.5710 -0.1886  0.0678
17737TIP3    H174626   1.595   5.142  11.835 -1.4601 -0.4042 -0.9070
17737TIP3    H274627   1.544   5.260  11.757  0.0389  0.4195 -0.6851
17738TIP3   OH274628   6.617   1.674   2.985 -0.0946  0.0049  0.3961
17738TIP3    H174629   6.632   1.580   2.992 -1.9118 -0.2488  1.4873
17738TIP3    H274630   6.670   1.712   3.055 -0.1016 -0.2850  0.5580
17739TIP3   OH274631   0.598   4.772  16.717 -0.0188  0.5771  0.1198
17739TIP3    H174632   0.660   4.761  16.645 -1.1569  0.7838 -0.9314
17739TIP3    H274633   0.653   4.788  16.793  1.3340 -1.8219 -0.2427
17740TIP3   OH274634   1.024   3.543   1.202 -0.3998 -0.9766 -0.4533
17740TIP3    H174635   1.049   3.486   1.129  0.4656 -0.2466 -0.7513
17740TIP3    H274636   1.003   3.483   1.273 -2.6176 -1.7607 -1.6812
17741TIP3   OH274637   3.671   5.889  13.014  0.0975 -0.2680  0.1209
17741TIP3    H174638   3.643   5.904  13.104  0.1790 -1.1772  0.3096
17741TIP3    H274639   3.628   5.808  12.989  0.8174 -0.5219 -0.3315
17742TIP3   OH274640   6.669   2.902  13.700 -0.2705  0.1547  0.3638
17742TIP3    H174641   6.631   2.885  13.614  1.3150  0.2351 -0.3711
17742TIP3    H274642   6.594   2.898  13.760 -2.3095  4.5303 -1.4375
17743TIP3   OH274643   4.713   6.456   0.271 -0.0862 -0.0079 -0.0928
17743TIP3    H174644   4.637   6.499   0.311 -0.8604 -0.4648 -1.0233
17743TIP3    H274645   4.788   6.509   0.298 -0.6218 -0.0238  1.5506
17744TIP3   OH274646   2.533   0.471  14.345  0.0051  0.3067 -0.0867
17744TIP3    H174647   2.463   0.519  14.302  0.4323 -0.8153 -2.1704
17744TIP3    H274648   2.537   0.388  14.299  1.9722 -0.1027  0.7155
17745TIP3   OH274649   6.565   2.135  15.596 -0.7295 -0.4803  0.0112
17745TIP3    H174650   6.618   2.056  15.607 -0.3354 -0.5869 -2.1812
17745TIP3    H274651   6.626   2.206  15.617 -0.3396 -0.6743 -0.4447
17746TIP3   OH274652   1.188   0.418   1.988 -0.7608  0.3909  0.5745
17746TIP3    H174653   1.136   0.398   2.066 -0.0650 -0.1805  0.8982
17746TIP3    H274654   1.210   0.332   1.952  0.9367  0.5745  1.0928
17747TIP3   OH274655   4.590   2.094  13.710 -0.1952  0.5226 -0.1042
17747TIP3    H174656   4.656   2.159  13.735  1.3366 -1.1493  0.3214
17747TIP3    H274657   4.526   2.096  13.781  0.0293  1.2980  0.0859
17748TIP3   OH274658   1.971   2.749   4.049 -0.0539 -0.5739  0.2118
17748TIP3    H174659   1.958   2.788   3.962 -2.1759  1.2996  1.2706
17748TIP3    H274660   2.059   2.775   4.074 -0.1606  0.6276 -0.5605
17749TIP3   OH274661   2.454   4.005  15.669 -0.3394 -0.1157 -0.1521
17749TIP3    H174662   2.400   3.957  15.606  0.5502 -1.5986  0.1746
17749TIP3    H274663   2.525   4.041  15.616  0.7128 -1.8179  0.0109
17750TIP3   OH274664   2.724   3.156  15.261  0.3240 -0.3448  0.7266
17750TIP3    H174665   2.780   3.211  15.316 -0.4772  0.1395  1.0705
17750TIP3    H274666   2.671   3.218  15.211 -1.8716 -0.7398  2.4134
17751TIP3   OH274667   1.114   3.346  12.313 -0.0421 -0.1970 -0.3611
17751TIP3    H174668   1.089   3.279  12.375  0.1001 -0.8074 -0.9500
17751TIP3    H274669   1.178   3.400  12.359  0.7239 -1.1690 -0.2686
17752TIP3   OH274670   3.190   3.309  13.951  0.0258 -0.0603 -0.3969
17752TIP3    H174671   3.126   3.377  13.972  0.3969  0.3434 -0.5467
17752TIP3    H274672   3.165   3.235  14.006  0.8075  0.8548  1.2724
17753TIP3   OH274673   3.164   3.382  15.430  0.1747  0.0824  0.3725
17753TIP3    H174674   3.233   3.382  15.363  1.2284  1.7764  1.3728
17753TIP3    H274675   3.208   3.351  15.509 -1.0520 -1.8895  0.3487
17754TIP3   OH274676   3.468   4.577   4.019  0.7451  0.3266 -0.6776
17754TIP3    H174677   3.503   4.491   4.039 -1.3816 -0.2436  0.9897
17754TIP3    H274678   3.497   4.633   4.091  0.4210  0.4708 -0.6543
17755TIP3   OH274679   5.132   0.207  10.854  0.5451 -0.4250  0.2675
17755TIP3    H174680   5.144   0.196  10.949  0.6767 -2.0243  0.0913
17755TIP3    H274681   5.221   0.222  10.821  0.6029 -0.7150  0.2935
17756TIP3   OH274682   4.544   3.429   0.108  0.0679 -0.1111  0.0952
17756TIP3    H174683   4.488   3.502   0.081 -0.2474 -0.1163  0.7142
17756TIP3    H274684   4.500   3.351   0.076  1.4392  0.0166 -2.4310
17757TIP3   OH274685   2.307   6.037  10.559 -0.9346  0.4316  0.3894
17757TIP3    H174686   2.391   6.079  10.573 -0.7432  0.1809  0.0255
17757TIP3    H274687   2.298   5.975  10.631 -0.0295 -0.7439 -0.4624
17758TIP3   OH274688   5.353   6.278   0.176  0.8247 -0.1241  0.2882
17758TIP3    H174689   5.419   6.339   0.143  1.0585 -0.0482  0.8738
17758TIP3    H274690   5.375   6.267   0.269  2.8488 -3.6783 -0.4462
17759TIP3   OH274691   6.231   2.501   4.100  0.2437 -0.0017 -0.2701
17759TIP3    H174692   6.311   2.457   4.071  0.7559  0.1780  0.8087
17759TIP3    H274693   6.256   2.592   4.112 -0.7027  0.5365 -2.0525
17760TIP3   OH274694   1.653   5.167   4.310  0.0206 -0.2134 -0.0658
17760TIP3    H174695   1.705   5.245   4.325  1.5218 -1.4364  1.3646
17760TIP3    H274696   1.591   5.164   4.383 -0.6758  0.1273 -0.6332
17761TIP3   OH274697   2.580   0.282   2.033  0.5901 -0.2698 -0.0562
17761TIP3    H174698   2.602   0.271   2.125 -0.8517 -1.7233  0.1510
17761TIP3    H274699   2.541   0.198   2.007  1.4775 -0.1123 -2.1498
17762TIP3   OH274700   0.546   1.114  12.260  0.2622 -0.2917 -0.3608
17762TIP3    H174701   0.523   1.065  12.338 -0.1938  0.9940  0.3448
17762TIP3    H274702   0.512   1.062  12.187 -0.8706 -0.6475  0.4063
17763TIP3   OH274703   5.476   4.835  12.866 -0.2753 -0.0754  0.8295
17763TIP3    H174704   5.532   4.824  12.944 -1.1963  0.0536  1.5260
17763TIP3    H274705   5.410   4.898  12.893  0.7225  1.7621 -0.8228
17764TIP3   OH274706   3.328   2.933   0.638 -0.6459  1.3425 -0.3764
17764TIP3    H174707   3.396   2.941   0.705 -0.6195  0.3690 -0.2701
17764TIP3    H274708   3.247   2.959   0.682 -0.6366  0.6693  0.0646
17765TIP3   OH274709   0.110   2.603  15.511 -0.2107  0.2028  0.0385
17765TIP3    H174710   0.039   2.554  15.470 -1.1419  0.5407  1.2062
17765TIP3    H274711   0.184   2.543  15.510 -1.1867 -1.0612  0.9684
17766TIP3   OH274712   0.099   3.986  14.928  0.4052 -0.3397 -0.2065
17766TIP3    H174713   0.162   3.949  14.989 -1.0968 -2.5772  0.0981
17766TIP3    H274714   0.030   4.023  14.983  0.0281 -0.5581 -0.5166
17767TIP3   OH274715   1.064   5.695  14.919  0.1447  0.8141  0.2609
17767TIP3    H174716   0.994   5.653  14.869  1.7927 -0.0902 -1.4476
17767TIP3    H274717   1.060   5.787  14.893 -1.5557  1.1867  1.6644
17768TIP3   OH274718   3.502   1.111   5.809 -0.2061 -0.2662  0.1187
17768TIP3    H174719   3.582   1.124   5.859  1.0658 -0.4819 -1.7482
17768TIP3    H274720   3.478   1.020   5.825  0.0814 -0.2840  0.4531
17769TIP3   OH274721   5.995   4.370   6.158  0.1972  0.4558 -0.0264
17769TIP3    H174722   6.062   4.329   6.213  0.4641  1.8648  0.7424
17769TIP3    H274723   6.044   4.412   6.087  0.0263  0.4225 -0.1650
17770TIP3   OH274724   4.832   3.040   2.304 -0.8110  0.0946 -0.1341
17770TIP3    H174725   4.765   3.095   2.264  1.3875  1.6754 -1.9272
17770TIP3    H274726   4.850   2.973   2.238  0.7115  0.8865 -0.5683
17771TIP3   OH274727   4.505   6.460  15.506  0.3777  0.3179  0.0026
17771TIP3    H174728   4.549   6.375  15.497 -0.0475 -0.0440  1.1377
17771TIP3    H274729   4.531   6.509  15.428 -0.4374 -1.3343 -1.3825
17772TIP3   OH274730   4.653   0.910   1.314  0.0086 -0.2541  0.1496
17772TIP3    H174731   4.688   0.963   1.243 -0.9325 -0.5800 -0.5764
17772TIP3    H274732   4.581   0.861   1.274 -0.3961 -0.6017  1.2753
17773TIP3   OH274733   3.925   6.420  16.847 -0.1147  0.2672 -0.2616
17773TIP3    H174734   3.920   6.515  16.840 -1.0926  0.1640 -1.2856
17773TIP3    H274735   3.867   6.398  16.920  0.8880  0.5066  0.6341
17774TIP3   OH274736   4.390   3.663   0.077  0.2076 -0.3547  0.4482
17774TIP3    H174737   4.445   3.735   0.106 -1.4196  0.7339  1.0051
17774TIP3    H274738   4.315   3.665   0.137  0.4717 -3.0061  0.9651
17775TIP3   OH274739   4.142   3.423   4.094  0.1380  0.2594 -0.6307
17775TIP3    H174740   4.216   3.464   4.049  0.6240 -0.9097 -0.9565
17775TIP3    H274741   4.135   3.336   4.053 -1.0775  0.1511 -0.2292
17776TIP3   OH274742   6.628   3.212  13.823 -0.1850 -0.5988  0.4456
17776TIP3    H174743   6.580   3.129  13.828  0.3061 -1.0350 -1.3643
17776TIP3    H274744   6.702   3.200  13.883 -1.3265 -0.5891  1.9026
17777TIP3   OH274745   0.239   1.999  12.021  0.9836  0.6339 -0.0427
17777TIP3    H174746   0.304   2.012  12.090 -1.6921  1.5491  2.5579
17777TIP3    H274747   0.205   2.087  12.004 -2.2822 -0.1182  1.7366
17778TIP3   OH274748   1.854   0.268  15.609  0.4288  0.0074 -0.0341
17778TIP3    H174749   1.862   0.271  15.514 -0.8232 -0.5787 -0.1779
17778TIP3    H274750   1.940   0.294  15.641  1.4319 -1.5154 -1.3433
17779TIP3   OH274751   1.263   2.594  15.593 -0.5805 -0.5566 -0.2679
17779TIP3    H174752   1.217   2.522  15.637 -1.4175  0.0551 -0.1337
17779TIP3    H274753   1.194   2.645  15.552  0.0740 -0.2495 -1.0089
17780TIP3   OH274754   2.404   2.580   0.841  0.1203  0.0696  0.2218
17780TIP3    H174755   2.460   2.639   0.791  1.1400 -0.6056  0.5449
17780TIP3    H274756   2.457   2.501   0.853  0.4986  0.6973  3.5712
17781TIP3   OH274757   1.866   5.970   0.275  0.1514  0.1221  0.5740
17781TIP3    H174758   1.847   6.015   0.193 -0.1623 -1.7761 -0.4630
17781TIP3    H274759   1.941   6.017   0.312 -0.8239  2.1255  0.1384
17782TIP3   OH274760   6.609   0.596   4.768  0.0504 -0.5823  0.6530
17782TIP3    H174761   6.548   0.526   4.745 -1.3859  0.3406  1.4972
17782TIP3    H274762   6.610   0.596   4.864  0.9341 -0.1806  0.6557
17783TIP3   OH274763   3.412   2.221   5.259  0.0404 -0.4904  0.2827
17783TIP3    H174764   3.447   2.204   5.172  1.0685  1.1052  0.3396
17783TIP3    H274765   3.319   2.237   5.245  0.1532 -0.4839 -0.4912
17784TIP3   OH274766   4.811   4.835   5.840  0.0427  0.0013  0.3256
17784TIP3    H174767   4.738   4.799   5.890 -0.9936 -0.1078 -1.1828
17784TIP3    H274768   4.860   4.758   5.811  0.4791  0.0504  0.9231
17785TIP3   OH274769   5.840   2.971  11.475 -0.3625 -0.2245 -0.4670
17785TIP3    H174770   5.889   2.929  11.404  0.3702  0.4616 -0.3786
17785TIP3    H274771   5.789   3.039  11.431 -2.0555 -1.5703 -0.7046
17786TIP3   OH274772   3.173   4.096   0.135  0.0366  0.1635 -0.3105
17786TIP3    H174773   3.134   4.154   0.069 -2.4162 -1.1106 -0.0742
17786TIP3    H274774   3.187   4.153   0.211 -1.2645  0.7277 -0.4701
17787TIP3   OH274775   6.581   6.643   5.041  0.8067 -0.2757  0.0365
17787TIP3    H174776   6.605   6.731   5.068 -1.6511  0.6412 -0.4889
17787TIP3    H274777   6.487   6.637   5.059  0.4169 -1.9392 -2.0866
17788TIP3   OH274778   6.539   6.204   4.291  0.7504 -0.2148  0.2896
17788TIP3    H174779   6.558   6.114   4.318  0.1836  0.1147  1.9122
17788TIP3    H274780   6.443   6.207   4.282  0.8398 -0.0135 -0.7270
17789TIP3   OH274781   3.550   4.599  10.712  0.0428  0.0818 -0.7273
17789TIP3    H174782   3.460   4.619  10.738  0.4556  1.5189 -0.2668
17789TIP3    H274783   3.558   4.634  10.623  0.5811  1.4867 -0.1645
17790TIP3   OH274784   1.702   4.620   2.103 -0.5807  0.3857 -1.0187
17790TIP3    H174785   1.687   4.704   2.059 -1.3374 -0.5708 -2.6819
17790TIP3    H274786   1.698   4.641   2.196  0.8520  2.4594 -1.3437
17791TIP3   OH274787   4.021   0.262  13.154 -0.3708 -0.0732 -0.3457
17791TIP3    H174788   3.940   0.223  13.122 -0.9950  0.8174  0.1077
17791TIP3    H274789   4.029   0.230  13.244  0.3155 -0.9508 -0.7037
17792TIP3   OH274790   5.920   5.383  15.776  0.4260 -0.4533  0.1622
17792TIP3    H174791   5.941   5.379  15.869  1.2613  0.8684  0.0438
17792TIP3    H274792   5.857   5.312  15.763 -2.3748  1.3901  2.4094
17793TIP3   OH274793   4.893   0.041   2.487 -0.6028 -0.0623 -0.5682
17793TIP3    H174794   4.960   0.068   2.550 -1.1840 -1.7273  0.8552
17793TIP3    H274795   4.943   0.005   2.414  0.2096 -2.7501  1.1348
17794TIP3   OH274796   3.887   0.553  10.678 -0.1968 -0.0951 -0.2390
17794TIP3    H174797   3.895   0.549  10.583  2.1227 -1.6862 -0.0471
17794TIP3    H274798   3.844   0.471  10.701  0.9582 -0.6042  0.1797
17795TIP3   OH274799   2.063   0.681   4.355 -0.2948 -0.4633 -0.1527
17795TIP3    H174800   2.087   0.729   4.275 -1.0913 -0.5211 -0.4277
17795TIP3    H274801   2.073   0.746   4.425  0.1474 -0.3388 -0.3218
17796TIP3   OH274802   2.621   0.619   4.369  0.2334  0.1252  0.1842
17796TIP3    H174803   2.529   0.635   4.389  0.8281  0.6621  2.8544
17796TIP3    H274804   2.663   0.611   4.454  2.9642  1.5488 -0.9071
17797TIP3   OH274805   4.556   3.076   2.876 -0.0996  0.2052 -0.7617
17797TIP3    H174806   4.611   2.999   2.889 -1.1196 -0.4686 -0.2398
17797TIP3    H274807   4.589   3.140   2.940 -1.0261 -0.8359  0.8313
17798TIP3   OH274808   2.168   4.944   2.783 -0.2474  0.4727 -0.5686
17798TIP3    H174809   2.259   4.956   2.755 -0.4198  1.7414 -0.6066
17798TIP3    H274810   2.154   5.012   2.849 -0.7934 -0.5301  0.3765
17799TIP3   OH274811   1.301   6.543   1.103 -0.6743 -0.6544  0.3924
17799TIP3    H174812   1.328   6.582   1.020  0.3017 -0.3111  0.8594
17799TIP3    H274813   1.266   6.617   1.154 -1.4252 -0.8926  0.2380
17800TIP3   OH274814   5.984   4.464   0.201  0.3756 -0.2998  0.3545
17800TIP3    H174815   6.078   4.480   0.210  0.7605 -1.8192 -0.5438
17800TIP3    H274816   5.978   4.393   0.137 -1.4943  1.2624 -1.3329
17801TIP3   OH274817   5.483   0.894   4.360  0.0153  0.3783  0.6385
17801TIP3    H174818   5.449   0.805   4.370 -0.9513  0.8612  2.1494
17801TIP3    H274819   5.578   0.885   4.370 -0.0836 -0.4833  0.8731
17802TIP3   OH274820   2.056   3.072  11.796 -0.0978 -0.0717 -0.6561
17802TIP3    H174821   1.994   3.142  11.818  1.2237  0.5188  1.5579
17802TIP3    H274822   2.006   2.991  11.807 -0.6084  0.4022  0.7128
17803TIP3   OH274823   5.776   0.517  11.259 -0.0170 -0.5503 -0.7260
17803TIP3    H174824   5.844   0.501  11.194 -0.3657 -0.6840 -1.0642
17803TIP3    H274825   5.744   0.605  11.239 -1.4637 -1.3217 -1.9970
17804TIP3   OH274826   4.927   4.172   5.365 -0.1057 -0.0608  0.3792
17804TIP3    H174827   4.984   4.105   5.403 -2.0420 -1.0383  1.7858
17804TIP3    H274828   4.850   4.123   5.336 -1.6953  1.5231  1.6702
17805TIP3   OH274829   5.580   1.393   3.076 -0.1811 -0.0112 -0.0997
17805TIP3    H174830   5.487   1.411   3.085  0.1082  1.5776 -0.0407
17805TIP3    H274831   5.590   1.362   2.986 -0.7206  0.1167 -0.2046
17806TIP3   OH274832   1.054   0.473  12.935 -0.4521 -0.7240  0.2205
17806TIP3    H174833   1.126   0.535  12.947  0.7479 -2.1621  0.7660
17806TIP3    H274834   0.984   0.505  12.993 -0.3340  0.7757 -0.4378
17807TIP3   OH274835   3.765   2.721   5.815 -0.4244 -0.8217 -0.2495
17807TIP3    H174836   3.783   2.762   5.731  2.2996  0.1206  0.6986
17807TIP3    H274837   3.811   2.637   5.811 -1.8988 -1.6574 -0.3631
17808TIP3   OH274838   2.518   0.466  10.776 -0.0227  0.1212 -0.3785
17808TIP3    H174839   2.522   0.397  10.709 -1.7072  0.5603 -0.9802
17808TIP3    H274840   2.527   0.548  10.728 -1.7967  0.4691 -0.1939
17809TIP3   OH274841   3.727   1.193  11.389  0.2248 -0.5091 -0.7055
17809TIP3    H174842   3.671   1.207  11.465 -0.8420 -2.0700 -1.1595
17809TIP3    H274843   3.805   1.151  11.424  2.1741  3.4713  0.2353
17810TIP3   OH274844   2.854   2.133   2.311  0.2688 -0.1551 -0.0836
17810TIP3    H174845   2.846   2.042   2.283 -0.6411 -0.1999  0.3035
17810TIP3    H274846   2.887   2.179   2.234  2.1497 -1.0297  0.1252
17811TIP3   OH274847   1.682   3.255   2.435  0.2297 -0.2734 -0.6045
17811TIP3    H174848   1.612   3.283   2.493  1.1109  0.3467  0.1981
17811TIP3    H274849   1.763   3.276   2.483  0.9974  0.7397 -2.2466
17812TIP3   OH274850   3.918   1.106   2.052 -0.1450 -0.0729 -0.2644
17812TIP3    H174851   3.908   1.171   2.122 -0.6729 -0.0098 -0.3910
17812TIP3    H274852   3.995   1.056   2.076 -0.8795 -0.6987  0.9012
17813TIP3   OH274853   4.216   2.537   2.647 -0.4657  0.7411 -0.2025
17813TIP3    H174854   4.124   2.555   2.668 -0.5503  0.3490 -0.2255
17813TIP3    H274855   4.233   2.452   2.687  0.6197  1.8931  1.9666
17814TIP3   OH274856   6.101   4.953  14.121  0.4029  0.1908 -0.1003
17814TIP3    H174857   6.155   4.896  14.175  1.9557  0.2672 -1.4836
17814TIP3    H274858   6.013   4.917  14.129  0.4860  0.3942  2.6696
17815TIP3   OH274859   5.599   1.454  12.909 -0.2612  0.1084 -0.3096
17815TIP3    H174860   5.611   1.363  12.936  0.4856  0.2361 -0.1740
17815TIP3    H274861   5.686   1.481  12.877  0.1716  1.4694  1.8051
17816TIP3   OH274862   6.619   6.640   1.932  0.1525 -0.0269  0.5531
17816TIP3    H174863   6.603   6.611   2.022 -2.0008 -0.1915  0.1839
17816TIP3    H274864   6.631   6.558   1.883 -1.2815 -0.1204  0.2980
17817TIP3   OH274865   4.970   6.232  13.403 -0.0221 -0.2663 -0.4410
17817TIP3    H174866   5.022   6.186  13.469  0.5141  0.2647 -0.4849
17817TIP3    H274867   5.008   6.320  13.400  0.9694 -0.7203 -2.5847
17818TIP3   OH274868   1.050   3.904  14.068  0.4591  0.1956 -0.0564
17818TIP3    H174869   1.145   3.900  14.078  0.3501 -0.9877  0.6368
17818TIP3    H274870   1.017   3.836  14.127 -0.7584 -0.0916 -1.0354
17819TIP3   OH274871   3.247   4.226  10.665 -0.0547  0.1299  0.1792
17819TIP3    H174872   3.186   4.289  10.703  3.0902  1.4887  3.5292
17819TIP3    H274873   3.213   4.141  10.691 -0.5733  0.8484  1.9716
17820TIP3   OH274874   2.336   0.012  14.084  0.0574 -0.3602 -0.1753
17820TIP3    H174875   2.369  -0.071  14.050 -1.9494 -1.7005  0.9569
17820TIP3    H274876   2.299   0.056  14.008 -0.6407 -1.4279 -0.4734
17821TIP3   OH274877   2.717   2.193   5.823  0.0594 -0.1275  0.0278
17821TIP3    H174878   2.769   2.166   5.898  1.3369 -0.3801 -0.9171
17821TIP3    H274879   2.695   2.285   5.840 -2.1487 -0.9009  2.0470
17822TIP3   OH274880   4.741   0.340   3.775 -0.1257  0.3171 -0.0295
17822TIP3    H174881   4.715   0.428   3.801  0.7575  0.5003  0.2962
17822TIP3    H274882   4.837   0.343   3.777 -0.0528 -1.3861  2.5501
17823TIP3   OH274883   5.375   3.189  16.955 -0.5600  0.3233 -0.4856
17823TIP3    H174884   5.290   3.232  16.967 -0.6291 -0.0517  0.4312
17823TIP3    H274885   5.364   3.102  16.992  0.6128  0.7293  0.8947
17824TIP3   OH274886   4.192   4.745  14.576  0.3022 -0.5118  0.1832
17824TIP3    H174887   4.216   4.652  14.577  3.0610  0.1121 -0.3084
17824TIP3    H274888   4.181   4.767  14.484  0.8408 -0.1141  0.2042
17825TIP3   OH274889   0.709   3.557   1.310  0.5563 -0.9200 -0.2844
17825TIP3    H174890   0.626   3.604   1.307  0.8634 -0.3161  0.2768
17825TIP3    H274891   0.686   3.468   1.335  0.2663 -0.1784  2.4230
17826TIP3   OH274892   4.316   4.025   3.812 -0.1783  0.4419  0.4501
17826TIP3    H174893   4.229   3.983   3.812  0.1421 -0.2442 -0.5280
17826TIP3    H274894   4.312   4.087   3.739  0.6578 -0.7079 -0.6115
17827TIP3   OH274895   2.622   2.118   4.130  0.1718  0.1805  0.3820
17827TIP3    H174896   2.564   2.077   4.065  1.2115 -0.9201  0.1274
17827TIP3    H274897   2.602   2.072   4.212 -0.1555  0.6212  0.5518
17828TIP3   OH274898   6.228   0.226  14.327  0.0555 -0.8522  0.1134
17828TIP3    H174899   6.253   0.231  14.235 -1.0640 -0.3739 -0.1740
17828TIP3    H274900   6.179   0.145  14.334 -0.6302 -0.4406  0.0967
17829TIP3   OH274901   5.510   2.706  11.630  0.4572  0.1269 -0.4084
17829TIP3    H174902   5.533   2.616  11.608  0.7179 -0.0772  0.6581
17829TIP3    H274903   5.417   2.701  11.655  0.0671  0.4162 -1.7362
17830TIP3   OH274904   4.686   1.799  16.023  0.1891  0.0711  0.1482
17830TIP3    H174905   4.645   1.756  15.948 -0.8033  2.5325 -0.8545
17830TIP3    H274906   4.637   1.767  16.099 -3.0964  2.0148 -0.8931
17831TIP3   OH274907   4.699   2.671   5.186  0.7618 -0.0132  0.9325
17831TIP3    H174908   4.776   2.728   5.191  1.4576 -0.9521  1.1244
17831TIP3    H274909   4.625   2.732   5.187  1.4787  1.2254 -2.9149
17832TIP3   OH274910   3.051   2.300   1.618 -0.8881  0.0527 -0.5399
17832TIP3    H174911   3.032   2.334   1.531 -1.1535 -0.0931 -0.5397
17832TIP3    H274912   3.039   2.374   1.676  0.9622  0.6186 -0.7980
17833TIP3   OH274913   4.088   0.905  15.631 -1.1735 -0.0287 -0.2485
17833TIP3    H174914   4.109   0.811  15.627 -0.6954  0.1217 -3.2715
17833TIP3    H274915   4.133   0.936  15.709  2.5218 -1.4967 -1.5800
17834TIP3   OH274916   0.041   5.437  11.753  0.1300  0.4485 -0.2172
17834TIP3    H174917  -0.043   5.475  11.725 -0.1751 -0.2850 -0.3130
17834TIP3    H274918   0.100   5.512  11.760 -1.3587  1.5150  3.1434
17835TIP3   OH274919   0.124   5.451   5.670 -0.1863  0.3809 -0.5624
17835TIP3    H174920   0.179   5.527   5.651 -0.1223  0.1841 -1.1957
17835TIP3    H274921   0.048   5.462   5.614  0.1814 -0.4129 -1.2451
17836TIP3   OH274922   0.151   0.877  12.639  0.0719  0.1702 -0.7198
17836TIP3    H174923   0.077   0.924  12.678  0.1932 -0.3429  0.1527
17836TIP3    H274924   0.157   0.796  12.689  1.6760  0.5249 -0.2740
17837TIP3   OH274925   0.049   6.308   3.119 -0.3097 -0.0184 -0.1529
17837TIP3    H174926   0.079   6.391   3.082 -0.1238 -0.4143 -0.9259
17837TIP3    H274927  -0.030   6.287   3.070  1.3781 -1.8813 -2.3056
17838TIP3   OH274928   1.643   0.731   3.295  0.2293 -0.2776  0.1855
17838TIP3    H174929   1.620   0.684   3.215  1.4685  0.7261 -0.7938
17838TIP3    H274930   1.558   0.756   3.332 -0.4005 -1.7671 -0.1543
17839TIP3   OH274931   6.551   0.618   3.184  0.5486  0.2870  0.0945
17839TIP3    H174932   6.489   0.667   3.129  1.1247  0.4360 -0.4337
17839TIP3    H274933   6.574   0.679   3.254  0.1750  0.2691  0.2327
17840TIP3   OH274934   2.555   5.926   0.648 -0.2043  0.0335 -0.0444
17840TIP3    H174935   2.479   5.884   0.610  0.4997 -0.8690 -0.4712
17840TIP3    H274936   2.558   5.894   0.738  0.4596 -1.0356 -0.4330
17841TIP3   OH274937   6.461   4.313  11.432  0.3911  0.6605 -0.1462
17841TIP3    H174938   6.431   4.366  11.507  0.5154  1.9734 -0.9899
17841TIP3    H274939   6.472   4.225  11.468  0.9352  1.3664  1.5066
17842TIP3   OH274940   5.161   1.086  16.557  0.0526 -0.2776 -0.2873
17842TIP3    H174941   5.217   1.159  16.531  1.0551 -0.8570  0.1701
17842TIP3    H274942   5.074   1.124  16.566  0.4199  0.7069 -0.7433
17843TIP3   OH274943   4.540   3.260  10.346 -0.1631 -0.1949 -0.2287
17843TIP3    H174944   4.610   3.230  10.404  0.0361  0.9166  0.1205
17843TIP3    H274945   4.570   3.237  10.258  0.7895  0.5220 -0.1084
17844TIP3   OH274946   0.160   2.944   4.040 -0.0751  0.2072  0.3025
17844TIP3    H174947   0.187   2.852   4.046 -1.8271 -0.2822  4.5217
17844TIP3    H274948   0.073   2.940   3.999  1.4438  0.5858 -3.2514
17845TIP3   OH274949   4.965   4.606   5.799 -0.2737 -0.2667  0.4110
17845TIP3    H174950   5.025   4.545   5.842  2.0951  0.9603 -0.9772
17845TIP3    H274951   5.015   4.644   5.727 -3.3757 -0.6608 -2.2120
17846TIP3   OH274952   5.391   2.508   6.420  0.0166 -0.1457 -0.3872
17846TIP3    H174953   5.402   2.603   6.426  0.7832 -0.0664 -2.4317
17846TIP3    H274954   5.455   2.473   6.482  1.4688  0.6599 -1.3667
17847TIP3   OH274955   0.090   2.122   4.810  0.6032  0.4537 -0.4359
17847TIP3    H174956   0.108   2.113   4.903 -1.1274  0.5554 -0.0611
17847TIP3    H274957   0.056   2.211   4.800  1.0476  0.5515 -1.2233
17848TIP3   OH274958   4.760   0.306   1.785  0.1870 -0.4651  0.2880
17848TIP3    H174959   4.848   0.269   1.777 -0.0022 -0.7871 -0.4268
17848TIP3    H274960   4.761   0.384   1.729 -0.4294 -1.3482 -1.0104
17849TIP3   OH274961   5.551   5.979   2.077 -0.1929  0.2292  0.3060
17849TIP3    H174962   5.560   5.894   2.035  4.1102  0.0871  0.9955
17849TIP3    H274963   5.542   6.041   2.005  1.3654 -0.5055 -0.5806
17850TIP3   OH274964   0.347   0.410  12.128 -0.0191  0.3555  0.1261
17850TIP3    H174965   0.408   0.364  12.185  1.2877  0.3964 -1.1702
17850TIP3    H274966   0.375   0.502  12.133 -1.3356  0.7298  1.1423
17851TIP3   OH274967   3.713   5.976  16.620 -0.7063  0.4189 -0.4080
17851TIP3    H174968   3.673   5.893  16.644 -1.8544  0.3644 -2.3132
17851TIP3    H274969   3.805   5.956  16.606 -0.6065 -0.1299  0.9328
17852TIP3   OH274970   5.061   6.602   4.554 -0.0311 -0.2968  0.1536
17852TIP3    H174971   5.111   6.682   4.564 -0.1314 -0.4740  2.9252
17852TIP3    H274972   5.124   6.532   4.568 -0.9097 -0.5167  4.2989
17853TIP3   OH274973   2.162   4.474  11.942  0.3704  0.6711 -0.1396
17853TIP3    H174974   2.239   4.471  11.885  0.3516  0.5124 -0.1591
17853TIP3    H274975   2.177   4.404  12.005 -0.1337  0.1006 -0.6350
17854TIP3   OH274976   0.399   2.355  14.819 -0.0635 -0.0458  0.1050
17854TIP3    H174977   0.429   2.266  14.835  1.0183  0.4119  0.7437
17854TIP3    H274978   0.404   2.366  14.724 -0.1984 -0.6550  0.0218
17855TIP3   OH274979   5.782   2.124   1.289 -0.0656  0.3238  0.3124
17855TIP3    H174980   5.720   2.197   1.293  0.2717  0.7918 -1.8451
17855TIP3    H274981   5.852   2.149   1.349 -0.6442  1.1103  0.6808
17856TIP3   OH274982   2.276   0.675   0.425 -0.4969 -0.4810 -0.5203
17856TIP3    H174983   2.272   0.582   0.404 -0.1315 -0.5351 -0.3683
17856TIP3    H274984   2.303   0.678   0.517 -0.5090 -0.2255 -0.5221
17857TIP3   OH274985   3.649   6.216  12.074  0.2167 -0.2352  0.4591
17857TIP3    H174986   3.569   6.169  12.098  0.3236 -1.1174 -0.8200
17857TIP3    H274987   3.701   6.217  12.155 -0.6433 -0.5579  1.0315
17858TIP3   OH274988   4.931   4.920   3.160 -0.4554 -0.0867  0.1007
17858TIP3    H174989   4.863   4.986   3.174 -1.0487 -0.7493  0.4068
17858TIP3    H274990   4.887   4.848   3.114  1.0544  1.3172 -3.9587
17859TIP3   OH274991   0.240   3.357  13.977  0.0634 -0.7311  0.5147
17859TIP3    H174992   0.323   3.310  13.975  0.6175  0.1732  1.5128
17859TIP3    H274993   0.181   3.300  14.026  0.3357 -0.9880  0.5442
17860TIP3   OH274994   5.979   5.470  14.040  0.0261 -0.5056 -0.0633
17860TIP3    H174995   5.894   5.458  14.082 -0.0763  2.3553  0.7654
17860TIP3    H274996   6.042   5.429  14.100 -0.7202 -3.2380 -1.0068
17861TIP3   OH274997   6.373   0.499  13.284 -0.9732 -0.7806  0.2789
17861TIP3    H174998   6.326   0.578  13.312 -0.2141 -0.9168  2.0747
17861TIP3    H274999   6.326   0.428  13.327 -1.2988 -1.2694 -0.8645
17862TIP3   OH275000   3.191   6.732  11.273  0.3694  0.5234  0.0701
17862TIP3    H175001   3.241   6.650  11.280 -1.1328 -0.5167 -0.8284
17862TIP3    H275002   3.100   6.705  11.280 -0.2920  1.8320 -2.5211
17863TIP3   OH275003   1.324   6.075  13.012  0.4780 -0.0606 -0.3664
17863TIP3    H175004   1.379   6.139  12.967 -0.4684  1.0601  0.0268
17863TIP3    H275005   1.255   6.055  12.949 -0.1002  0.5016  0.0778
17864TIP3   OH275006   0.311   5.045  16.036  0.6281 -0.1310 -0.4186
17864TIP3    H175007   0.292   5.139  16.039 -0.7100 -0.3535 -1.0423
17864TIP3    H275008   0.232   5.006  15.999  0.1617 -1.7710  2.0423
17865TIP3   OH275009   4.223   4.565  12.020 -0.2985 -0.0901 -0.2749
17865TIP3    H175010   4.287   4.526  11.961  0.6395  0.9764  0.0040
17865TIP3    H275011   4.275   4.607  12.088 -1.3388 -0.6322  0.8939
17866TIP3   OH275012   2.560   6.163   3.589  0.1858  0.1543 -0.3198
17866TIP3    H175013   2.521   6.234   3.539  1.8564  1.2979 -0.0860
17866TIP3    H275014   2.646   6.150   3.549  0.8167 -0.1571  1.0691
17867TIP3   OH275015   6.364   0.801   5.320 -0.2195 -0.1143 -0.6655
17867TIP3    H175016   6.406   0.830   5.238 -0.6396  0.2086 -0.7714
17867TIP3    H275017   6.391   0.866   5.385  0.1779 -0.4141 -0.5229
17868TIP3   OH275018   0.948   4.294   5.362  0.0691  0.1840  0.4009
17868TIP3    H175019   0.947   4.337   5.448 -0.3215 -2.7815  2.0277
17868TIP3    H275020   0.873   4.233   5.365  0.4280 -0.4603 -1.8056
17869TIP3   OH275021   2.462   3.564   2.484 -0.8668 -0.0815  0.6434
17869TIP3    H175022   2.394   3.586   2.547 -2.8795 -0.0353 -1.4121
17869TIP3    H275023   2.415   3.552   2.401  1.6341 -0.1179 -0.8700
17870TIP3   OH275024   6.538   1.022  14.903 -0.2023  0.4472  0.0392
17870TIP3    H175025   6.613   0.965  14.887  0.9295  1.9709 -0.3922
17870TIP3    H275026   6.542   1.040  14.997  1.5925  2.5368 -0.3454
17871TIP3   OH275027   2.812   6.118   1.970  0.4392  0.1789  0.0958
17871TIP3    H175028   2.790   6.208   1.945 -0.9214 -0.1570 -0.0267
17871TIP3    H275029   2.813   6.119   2.066 -0.5371  0.1380  0.1202
17872TIP3   OH275030   6.167   5.470  16.351 -0.4443  0.0124 -0.0051
17872TIP3    H175031   6.148   5.562  16.333 -0.6133  0.2442  1.2846
17872TIP3    H275032   6.087   5.437  16.393 -0.2813 -0.6484 -0.2066
17873TIP3   OH275033   1.839   2.644   1.052  0.6854  0.1030 -0.4521
17873TIP3    H175034   1.920   2.692   1.071 -0.2026  0.7503  2.1298
17873TIP3    H275035   1.844   2.566   1.107  0.6707 -1.2260 -2.2426
17874TIP3   OH275036   4.158   2.628  14.351 -0.3808  0.1022  0.5313
17874TIP3    H175037   4.249   2.621  14.379  0.1442  1.7773 -0.6232
17874TIP3    H275038   4.149   2.561  14.283 -0.0888 -0.2402  0.8238
17875TIP3   OH275039   1.534   0.535   2.623  0.5138 -0.1423 -0.2477
17875TIP3    H175040   1.585   0.482   2.562 -0.1900 -1.8667  0.6151
17875TIP3    H275041   1.598   0.597   2.660  1.9647 -1.9868  0.5212
17876TIP3   OH275042   0.714   5.117   3.267 -0.6131 -0.1507 -0.4988
17876TIP3    H175043   0.710   5.039   3.212  0.2132 -1.2996  0.9945
17876TIP3    H275044   0.788   5.101   3.326 -1.3256  1.1286  0.7970
17877TIP3   OH275045   6.254   1.331  11.062  0.7457 -0.3615  0.5059
17877TIP3    H175046   6.316   1.273  11.018 -2.0700 -3.2215 -0.0329
17877TIP3    H275047   6.182   1.342  10.999  0.1806  2.0487  1.4476
17878TIP3   OH275048   2.735   1.951   0.361  0.6366 -0.0116  0.2039
17878TIP3    H175049   2.641   1.936   0.366  0.5279  0.9428  1.2064
17878TIP3    H275050   2.746   2.010   0.286  0.3520  0.5453  0.6011
17879TIP3   OH275051   2.489   4.561  12.833  0.1430 -0.2598  0.1352
17879TIP3    H175052   2.424   4.513  12.884 -2.1577  1.4817 -0.9740
17879TIP3    H275053   2.446   4.644  12.812  3.2387  1.5346  0.3918
17880TIP3   OH275054   2.963   6.365  14.502 -0.3302 -0.3319 -0.4020
17880TIP3    H175055   2.987   6.442  14.451 -1.1345 -1.0543 -1.9583
17880TIP3    H275056   3.042   6.312  14.506  0.0166  0.2129  0.0097
17881TIP3   OH275057   3.279   2.686   1.997  0.4608  0.3777  0.2465
17881TIP3    H175058   3.189   2.659   1.976  0.5937  0.3575 -0.3233
17881TIP3    H275059   3.272   2.780   2.015  0.5107  0.6584 -1.0668
17882TIP3   OH275060   1.613   5.708   1.233 -0.6798 -0.4557  0.2289
17882TIP3    H175061   1.686   5.696   1.294  1.1706 -1.2427 -1.9670
17882TIP3    H275062   1.595   5.802   1.234  0.9745 -0.1150  0.2263
17883TIP3   OH275063   2.749   6.078   1.019  0.5187  0.1698  0.5930
17883TIP3    H175064   2.691   6.014   0.978  0.2673  2.4177 -3.0226
17883TIP3    H275065   2.832   6.068   0.972  0.3500  2.6354 -0.3888
17884TIP3   OH275066   2.985   3.049  11.641  0.1011  0.3440 -0.1339
17884TIP3    H175067   3.027   3.050  11.727 -1.0244 -1.0236  0.4749
17884TIP3    H275068   2.892   3.062  11.660 -0.0547  1.0125 -1.2484
17885TIP3   OH275069   0.595   3.941  15.860  0.6632  0.7062  0.4496
17885TIP3    H175070   0.649   3.926  15.938  2.3294 -0.8204 -0.8834
17885TIP3    H275071   0.506   3.925  15.888  1.4783 -3.1323  1.4148
17886TIP3   OH275072   6.688   5.355   0.314 -0.2275  0.0168  0.4556
17886TIP3    H175073   6.654   5.307   0.389 -0.6885 -1.1689 -0.4819
17886TIP3    H275074   6.614   5.363   0.255  1.2787 -4.2367 -2.4634
17887TIP3   OH275075   1.854   3.995  15.563  0.2434 -0.1294  0.3010
17887TIP3    H175076   1.945   4.022  15.553  1.1198 -2.3332  1.4870
17887TIP3    H275077   1.838   4.001  15.658 -1.3900  1.7027 -0.0362
17888TIP3   OH275078   4.016   6.010   5.361  0.5875 -0.3545  0.2590
17888TIP3    H175079   3.948   5.960   5.316  1.7601 -1.4467 -0.3671
17888TIP3    H275080   3.990   6.007   5.453 -0.8814  0.3742 -0.1012
17889TIP3   OH275081   0.652   6.060   5.766  0.1432 -0.4616 -0.3804
17889TIP3    H175082   0.590   5.998   5.802 -1.4911  1.0695 -0.4390
17889TIP3    H275083   0.736   6.015   5.769 -0.8067 -2.2425  0.5618
17890TIP3   OH275084   4.515   2.751   4.372  0.4244  0.2827  0.1658
17890TIP3    H175085   4.500   2.809   4.447  0.5527  1.7516 -0.8990
17890TIP3    H275086   4.454   2.782   4.305  1.2879 -0.0589 -0.8124
17891TIP3   OH275087   2.404   0.291  16.578 -0.6664 -0.0240 -0.2888
17891TIP3    H175088   2.438   0.265  16.663 -1.8714  0.4404  0.3608
17891TIP3    H275089   2.354   0.215  16.548 -1.2121  0.2232 -0.0290
17892TIP3   OH275090   1.359   3.022   2.255 -0.2062  0.2481  0.3837
17892TIP3    H175091   1.385   2.936   2.287 -0.1539  0.4603  0.9203
17892TIP3    H275092   1.326   3.068   2.332 -1.7147  0.1769 -0.1773
17893TIP3   OH275093   3.886   3.135  13.175  0.3143  0.0314 -0.2216
17893TIP3    H175094   3.809   3.095  13.214  1.1801  0.4050  2.0364
17893TIP3    H275095   3.855   3.174  13.094 -1.4367 -1.4553 -0.3281
17894TIP3   OH275096   4.602   4.149   0.524  0.2617  0.3747  0.3959
17894TIP3    H175097   4.513   4.118   0.542  0.4066 -0.1109  0.2751
17894TIP3    H275098   4.589   4.230   0.474 -0.1139  0.5036  0.6943
17895TIP3   OH275099   4.619   4.864   0.898  0.4156  0.2203 -0.2459
17895TIP3    H175100   4.587   4.799   0.961 -0.8139 -0.9183 -1.9431
17895TIP3    H275101   4.567   4.847   0.819  0.1626  3.1945 -0.8022
17896TIP3   OH275102   2.885   6.593  13.016 -0.5064 -0.6276  0.6794
17896TIP3    H175103   2.837   6.521  13.056 -0.6092 -1.3466 -0.6943
17896TIP3    H275104   2.977   6.573  13.033 -0.3556 -2.5221 -1.9113
17897TIP3   OH275105   1.598   1.345   3.404  0.4878 -0.1152 -0.1773
17897TIP3    H175106   1.608   1.252   3.383 -0.7071 -0.1232 -0.8159
17897TIP3    H275107   1.599   1.349   3.499 -0.4654 -0.9143 -0.1272
17898TIP3   OH275108   2.084   6.643  13.736 -0.1616  0.0002 -0.1478
17898TIP3    H175109   2.122   6.555  13.727 -1.5899 -0.7721  0.9645
17898TIP3    H275110   2.159   6.702  13.730  1.1276 -1.4161  1.0835
17899TIP3   OH275111   6.739   2.470  12.437 -0.0978  0.4095 -0.1460
17899TIP3    H175112   6.679   2.412  12.483 -0.0533 -0.3761 -1.0514
17899TIP3    H275113   6.691   2.553  12.428 -0.8058 -0.0174 -0.3211
17900TIP3   OH275114   5.201   1.162   5.012  0.7224  0.3535  0.3516
17900TIP3    H175115   5.174   1.244   4.970  1.0760  0.9600  1.2835
17900TIP3    H275116   5.277   1.134   4.962  1.2001  1.1203  0.6364
17901TIP3   OH275117   0.924   4.596  12.211  0.2547 -0.1700  0.1393
17901TIP3    H175118   0.950   4.685  12.234  0.9303 -0.1760 -0.5768
17901TIP3    H275119   0.903   4.555  12.295  1.3780  0.2061  0.6284
17902TIP3   OH275120   4.958   5.848   0.181  0.8274  0.3311 -0.3418
17902TIP3    H175121   4.997   5.769   0.219 -1.3319 -0.3215  0.6923
17902TIP3    H275122   5.026   5.914   0.187  2.1807 -1.0598  0.2012
17903TIP3   OH275123   1.624   5.063   5.344  0.3607  0.2072 -0.4032
17903TIP3    H175124   1.578   5.129   5.293  0.4486 -1.8332 -3.4100
17903TIP3    H275125   1.715   5.069   5.315  0.1191 -2.0805 -1.9514
17904TIP3   OH275126   2.992   2.627   2.002 -0.3060 -0.5441  0.6401
17904TIP3    H175127   2.989   2.673   2.086 -1.6891  0.5100  0.0600
17904TIP3    H275128   2.905   2.642   1.964  0.1150 -1.4547 -0.7355
17905TIP3   OH275129   1.816   3.801  10.536  0.5161  0.1139  0.0272
17905TIP3    H175130   1.836   3.709  10.517  1.1728  0.2475  0.0309
17905TIP3    H275131   1.721   3.803  10.546  0.5967 -0.8172  1.3132
17906TIP3   OH275132   3.867   1.707   0.893  0.0138 -0.5550  0.1106
17906TIP3    H175133   3.862   1.611   0.896  2.6575 -0.7310  1.5293
17906TIP3    H275134   3.891   1.726   0.802 -0.8286 -1.1951 -0.2607
17907TIP3   OH275135   0.808   5.363  11.766 -0.1426  0.2116 -0.4448
17907TIP3    H175136   0.759   5.362  11.848 -0.1000 -1.0064 -0.4131
17907TIP3    H275137   0.767   5.433  11.715 -2.2089 -1.0018 -0.5698
17908TIP3   OH275138   3.527   5.742   5.901 -0.0857  0.4299 -0.0376
17908TIP3    H175139   3.582   5.799   5.848 -0.6559  0.4980 -0.5663
17908TIP3    H275140   3.523   5.786   5.987  0.1595  0.7451 -0.1828
17909TIP3   OH275141   1.830   1.988   0.631 -0.1730 -0.1104  0.2559
17909TIP3    H175142   1.872   2.055   0.685  1.1178 -1.0400  0.4656
17909TIP3    H275143   1.740   2.018   0.620 -0.0706  0.8091  1.7195
17910TIP3   OH275144   0.557   3.012  16.627 -0.1283 -0.0443  0.0951
17910TIP3    H175145   0.593   3.095  16.594 -0.5203  0.7096  1.4865
17910TIP3    H275146   0.616   2.987  16.698 -1.0598  0.0364  0.9194
17911TIP3   OH275147   1.583   4.551   4.874  0.3155  0.3555 -0.1637
17911TIP3    H175148   1.616   4.634   4.840  3.6018 -0.1757  1.3358
17911TIP3    H275149   1.489   4.564   4.884  0.7492  3.9760  0.2395
17912TIP3   OH275150   4.625   2.249   1.036 -0.1623  0.3723  0.5481
17912TIP3    H175151   4.669   2.273   0.954 -0.7928 -1.1004 -0.2587
17912TIP3    H275152   4.534   2.235   1.011  0.1060 -2.7795  0.8540
17913TIP3   OH275153   0.366   2.876  11.870  0.3603 -0.4593  0.3571
17913TIP3    H175154   0.452   2.891  11.831  0.1723  0.9813  0.4091
17913TIP3    H275155   0.371   2.920  11.955 -0.7853  0.7274 -0.1427
17914TIP3   OH275156   5.018   2.665  13.510  0.0852  0.2784  0.9578
17914TIP3    H175157   5.049   2.685  13.598  1.3526  1.6173  0.2468
17914TIP3    H275158   5.080   2.709  13.451  1.1725 -3.1236 -0.7238
17915TIP3   OH275159   6.223   5.616   2.384 -0.3961  0.7449 -0.8908
17915TIP3    H175160   6.288   5.647   2.446 -0.0011 -0.0011 -0.9165
17915TIP3    H275161   6.139   5.622   2.431 -0.3721  2.0580 -0.9890
17916TIP3   OH275162   5.383   0.260  10.719 -0.1319 -0.3533 -0.5032
17916TIP3    H175163   5.424   0.299  10.797 -3.7071  0.7175  1.0132
17916TIP3    H275164   5.360   0.335  10.664 -3.8274 -0.4086  0.7564
17917TIP3   OH275165   0.411   3.545  11.510  0.0891 -0.6521 -0.5475
17917TIP3    H175166   0.344   3.481  11.486  0.7424 -1.1833 -1.0014
17917TIP3    H275167   0.366   3.629  11.510 -0.3167 -0.8450 -2.0308
17918TIP3   OH275168   6.461   2.875  16.223  0.4541 -0.2295 -0.0632
17918TIP3    H175169   6.498   2.896  16.308 -0.5634 -0.5522  0.4799
17918TIP3    H275170   6.393   2.810  16.242 -0.0008 -0.0726 -1.0846
17919TIP3   OH275171   5.381   1.643   0.633  0.5276  0.2550 -0.3075
17919TIP3    H175172   5.332   1.565   0.607 -0.1505  1.3705 -2.6425
17919TIP3    H275173   5.408   1.625   0.723 -0.3499 -2.2796 -0.4656
17920TIP3   OH275174   0.408   5.442   5.778  0.4402 -0.0523 -0.0255
17920TIP3    H175175   0.429   5.372   5.716 -0.0575 -0.4116  0.2011
17920TIP3    H275176   0.344   5.403   5.837  1.4372  0.0608  1.1560
17921TIP3   OH275177   4.671   2.901   4.886 -0.1544  0.3069 -0.3065
17921TIP3    H175178   4.631   2.881   4.971  0.4299  0.0635 -0.0804
17921TIP3    H275179   4.758   2.936   4.909 -0.6329  1.8262 -0.7488
17922TIP3   OH275180   2.082   2.862  13.172  0.1353 -0.3522 -0.0926
17922TIP3    H175181   2.138   2.827  13.103  1.8381  1.2075  0.4061
17922TIP3    H275182   2.143   2.883  13.243 -1.5249 -1.6371  1.8061
17923TIP3   OH275183   3.334   2.031  16.441  0.7409 -0.9138 -0.2579
17923TIP3    H175184   3.383   2.071  16.513 -0.3625  0.5657 -0.2703
17923TIP3    H275185   3.385   2.053  16.362 -0.3640  1.5086 -0.3866
17924TIP3   OH275186   2.885   5.342   3.501  0.3155  0.0570  0.5699
17924TIP3    H175187   2.912   5.401   3.572 -0.2996  0.3242  0.5883
17924TIP3    H275188   2.893   5.255   3.540  1.4751  0.0969  0.4597
17925TIP3   OH275189   5.716   2.480  11.899 -0.4951 -0.2320 -0.2164
17925TIP3    H175190   5.734   2.395  11.859 -0.1514 -0.1688 -0.2003
17925TIP3    H275191   5.787   2.536  11.869  0.9812 -0.7029  2.1388
17926TIP3   OH275192   5.237   2.595  11.694 -0.3675  0.4375 -0.4573
17926TIP3    H175193   5.241   2.564  11.784  0.3783  0.7289 -0.3801
17926TIP3    H275194   5.143   2.601  11.675 -0.5897 -2.4739 -0.7200
17927TIP3   OH275195   3.717   5.174  12.682  0.5065  0.4572 -0.5028
17927TIP3    H175196   3.633   5.175  12.636 -0.4874  0.7478  1.2169
17927TIP3    H275197   3.779   5.141  12.618 -1.1152 -0.8030 -1.5018
17928TIP3   OH275198   3.601   1.888  13.202 -0.0347  0.0263  0.0218
17928TIP3    H175199   3.628   1.956  13.140  1.5783  0.0935  0.7699
17928TIP3    H275200   3.552   1.825  13.149 -1.7410  1.8214 -0.6702
17929TIP3   OH275201   4.418   0.458  12.250  0.3254  0.0345 -0.3704
17929TIP3    H175202   4.404   0.509  12.331  1.0304 -1.0989  0.5006
17929TIP3    H275203   4.513   0.457  12.240  0.2906 -0.7301 -0.6220
17930TIP3   OH275204   5.180   0.631   1.763  0.1244 -0.4903  0.0984
17930TIP3    H175205   5.198   0.574   1.838  0.7934 -0.9133 -0.3786
17930TIP3    H275206   5.195   0.720   1.797 -2.1610 -0.4478  1.2102
17931TIP3   OH275207   6.325   5.474  14.336  0.2855 -0.8153 -0.2039
17931TIP3    H175208   6.392   5.536  14.307 -0.7055  0.1478 -0.5060
17931TIP3    H275209   6.374   5.406  14.384  1.3699  0.3647  0.4326
17932TIP3   OH275210   1.079   5.841   6.103 -0.5748  0.3818 -0.4840
17932TIP3    H175211   1.151   5.903   6.091 -0.3662  0.3959  0.7287
17932TIP3    H275212   1.072   5.831   6.197  0.1122 -2.2718 -0.6391
17933TIP3   OH275213   2.270   4.958  13.894  0.4010  0.0558 -0.2645
17933TIP3    H175214   2.286   4.872  13.855  2.6412  0.5667 -0.6288
17933TIP3    H275215   2.342   4.969  13.957 -0.5217  1.1890  0.6388
17934TIP3   OH275216   6.576   2.390   2.319 -0.0776  0.5294 -0.0196
17934TIP3    H175217   6.540   2.440   2.392 -1.0794 -0.0433 -0.1013
17934TIP3    H275218   6.618   2.315   2.360  1.0821  1.2022  0.0764
17935TIP3   OH275219   2.830   0.718  12.434 -0.0892  0.4662  0.2361
17935TIP3    H175220   2.816   0.685  12.523  0.7869  1.5313  0.8030
17935TIP3    H275221   2.873   0.803  12.447 -1.8009  1.6168 -1.1687
17936TIP3   OH275222   4.604   3.937   0.787 -0.2185 -0.0001 -0.1205
17936TIP3    H175223   4.547   3.861   0.789  0.4603 -0.5471 -0.8386
17936TIP3    H275224   4.546   4.011   0.806 -1.3436 -0.4447 -1.5841
17937TIP3   OH275225   3.760   0.427  15.774 -0.0640 -0.2737  0.3779
17937TIP3    H175226   3.853   0.403  15.779  0.5554  1.1524 -2.2168
17937TIP3    H275227   3.742   0.470  15.857  1.4476 -0.9945  1.1270
17938TIP3   OH275228   4.909   0.963  12.250 -0.1859 -0.4554 -0.0137
17938TIP3    H175229   4.848   0.890  12.262 -2.6757  1.5094  0.2744
17938TIP3    H275230   4.885   1.026  12.318  1.6445  0.7878 -0.4414
17939TIP3   OH275231   3.655   0.427  13.257  0.3790  0.4200 -0.0973
17939TIP3    H175232   3.587   0.372  13.218 -0.9175  1.8208  0.1061
17939TIP3    H275233   3.685   0.377  13.333  0.4647 -0.7606 -0.8798
17940TIP3   OH275234   6.761   2.089   5.678 -0.1566  0.0642 -0.2442
17940TIP3    H175235   6.819   2.079   5.602 -0.5160 -1.8227 -0.3200
17940TIP3    H275236   6.764   2.004   5.722 -0.0580  1.0729  1.8185
17941TIP3   OH275237   2.493   0.748  14.705 -0.2821 -0.0217 -0.3486
17941TIP3    H175238   2.503   0.773  14.797 -1.3444  0.3095 -0.3046
17941TIP3    H275239   2.567   0.689  14.688  0.2483  0.3606  0.5494
17942TIP3   OH275240   1.156   2.076   4.876 -0.7923  0.0933 -0.1318
17942TIP3    H175241   1.161   1.990   4.919  0.4166  0.5923  0.8123
17942TIP3    H275242   1.076   2.115   4.911  0.0008  0.3591  1.4924
17943TIP3   OH275243   2.289   5.517  12.679  0.0096 -0.2675  0.3172
17943TIP3    H175244   2.236   5.595  12.696 -1.3792 -1.4149  1.5097
17943TIP3    H275245   2.361   5.523  12.742 -1.2392 -0.9398  1.8823
17944TIP3   OH275246   6.581   3.532  16.660 -0.1582  0.6293 -0.2555
17944TIP3    H175247   6.572   3.606  16.599 -0.4449  0.4357 -0.4509
17944TIP3    H275248   6.579   3.455  16.604 -0.2363  0.4574 -0.0165
17945TIP3   OH275249   6.048   4.848   1.713 -0.0966  0.1382 -0.0787
17945TIP3    H175250   5.955   4.822   1.712  0.1404 -0.9663  1.7862
17945TIP3    H275251   6.094   4.770   1.683  0.3319 -0.0178  0.9463
17946TIP3   OH275252   3.591   4.096  15.207  0.1142 -0.2005 -1.1341
17946TIP3    H175253   3.649   4.108  15.282 -1.0613 -1.8666  0.1100
17946TIP3    H275254   3.514   4.150  15.228  0.3198  0.3606 -1.7878
17947TIP3   OH275255   6.185   1.044   3.953 -0.1617 -0.1903 -0.2969
17947TIP3    H175256   6.105   1.029   4.005  0.1960 -1.0125  0.0302
17947TIP3    H275257   6.247   1.081   4.016  0.1120 -0.7192 -0.2544
17948TIP3   OH275258   1.799   4.361  16.270 -0.1576  0.1133 -0.1412
17948TIP3    H175259   1.748   4.330  16.345 -0.2895  0.2567 -0.1702
17948TIP3    H275260   1.889   4.364  16.301 -0.5283  2.8209  0.9094
17949TIP3   OH275261   1.413   3.558  16.923 -0.2764  0.2668 -0.8776
17949TIP3    H175262   1.369   3.499  16.862 -0.3834 -0.0573 -0.4948
17949TIP3    H275263   1.429   3.504  17.001  1.0461  0.3022 -1.1074
17950TIP3   OH275264   1.711   0.770   2.684  0.2190  0.2363 -0.0745
17950TIP3    H175265   1.689   0.817   2.603  1.8882 -0.7171 -1.1185
17950TIP3    H275266   1.657   0.813   2.751 -0.4613  1.7109 -1.4923
17951TIP3   OH275267   5.460   4.574  12.776  0.6524 -0.4316 -0.2560
17951TIP3    H175268   5.493   4.659  12.806  1.3608 -0.5239 -0.7711
17951TIP3    H275269   5.366   4.588  12.764  0.7778  0.3005 -0.4110
17952TIP3   OH275270   3.367   1.653   5.242 -0.3098  0.2518  0.2876
17952TIP3    H175271   3.337   1.562   5.239 -0.9323  0.4444  0.6461
17952TIP3    H275272   3.463   1.646   5.245 -0.3530 -0.3878  0.3232
17953TIP3   OH275273   1.121   1.882   5.045 -0.1928  0.5626  0.8106
17953TIP3    H175274   1.075   1.798   5.049  1.4857 -0.4206  0.2356
17953TIP3    H275275   1.113   1.918   5.134 -0.2868 -0.5533  1.2699
17954TIP3   OH275276   1.752   0.785   1.740  0.3361 -1.1425 -0.1815
17954TIP3    H175277   1.747   0.697   1.780  0.7159 -0.9478  0.3142
17954TIP3    H275278   1.771   0.843   1.814  2.0750 -0.8926 -0.7732
17955TIP3   OH275279   6.329   3.038  11.315 -0.0067 -0.2087 -0.0242
17955TIP3    H175280   6.352   3.052  11.223  1.2998 -2.1149 -0.0571
17955TIP3    H275281   6.258   3.099  11.332  1.4594  2.1109 -1.5534
17956TIP3   OH275282   1.957   4.662  13.786  0.2538 -0.2227 -0.3133
17956TIP3    H175283   2.014   4.601  13.832  0.6953 -0.5488 -1.2599
17956TIP3    H275284   1.869   4.629  13.801  0.3779 -0.2242  0.4308
17957TIP3   OH275285   5.738   0.098  16.606  0.3357 -0.7184 -0.0526
17957TIP3    H175286   5.649   0.126  16.587  0.3965  0.1398  0.8169
17957TIP3    H275287   5.737   0.077  16.700  1.2104  0.0296  0.1401
17958TIP3   OH275288   1.315   4.070  13.702  0.4070  0.1939 -0.3139
17958TIP3    H175289   1.347   4.051  13.614  0.0980 -0.8600 -0.2144
17958TIP3    H275290   1.384   4.039  13.760 -0.3384 -1.2011 -0.1292
17959TIP3   OH275291   0.368   2.339   2.062 -0.2338  0.0387 -0.0709
17959TIP3    H175292   0.425   2.394   2.115 -1.6550  0.8215  0.7245
17959TIP3    H275293   0.319   2.288   2.127 -0.2093 -0.8531 -0.7415
17960TIP3   OH275294   5.382   1.948   0.869 -0.3185 -0.3003  0.1569
17960TIP3    H175295   5.320   1.991   0.810 -0.7920 -1.6881 -0.4011
17960TIP3    H275296   5.362   1.855   0.861  1.5401 -0.7523  0.3229
17961TIP3   OH275297   6.373   2.249  11.778 -0.8455  0.2151  0.2980
17961TIP3    H175298   6.415   2.167  11.753 -0.1780  0.2328  1.3155
17961TIP3    H275299   6.395   2.310  11.708 -1.2304 -0.4296 -0.3945
17962TIP3   OH275300   1.498   0.063  11.034  0.1943  0.4218  0.1449
17962TIP3    H175301   1.476   0.153  11.061 -0.3926  0.1700  0.5460
17962TIP3    H275302   1.575   0.072  10.979 -0.1457  1.2241 -0.2182
17963TIP3   OH275303   0.519   5.716   2.767  0.1222  0.2599  0.7540
17963TIP3    H175304   0.466   5.709   2.687  1.0877 -0.5224  0.1678
17963TIP3    H275305   0.595   5.768   2.741  0.2671  0.3118  1.2733
17964TIP3   OH275306   3.569   0.032  13.115  0.0042  0.4075  0.2090
17964TIP3    H175307   3.635   0.082  13.067 -0.6933 -0.5177 -1.8451
17964TIP3    H275308   3.501   0.096  13.137  0.2833  0.8330 -0.1497
17965TIP3   OH275309   0.773   0.296  17.030  0.0370 -0.2536  0.3842
17965TIP3    H175310   0.834   0.367  17.011 -1.1045  0.4986 -0.5393
17965TIP3    H275311   0.822   0.238  17.089  0.6524  1.8025  2.0189
17966TIP3   OH275312   1.177   2.854  16.980  0.0881  0.7774 -0.5665
17966TIP3    H175313   1.128   2.806  17.046  1.6355  0.9527  0.7931
17966TIP3    H275314   1.170   2.946  17.007  1.0807  0.8092 -0.3652
17967TIP3   OH275315   5.057   6.473   3.172  0.3780  0.1804 -0.4321
17967TIP3    H175316   4.981   6.485   3.116 -0.0080 -0.5256 -0.0758
17967TIP3    H275317   5.105   6.400   3.133  0.1787 -0.2262  0.0562
17968TIP3   OH275318   6.518   1.579   4.369  0.3630  0.1769 -0.0174
17968TIP3    H175319   6.446   1.636   4.341  0.8459  1.0929  0.5660
17968TIP3    H275320   6.590   1.639   4.388  1.5922 -0.7620 -1.4300
17969TIP3   OH275321   1.508   4.442   5.598 -0.0136  0.5410 -0.2795
17969TIP3    H175322   1.417   4.425   5.573 -0.3750  0.7003  0.8878
17969TIP3    H275323   1.536   4.512   5.539 -1.2269  1.7508  0.5320
17970TIP3   OH275324   3.895   0.645   2.589  0.4004 -0.7648 -0.4587
17970TIP3    H175325   3.886   0.616   2.680 -1.2500  0.0975 -0.3023
17970TIP3    H275326   3.934   0.732   2.596 -1.3983  0.0732 -0.4197
17971TIP3   OH275327   2.399   6.029  14.654  0.0025  0.4366 -0.0369
17971TIP3    H175328   2.425   6.105  14.706  0.2423  0.2367  0.1364
17971TIP3    H275329   2.466   5.963  14.672 -0.6815 -0.1203  0.4972
17972TIP3   OH275330   0.734   5.748  13.842 -0.3309  0.1763  0.5260
17972TIP3    H175331   0.759   5.686  13.911 -1.9113 -2.4651 -1.1146
17972TIP3    H275332   0.650   5.783  13.870  0.2207  1.1063  1.0967
17973TIP3   OH275333   3.786   4.600  11.238 -0.0564  0.2092  0.7114
17973TIP3    H175334   3.836   4.635  11.312  1.3368  2.7812 -1.2686
17973TIP3    H275335   3.702   4.575  11.275  0.9001  0.4715  3.2899
17974TIP3   OH275336   6.703   2.697   0.263  0.1914  0.7448 -0.0505
17974TIP3    H175337   6.736   2.702   0.173  0.7179 -0.4946  0.0604
17974TIP3    H275338   6.607   2.693   0.252  0.2690 -3.1136 -0.8600
17975TIP3   OH275339   1.176   4.293   4.452  0.2673 -0.7163 -0.0494
17975TIP3    H175340   1.260   4.285   4.496  1.0429 -1.0957 -1.5544
17975TIP3    H275341   1.125   4.218   4.484  1.0336 -1.3355 -0.2486
17976TIP3   OH275342   3.175   6.488  11.532 -0.6845  0.3388  0.2145
17976TIP3    H175343   3.139   6.561  11.582  0.2467  0.5420  0.6122
17976TIP3    H275344   3.131   6.410  11.566 -0.2604  0.5062  1.1779
17977TIP3   OH275345   2.123   5.382  11.933  0.1589  0.2542 -0.1888
17977TIP3    H175346   2.097   5.431  11.855  1.5005  2.0351  0.4187
17977TIP3    H275347   2.212   5.353  11.915  0.1974  0.0083  0.3779
17978TIP3   OH275348   4.374   0.607   0.965  0.3840  0.2666  0.0985
17978TIP3    H175349   4.359   0.568   0.879  1.6250 -2.1005  0.8502
17978TIP3    H275350   4.306   0.674   0.973 -1.7095 -1.5006 -1.5095
17979TIP3   OH275351   1.538   0.857   0.992  0.2993  0.0350 -0.1729
17979TIP3    H175352   1.574   0.769   1.007 -2.3335 -1.0471  0.3635
17979TIP3    H275353   1.571   0.908   1.066  1.4939 -0.6076 -0.2308
17980TIP3   OH275354   2.922   6.529  13.579  0.3861  0.5602  0.7213
17980TIP3    H175355   2.969   6.452  13.610  0.1841  0.4926  0.8560
17980TIP3    H275356   2.840   6.529  13.628 -0.4785 -0.2201 -0.6339
17981TIP3   OH275357   0.329   5.546   0.615  0.2129  0.1988 -0.6084
17981TIP3    H175358   0.398   5.609   0.594 -0.6620  1.7476  0.9449
17981TIP3    H275359   0.319   5.494   0.535  1.4630  1.5534 -1.7009
17982TIP3   OH275360   6.370   2.838   2.944 -0.2403 -0.7067 -0.0576
17982TIP3    H175361   6.351   2.913   2.888 -4.4842 -2.3057 -1.1007
17982TIP3    H275362   6.350   2.869   3.032  0.4952  0.0468 -0.1377
17983TIP3   OH275363   2.131   2.505  11.099 -0.0234 -0.3917 -0.5755
17983TIP3    H175364   2.081   2.500  11.181 -1.0666 -2.4773 -1.2934
17983TIP3    H275365   2.186   2.427  11.099  0.3696 -0.1334 -1.6255
17984TIP3   OH275366   1.671   6.004   3.585  0.6457 -0.1632 -0.2009
17984TIP3    H175367   1.610   6.009   3.511  1.5361  1.2017 -0.8960
17984TIP3    H275368   1.753   5.973   3.546  0.7463 -0.8150  0.5009
17985TIP3   OH275369   1.128   0.930   6.376  0.0992  0.2124 -0.0661
17985TIP3    H175370   1.114   0.887   6.292 -0.6618 -1.1125  0.6921
17985TIP3    H275371   1.205   0.887   6.412 -1.7045 -1.9598  1.4980
17986TIP3   OH275372   1.941   3.084   3.704 -0.2775 -0.5056  0.2815
17986TIP3    H175373   1.864   3.099   3.758  0.0426  0.2075  0.5589
17986TIP3    H275374   2.015   3.101   3.763  0.0794 -0.3693 -0.1963
17987TIP3   OH275375   4.610   0.954   2.101 -0.6853  0.8990 -0.5363
17987TIP3    H175376   4.580   0.866   2.121  0.9967  0.1254 -1.2004
17987TIP3    H275377   4.530   1.006   2.094 -2.0668 -1.3063 -3.5815
17988TIP3   OH275378   0.476   4.828  13.574 -0.1883 -0.0978  0.2684
17988TIP3    H175379   0.541   4.890  13.604 -1.4792 -0.2966  4.0439
17988TIP3    H275380   0.527   4.753  13.544  1.4541 -0.0728  2.6466
17989TIP3   OH275381   6.451   3.789   5.571  0.3157  0.0934 -0.2377
17989TIP3    H175382   6.382   3.733   5.538 -0.2952  0.5971  0.1580
17989TIP3    H275383   6.456   3.770   5.664 -0.4579  1.2593  0.0604
17990TIP3   OH275384   1.869   1.529  13.539  0.0919  0.0412 -0.2358
17990TIP3    H175385   1.852   1.533  13.444  0.4210  1.4169 -0.2585
17990TIP3    H275386   1.856   1.437  13.562 -0.7268 -0.1787 -1.4847
17991TIP3   OH275387   3.986   1.105   0.197  0.6849  0.0001 -0.2407
17991TIP3    H175388   3.957   1.135   0.283  1.4915 -0.8476  0.3502
17991TIP3    H275389   4.031   1.180   0.159 -0.5194  0.6922 -0.3464
17992TIP3   OH275390   1.975   2.627  13.582 -0.1354  0.0831  0.2493
17992TIP3    H175391   1.950   2.581  13.663  1.3206  0.9667  1.2318
17992TIP3    H275392   1.966   2.720  13.603 -0.5198  0.3227 -0.8906
17993TIP3   OH275393   4.707   4.130  14.864 -0.3478  0.0649  0.2999
17993TIP3    H175394   4.641   4.125  14.932 -1.0316 -3.0820 -0.4392
17993TIP3    H275395   4.657   4.135  14.782  0.4024  1.1153 -0.1087
17994TIP3   OH275396   1.274   0.258   1.507 -0.5862  1.3498  0.4255
17994TIP3    H175397   1.273   0.334   1.565  0.4866  0.0789  2.2103
17994TIP3    H275398   1.301   0.186   1.563 -1.5752 -0.3749 -1.2167
17995TIP3   OH275399   3.434   6.036   4.863  0.2217  0.5348  0.4212
17995TIP3    H175400   3.367   6.105   4.856  0.8737  1.2585  1.2458
17995TIP3    H275401   3.491   6.064   4.934  1.5105  0.0077 -0.3652
17996TIP3   OH275402   1.381   5.005   4.852 -0.6179 -0.1700 -0.2956
17996TIP3    H175403   1.447   4.988   4.919 -0.1059 -1.1748 -1.0219
17996TIP3    H275404   1.298   4.983   4.894 -0.4683  0.8046  0.5265
17997TIP3   OH275405   1.701   3.463  10.701  0.5073  0.5038  0.3595
17997TIP3    H175406   1.632   3.518  10.664 -0.8843 -2.3644 -1.6831
17997TIP3    H275407   1.767   3.458  10.631  0.8551 -0.0120  0.7209
17998TIP3   OH275408   1.176   4.996  11.757 -0.1415  0.0705 -0.3339
17998TIP3    H175409   1.147   4.961  11.842 -1.4696 -0.7615 -1.1005
17998TIP3    H275410   1.114   5.066  11.737 -0.4268 -0.3883 -1.0668
17999TIP3   OH275411   1.745   5.664   2.983  0.0949  0.4179  0.1725
17999TIP3    H175412   1.764   5.609   2.907 -0.2960  0.0603  0.3291
17999TIP3    H275413   1.667   5.624   3.023 -0.3554  1.2336  0.1410
18000TIP3   OH275414   6.582   6.666  13.980  0.4796 -0.4990  0.0288
18000TIP3    H175415   6.550   6.754  14.001  2.6199  0.5683 -0.8899
18000TIP3    H275416   6.573   6.618  14.062 -1.5077  0.2952  0.3392
18001TIP3   OH275417   6.234   6.107  14.116  0.4896 -0.3436  0.9341
18001TIP3    H175418   6.309   6.082  14.062  0.4494 -0.9283  1.1424
18001TIP3    H275419   6.268   6.107  14.205  0.2369 -0.6322  1.0304
18002TIP3   OH275420   3.875   3.854  11.431  0.4742 -0.4927 -0.9298
18002TIP3    H175421   3.790   3.845  11.473  0.7897  0.8853  0.1085
18002TIP3    H275422   3.873   3.793  11.358 -2.2734  1.0770 -2.3349
18003TIP3   OH275423   5.095   4.075  12.765  0.3040  0.4458 -0.2575
18003TIP3    H175424   5.088   4.062  12.670 -0.7012  1.0487 -0.2775
18003TIP3    H275425   5.176   4.029  12.789  0.9118  0.8105 -1.4922
18004TIP3   OH275426   6.410   4.489  16.953  0.2075  0.3385 -0.1863
18004TIP3    H175427   6.444   4.488  16.863 -0.1674  1.5366 -0.3596
18004TIP3    H275428   6.359   4.408  16.960  0.1575  0.2832 -1.0846
18005TIP3   OH275429   6.054   2.499  14.734  0.2975  0.1708 -0.3419
18005TIP3    H175430   6.030   2.427  14.793 -1.1092 -0.0551 -1.1602
18005TIP3    H275431   6.049   2.461  14.647  1.1866  0.8356 -0.6973
18006TIP3   OH275432   4.624   3.860  10.475 -0.4280 -0.5188  0.1079
18006TIP3    H175433   4.543   3.839  10.520 -0.6731 -0.2660 -0.2081
18006TIP3    H275434   4.596   3.909  10.397  0.0888  0.4085  0.4970
18007TIP3   OH275435   6.131   2.915   6.039 -0.3922  0.2491  0.7425
18007TIP3    H175436   6.074   2.961   6.101 -1.0087 -0.3877  0.6518
18007TIP3    H275437   6.163   2.984   5.981 -3.0512  0.2950 -0.7982
18008TIP3   OH275438   5.002   5.027   3.408 -0.6059  0.0358  0.6210
18008TIP3    H175439   4.991   4.984   3.323  0.1603  0.1056  0.4812
18008TIP3    H275440   5.030   4.957   3.467 -0.0550  0.2009  0.5577
18009TIP3   OH275441   3.945   3.083  16.448 -0.4376 -0.1012 -0.0761
18009TIP3    H175442   4.030   3.050  16.478 -0.5905 -0.2574  0.1920
18009TIP3    H275443   3.946   3.070  16.353  0.8173  2.1370 -0.4289
18010TIP3   OH275444   2.336   1.683  12.011 -0.1116 -0.1075  0.4186
18010TIP3    H175445   2.308   1.705  11.923  1.2893 -1.3244 -0.3800
18010TIP3    H275446   2.425   1.718  12.018  0.3994 -1.4038  0.7428
18011TIP3   OH275447   0.838   6.654  15.289  0.4087  0.1278 -0.2544
18011TIP3    H175448   0.823   6.599  15.366 -0.8287  0.0956 -0.4998
18011TIP3    H275449   0.925   6.692  15.304  1.1641 -1.5959  0.0871
18012TIP3   OH275450   1.323   3.384   5.021  0.4456 -0.4771 -0.2214
18012TIP3    H175451   1.304   3.430   5.103  2.0327  0.7684 -0.4996
18012TIP3    H275452   1.416   3.400   5.005  0.3056 -1.1671 -1.9778
18013TIP3   OH275453   5.900   4.279  14.851 -0.4593  0.0249  0.6944
18013TIP3    H175454   5.992   4.289  14.873 -0.1443 -1.4422  0.1589
18013TIP3    H275455   5.857   4.356  14.889  1.3377  2.1150 -1.2655
18014TIP3   OH275456   1.188   1.437   3.360  0.0089  0.6180  0.1696
18014TIP3    H175457   1.208   1.439   3.454 -1.9602  3.2711  0.6195
18014TIP3    H275458   1.253   1.495   3.321  2.4235 -2.3353 -0.6257
18015TIP3   OH275459   1.341   3.776   3.901  0.3555  0.1818 -0.3840
18015TIP3    H175460   1.256   3.820   3.909  1.1278  1.9072 -1.1405
18015TIP3    H275461   1.354   3.766   3.807  0.0733 -2.0363 -0.2321
18016TIP3   OH275462   6.725   1.347  14.612  0.0034 -0.3092 -0.7249
18016TIP3    H175463   6.700   1.254  14.610  1.7369 -0.8044 -1.8691
18016TIP3    H275464   6.813   1.347  14.649 -0.8473  1.1735  1.5119
18017TIP3   OH275465   4.499   5.382  13.253  0.3914  0.3334  0.0729
18017TIP3    H175466   4.594   5.371  13.247  0.2791 -0.0538 -1.4418
18017TIP3    H275467   4.484   5.414  13.342  1.8153 -0.7888  0.7535
18018TIP3   OH275468   4.624   0.282   5.045 -0.8353 -0.1863  0.3499
18018TIP3    H175469   4.617   0.259   4.952 -1.6588  0.0384  0.3477
18018TIP3    H275470   4.665   0.206   5.085  0.3581  0.0749 -0.3377
18019TIP3   OH275471   6.368   6.414  15.358  0.6299  0.2307 -0.0749
18019TIP3    H175472   6.370   6.477  15.429  0.5609  1.6049 -1.2383
18019TIP3    H275473   6.394   6.464  15.281  2.7441 -1.6467 -0.7078
18020TIP3   OH275474   3.649   5.197  11.637  0.2315 -0.3779 -0.2569
18020TIP3    H175475   3.570   5.217  11.587  0.6634 -0.5503 -1.0254
18020TIP3    H275476   3.617   5.162  11.720 -0.5055  0.5115 -0.1478
18021TIP3   OH275477   3.398   6.019  11.691 -0.8388 -0.4147  0.1230
18021TIP3    H175478   3.461   5.995  11.760  0.6642 -0.7854 -1.3108
18021TIP3    H275479   3.451   6.067  11.627 -2.4822  1.1322 -0.1344
18022TIP3   OH275480   0.547   5.125   5.233  0.2671  0.2350  0.5255
18022TIP3    H175481   0.494   5.199   5.204  1.0412  0.5205 -0.2206
18022TIP3    H275482   0.637   5.150   5.210  0.3511 -1.8556 -1.9025
18023TIP3   OH275483   2.882   1.539   5.860 -0.4549  0.0541 -0.3963
18023TIP3    H175484   2.896   1.530   5.955  2.4450 -0.8203 -0.7891
18023TIP3    H275485   2.880   1.633   5.845  0.7088  0.2410  0.4061
18024TIP3   OH275486   6.708   6.054  14.590 -0.0838 -0.1219  0.1645
18024TIP3    H175487   6.653   6.113  14.539  0.8238  0.4810 -0.1544
18024TIP3    H275488   6.698   5.969  14.549  0.0407  0.2032 -0.5480
18025TIP3   OH275489   3.907   0.356  16.558 -0.5549  0.1037 -0.0582
18025TIP3    H175490   3.930   0.334  16.468 -0.6649  1.0659 -0.3277
18025TIP3    H275491   3.812   0.340  16.562 -0.2409 -2.0180  0.5228
18026TIP3   OH275492   6.518   3.673   0.956  0.1829  0.3453 -0.0763
18026TIP3    H175493   6.483   3.619   1.027 -1.0978 -0.0537 -0.9717
18026TIP3    H275494   6.575   3.613   0.907  2.7291  1.1379  1.7023
18027TIP3   OH275495   1.491   5.865  15.185  0.9302  0.0650 -0.1938
18027TIP3    H175496   1.471   5.957  15.202  2.9614  0.7974 -1.4620
18027TIP3    H275497   1.417   5.818  15.224  0.3572  2.1334  1.4515
18028TIP3   OH275498   3.637   4.552   2.504  0.1987 -0.6830  0.3593
18028TIP3    H175499   3.619   4.599   2.586  0.0916  1.1185 -0.6377
18028TIP3    H275500   3.722   4.510   2.518  0.9021  0.8420  0.9135
18029TIP3   OH275501   5.684   4.938  16.376 -0.2846 -0.3218 -0.2681
18029TIP3    H175502   5.749   4.875  16.347 -0.1291 -1.3227  2.0360
18029TIP3    H275503   5.668   4.993  16.299  4.0526  0.7046 -0.6996
18030TIP3   OH275504   1.012   6.259  14.396 -0.1370  0.3943  0.3004
18030TIP3    H175505   1.017   6.354  14.390 -1.2541  0.4300 -0.4893
18030TIP3    H275506   1.020   6.229  14.305  1.5314 -0.3662  0.6580
18031TIP3   OH275507   2.175   0.183  16.761  0.6191 -0.2157 -0.5661
18031TIP3    H175508   2.216   0.134  16.690  2.4002 -0.1762  0.3595
18031TIP3    H275509   2.198   0.275  16.743 -1.2426  0.1437 -1.3655
18032TIP3   OH275510   3.052   1.752   2.185 -0.0352  0.4924  0.2628
18032TIP3    H175511   3.123   1.759   2.121  1.5222  2.9809  2.0857
18032TIP3    H275512   3.097   1.740   2.269 -1.8552  0.4095  1.2731
18033TIP3   OH275513   3.013   0.532   3.574 -0.2078 -0.0613  0.2468
18033TIP3    H175514   2.948   0.480   3.527  2.0948 -2.2611 -0.6900
18033TIP3    H275515   3.021   0.612   3.521 -1.9255  0.1749  0.2707
18034TIP3   OH275516   6.102   3.071  17.057  0.2906 -0.2728  0.0054
18034TIP3    H175517   6.102   3.064  16.961  1.1379 -1.7327  0.0895
18034TIP3    H275518   6.195   3.080  17.080  0.1575 -0.7243  0.7356
18035TIP3   OH275519   5.810   3.139   1.134 -0.2780  0.1308  0.1799
18035TIP3    H175520   5.773   3.182   1.057 -0.3964  0.7054  0.5493
18035TIP3    H275521   5.749   3.161   1.205 -1.2003 -1.9320  0.0902
18036TIP3   OH275522   2.162   5.452  15.001 -0.4774  0.1406 -0.0788
18036TIP3    H175523   2.255   5.439  14.983 -0.2967  1.2191  0.0154
18036TIP3    H275524   2.133   5.368  15.037  0.5413 -0.0854  0.2544
18037TIP3   OH275525   4.222   5.653  15.791 -0.2738 -0.3762 -0.5396
18037TIP3    H175526   4.138   5.687  15.824 -1.2115 -2.0338 -1.0865
18037TIP3    H275527   4.248   5.588  15.857  2.4905  2.4999  1.5467
18038TIP3   OH275528   3.857   1.902  10.946 -0.0589  0.3061 -0.0159
18038TIP3    H175529   3.946   1.928  10.920  0.3899  3.8196  3.9001
18038TIP3    H275530   3.863   1.808  10.962  2.3081  0.0313 -1.8673
18039TIP3   OH275531   6.069   2.363  15.977  0.1146 -0.4832 -0.2242
18039TIP3    H175532   5.996   2.366  16.040 -1.1558  0.6632 -1.6583
18039TIP3    H275533   6.147   2.377  16.030 -0.6050 -2.2558  1.4498
18040TIP3   OH275534   5.780   4.309  14.569 -0.1284 -0.0330  0.3962
18040TIP3    H175535   5.835   4.290  14.644  0.2701 -0.9560 -0.1152
18040TIP3    H275536   5.837   4.295  14.493 -0.4298  1.1690 -0.0831
18041TIP3   OH275537   1.027   4.540  15.257  0.7504 -0.0184  0.3222
18041TIP3    H175538   1.019   4.446  15.239  1.2258 -0.1220  0.6538
18041TIP3    H275539   1.102   4.568  15.204 -0.3686  0.5105 -1.0491
18042TIP3   OH275540   4.001   2.138   2.605 -0.4338 -0.1338 -0.1540
18042TIP3    H175541   3.906   2.155   2.606 -1.0183 -2.5426 -2.8488
18042TIP3    H275542   4.019   2.107   2.516  2.6910 -0.9273  0.6392
18043TIP3   OH275543   6.688   6.495  12.254  0.3277 -0.5610 -0.0367
18043TIP3    H175544   6.622   6.430  12.274 -1.1667  0.9642  0.2088
18043TIP3    H275545   6.641   6.564  12.208  2.0499 -0.0936 -1.2184
18044TIP3   OH275546   3.957   1.815   0.642  0.2008 -0.1100  0.2156
18044TIP3    H175547   4.026   1.869   0.681 -0.1409 -0.2631  1.0588
18044TIP3    H275548   4.002   1.733   0.618  0.6522  0.4153 -0.7831
18045TIP3   OH275549   3.398   0.053  14.347 -0.6516 -0.2886  0.1115
18045TIP3    H175550   3.309   0.048  14.314 -0.4961  0.8303 -0.5230
18045TIP3    H275551   3.433  -0.035  14.333 -1.1734 -0.3286 -1.0834
18046TIP3   OH275552   3.586   5.631   1.329 -0.1353  0.3380  0.6977
18046TIP3    H175553   3.572   5.662   1.418 -3.3031 -0.6890  0.6831
18046TIP3    H275554   3.548   5.699   1.273 -1.7441 -0.7238  0.4032
18047TIP3   OH275555   0.899   4.380   0.739  0.1563 -0.1567  0.2094
18047TIP3    H175556   0.848   4.346   0.665 -0.1591 -1.5530  1.0220
18047TIP3    H275557   0.838   4.437   0.786 -0.5393 -1.3805  0.8613
18048TIP3   OH275558   0.260   4.784  12.095 -0.0847 -0.2897  0.1065
18048TIP3    H175559   0.324   4.741  12.152  1.3803 -0.6624 -1.7341
18048TIP3    H275560   0.196   4.822  12.156  1.6210 -0.2867  1.9957
18049TIP3   OH275561   4.251   6.020   3.542 -0.5038  0.2916  0.0307
18049TIP3    H175562   4.220   5.930   3.553  1.5452 -0.3150  1.4667
18049TIP3    H275563   4.268   6.028   3.449  1.2408 -1.5770  0.1142
18050TIP3   OH275564   2.475   2.160   5.070 -0.3805 -0.2058 -0.1722
18050TIP3    H175565   2.556   2.118   5.098 -1.0952 -1.7016 -0.2904
18050TIP3    H275566   2.427   2.175   5.152  0.2535  1.2730 -0.0339
18051TIP3   OH275567   6.376   5.935   3.076  0.1938  0.2439  0.5316
18051TIP3    H175568   6.409   5.901   2.993  0.7658  0.7935  0.5289
18051TIP3    H275569   6.453   5.969   3.120 -0.3244  1.2775  0.6548
18052TIP3   OH275570   1.078   6.152  15.747  0.0383  0.0688  0.1392
18052TIP3    H175571   1.086   6.058  15.761 -1.7136  0.1435  1.9504
18052TIP3    H275572   1.031   6.160  15.664 -1.9408 -0.7657  1.1081
18053TIP3   OH275573   3.148   4.409  14.241 -0.1605  0.1763  0.4559
18053TIP3    H175574   3.213   4.338  14.240 -0.1029  0.2201 -1.0446
18053TIP3    H275575   3.199   4.488  14.227 -0.5025  0.2218 -0.6322
18054TIP3   OH275576   6.250   0.234   0.224  0.2883 -0.0224  0.5855
18054TIP3    H175577   6.252   0.329   0.211  2.4637 -0.3214 -2.1571
18054TIP3    H275578   6.202   0.200   0.149 -1.3931 -1.1026  2.0765
18055TIP3   OH275579   6.209   1.996   1.416 -0.0411 -0.0363 -0.4449
18055TIP3    H175580   6.288   1.956   1.450  0.0153  1.0111  0.7103
18055TIP3    H275581   6.159   1.923   1.379 -0.9397 -1.6231  3.4577
18056TIP3   OH275582   2.044   3.304  14.519 -0.3581  0.1760 -0.5474
18056TIP3    H175583   1.953   3.323  14.540 -0.4424 -0.5751 -0.2199
18056TIP3    H275584   2.047   3.209  14.510  0.3176  0.2278 -0.9261
18057TIP3   OH275585   6.587   0.915   6.114  0.0372 -0.2326 -0.3714
18057TIP3    H175586   6.676   0.921   6.149 -0.3210 -2.3405  1.0523
18057TIP3    H275587   6.542   0.992   6.149  0.8397 -0.0779  0.3435
18058TIP3   OH275588   1.671   1.959  12.780 -0.3009 -0.7500 -0.5016
18058TIP3    H175589   1.600   1.950  12.717 -1.2925  0.9700  0.2974
18058TIP3    H275590   1.751   1.949  12.728 -1.1060 -1.3812 -1.6483
18059TIP3   OH275591   5.201   1.505   2.818 -0.0248 -0.0217  0.3857
18059TIP3    H175592   5.139   1.499   2.745  0.0658 -0.7500  0.3660
18059TIP3    H275593   5.230   1.415   2.833 -0.7122 -0.0280  1.9022
18060TIP3   OH275594   1.222   2.099  11.273 -0.0326  0.3947  0.0662
18060TIP3    H175595   1.136   2.140  11.264  0.0787  0.5223 -0.4393
18060TIP3    H275596   1.206   2.006  11.254 -0.0512  0.4257 -0.0700
18061TIP3   OH275597   5.732   2.077  11.995  0.1760  0.4589  0.3771
18061TIP3    H175598   5.794   2.138  11.956  0.3485  0.0057 -0.0734
18061TIP3    H275599   5.665   2.066  11.928 -0.5630  1.1815  0.9784
18062TIP3   OH275600   6.232   3.192   3.456 -0.1115 -0.2954 -0.0505
18062TIP3    H175601   6.236   3.142   3.537  0.1455 -0.3388 -0.0890
18062TIP3    H275602   6.148   3.237   3.460  0.2034  0.2580  0.5752
18063TIP3   OH275603   2.961   3.629  11.809  0.1346  0.4247 -0.0456
18063TIP3    H175604   3.011   3.555  11.843 -0.6752  0.4972  1.3546
18063TIP3    H275605   2.916   3.665  11.885  0.5647  2.4165 -0.6761
18064TIP3   OH275606   3.478   5.471  16.022  0.3626 -0.0509  0.3847
18064TIP3    H175607   3.436   5.541  15.972  1.3421 -0.3293 -0.8941
18064TIP3    H275608   3.407   5.432  16.072 -0.3597  1.3019  0.4776
18065TIP3   OH275609   3.474   0.898  16.687 -0.8108 -0.7271 -0.0026
18065TIP3    H175610   3.501   0.808  16.704  1.2199  0.1212  1.6135
18065TIP3    H275611   3.433   0.926  16.768  1.8315  0.8903  0.8701
18066TIP3   OH275612   4.909   5.811  15.306 -0.5258 -0.1201  0.0681
18066TIP3    H175613   4.971   5.880  15.282  0.2016 -0.7671  0.0653
18066TIP3    H275614   4.865   5.788  15.224 -0.9209  0.4694  0.1038
18067TIP3   OH275615   5.105   3.201  14.680  0.1032 -0.1815 -0.6178
18067TIP3    H175616   5.168   3.240  14.742 -1.4037  0.6011  0.5139
18067TIP3    H275617   5.047   3.274  14.656 -1.4350 -1.2147 -0.2217
18068TIP3   OH275618   6.254   5.183  15.449 -0.2657  0.6197 -0.6319
18068TIP3    H175619   6.173   5.220  15.413 -1.3530  0.3975  1.3881
18068TIP3    H275620   6.273   5.108  15.394 -0.4336  1.6923 -2.2072
18069TIP3   OH275621   3.996   5.994   2.982 -0.1185 -0.0236  0.0536
18069TIP3    H175622   3.941   5.919   2.957  1.1468  0.1905 -4.0989
18069TIP3    H275623   4.065   5.955   3.035 -1.1514 -1.2128  0.6005
18070TIP3   OH275624   4.050   4.429  12.919 -0.2020  0.0231  0.5455
18070TIP3    H175625   4.081   4.519  12.926 -0.6677  0.1896  0.5197
18070TIP3    H275626   4.051   4.410  12.826 -2.3943  0.8472  0.2876
18071TIP3   OH275627   6.669   0.681  16.663 -0.2404  0.3584 -0.7052
18071TIP3    H175628   6.636   0.617  16.600  1.5782  0.9999 -2.4171
18071TIP3    H275629   6.758   0.651  16.684 -0.5362  0.5821  1.0072
18072TIP3   OH275630   2.755   0.906   4.460 -0.2997  0.9932  0.5066
18072TIP3    H175631   2.663   0.930   4.451 -0.2367  2.1862  2.5415
18072TIP3    H275632   2.755   0.823   4.507 -0.3248 -0.0940 -1.2804
18073TIP3   OH275633   2.171   4.839  16.802 -0.0503  0.2589  0.0232
18073TIP3    H175634   2.227   4.909  16.768  0.5146  0.6067  1.6149
18073TIP3    H275635   2.092   4.884  16.832 -0.8386 -0.1287 -1.3896
18074TIP3   OH275636   0.636   2.131   5.408  0.6678  0.0333 -0.0530
18074TIP3    H175637   0.581   2.172   5.341  2.1125  0.8749 -0.7789
18074TIP3    H275638   0.626   2.187   5.485  2.5926  1.8579 -1.0229
18075TIP3   OH275639   6.591   3.744  11.592  0.0275 -0.5695  0.1641
18075TIP3    H175640   6.554   3.830  11.611  0.9977 -0.1271  0.1321
18075TIP3    H275641   6.672   3.741  11.643 -0.0540 -1.5075  0.2520
18076TIP3   OH275642   2.396   0.312   0.817 -0.1285 -0.2177 -0.2200
18076TIP3    H175643   2.413   0.336   0.726 -0.8850  2.3463  0.2200
18076TIP3    H275644   2.324   0.249   0.812  0.4946 -0.8702 -1.4183
18077TIP3   OH275645   3.121   1.777   1.252  0.0068 -0.8288  0.5651
18077TIP3    H175646   3.215   1.783   1.270 -0.0797 -2.2578  1.6819
18077TIP3    H275647   3.106   1.684   1.232 -1.1030 -0.5448  0.0169
18078TIP3   OH275648   5.881   6.013  11.262  0.2084 -0.3597  0.0948
18078TIP3    H175649   5.872   6.109  11.261 -1.7518 -0.5097 -1.1299
18078TIP3    H275650   5.946   5.994  11.195 -0.5755  0.0532 -0.8044
18079TIP3   OH275651   5.864   2.940  15.677 -0.1846 -0.8997  0.0798
18079TIP3    H175652   5.933   2.874  15.669 -0.5683 -1.3081  0.1205
18079TIP3    H275653   5.783   2.889  15.685 -0.2782 -0.5048  2.5210
18080TIP3   OH275654   3.110   0.535   2.932 -0.1241 -0.6315 -0.1220
18080TIP3    H175655   3.129   0.526   2.839 -1.1609 -1.3516 -0.2818
18080TIP3    H275656   3.171   0.476   2.975 -1.0736 -1.9371 -0.5201
18081TIP3   OH275657   6.680   3.789   0.024 -0.5991  0.0506 -0.1840
18081TIP3    H175658   6.589   3.814   0.038 -0.4416  0.4713  0.1275
18081TIP3    H275659   6.677   3.727  -0.049 -1.3566 -1.4953  1.0943
18082TIP3   OH275660   1.989   5.808  16.096 -0.1247 -0.2654 -0.2037
18082TIP3    H175661   2.031   5.894  16.089  0.1367 -0.3661  0.0910
18082TIP3    H275662   2.058   5.746  16.072 -0.5258 -0.3585 -1.1589
18083TIP3   OH275663   1.217   6.266  11.926 -0.2768  0.3935  0.3846
18083TIP3    H175664   1.212   6.223  11.841 -0.3868  0.2033  0.4863
18083TIP3    H275665   1.301   6.311  11.925 -0.3767  0.5757  0.0887
18084TIP3   OH275666   3.313   5.631   1.908 -0.1228 -0.0450 -0.1628
18084TIP3    H175667   3.389   5.583   1.872  1.2459  1.9703 -0.1228
18084TIP3    H275668   3.248   5.563   1.924  1.7680 -1.9264  0.0713
18085TIP3   OH275669   2.725   0.722   4.765  0.1088 -0.4486  0.1438
18085TIP3    H175670   2.674   0.802   4.777 -1.2915 -1.3793  0.6898
18085TIP3    H275671   2.742   0.691   4.854  0.3917 -0.9100 -0.0675
18086TIP3   OH275672   2.961   5.203  15.296  0.1575 -0.0736  0.1460
18086TIP3    H175673   2.875   5.196  15.255 -0.1763  1.2970  0.5675
18086TIP3    H275674   3.015   5.139  15.249 -0.2670  1.2522 -2.3059
18087TIP3   OH275675   4.613   5.192   0.903  0.7230 -0.3536 -0.7523
18087TIP3    H175676   4.534   5.141   0.922  1.0195 -0.8207 -0.7572
18087TIP3    H275677   4.676   5.162   0.968 -0.0875  2.4258  1.5224
18088TIP3   OH275678   1.746   6.430  16.909 -0.0977  0.3547 -0.0015
18088TIP3    H175679   1.731   6.338  16.891 -1.6556  0.7678 -0.9605
18088TIP3    H275680   1.827   6.431  16.961 -0.6427 -1.6087  0.9868
18089TIP3   OH275681   5.396   2.751  15.683 -1.2516  0.2701 -0.1482
18089TIP3    H175682   5.334   2.700  15.736 -2.0234  1.3349 -0.0026
18089TIP3    H275683   5.349   2.769  15.601 -0.8222  0.3737 -0.3742
18090TIP3   OH275684   0.841   0.606   2.214  0.0697 -0.4436  0.0820
18090TIP3    H175685   0.882   0.684   2.175 -1.5144  0.4056  0.0280
18090TIP3    H275686   0.807   0.637   2.298  1.4027 -1.6833  1.1442
18091TIP3   OH275687   3.331   1.656  16.959  0.0839 -0.0870  0.1385
18091TIP3    H175688   3.264   1.629  16.896 -0.5031 -0.3838  0.8640
18091TIP3    H275689   3.359   1.574  17.000  1.5250 -0.0673 -0.7475
18092TIP3   OH275690   5.669   1.361  11.477  0.4039 -0.2842  0.0862
18092TIP3    H175691   5.696   1.445  11.441 -0.2099  0.5505  1.5126
18092TIP3    H275692   5.600   1.331  11.417 -0.2977  0.8602  0.2985
18093TIP3   OH275693   5.961   6.413   0.146 -0.1420 -0.2734  0.0647
18093TIP3    H175694   5.920   6.492   0.180  0.4840  0.7083 -1.3450
18093TIP3    H275695   5.996   6.439   0.061  2.0356 -1.4640  0.5162
18094TIP3   OH275696   3.957   6.152  14.779 -0.1870  0.3165  0.3510
18094TIP3    H175697   4.019   6.192  14.718  0.9302 -1.3361  0.3333
18094TIP3    H275698   3.992   6.173  14.866 -0.5117  0.7565  0.3756
18095TIP3   OH275699   2.987   5.211   5.351 -0.1561 -0.8661 -0.0244
18095TIP3    H175700   2.995   5.246   5.439 -2.0091 -1.0598  0.2723
18095TIP3    H275701   2.940   5.129   5.362  0.3882 -1.3458 -1.1156
18096TIP3   OH275702   1.654   0.019  16.161 -0.0746 -0.4630  0.3240
18096TIP3    H175703   1.620   0.050  16.077 -0.4408  0.2778  0.7382
18096TIP3    H275704   1.732  -0.032  16.138  1.5109  2.0586 -0.3061
18097TIP3   OH275705   1.031   4.114  12.745 -0.7906 -0.0399 -0.0982
18097TIP3    H175706   0.974   4.149  12.813 -0.3179 -1.8603  1.3107
18097TIP3    H275707   1.114   4.160  12.756 -0.9406  0.1793  0.1080
18098TIP3   OH275708   1.221   4.074  13.029 -0.3022 -0.8121  0.0971
18098TIP3    H175709   1.249   4.019  12.956 -0.1369  0.1881 -0.6270
18098TIP3    H275710   1.213   4.162  12.991  0.8402 -0.0446  1.5290
18099TIP3   OH275711   3.543   2.973   0.850 -0.0030 -0.0562  0.1143
18099TIP3    H175712   3.517   2.935   0.934  3.3791 -0.4764  1.1288
18099TIP3    H275713   3.615   2.917   0.820  0.7818  1.7715 -1.6172
18100TIP3   OH275714   2.706   4.012   5.934 -0.3758  0.4555  0.1455
18100TIP3    H175715   2.667   3.944   5.989 -0.5861  1.2772  1.0370
18100TIP3    H275716   2.800   4.006   5.951 -0.1632 -0.9121 -1.3029
18101TIP3   OH275717   6.659   0.467  13.412 -0.0484  0.3301  0.0089
18101TIP3    H175718   6.574   0.492  13.374 -0.8381 -2.5893 -0.3646
18101TIP3    H275719   6.642   0.385  13.458  2.9721 -1.5697 -1.9355
18102TIP3   OH275720   0.420   0.101  13.255  0.0947  0.3996  0.1973
18102TIP3    H175721   0.380   0.093  13.168  3.0274  1.9788 -1.4448
18102TIP3    H275722   0.401   0.017  13.297 -1.4863 -0.4002 -1.8959
18103TIP3   OH275723   6.729   5.639   4.906  0.1497  0.4867  0.3116
18103TIP3    H175724   6.685   5.721   4.881  2.7526  2.2912  1.2753
18103TIP3    H275725   6.684   5.612   4.986  0.3290  1.9697  0.9574
18104TIP3   OH275726   3.208   1.288  16.395  0.1913 -0.2436 -0.0758
18104TIP3    H175727   3.235   1.324  16.479 -0.2375 -0.4085  0.1356
18104TIP3    H275728   3.273   1.321  16.332  2.6253 -2.9310  0.8225
18105TIP3   OH275729   2.842   5.202  11.822  0.6061 -0.4752  0.2274
18105TIP3    H175730   2.815   5.207  11.914 -2.8630 -0.1231 -0.6639
18105TIP3    H275731   2.869   5.291  11.800  0.4313 -0.3140  0.6500
18106TIP3   OH275732   4.853   5.283   3.394  0.1646  0.3080  0.6972
18106TIP3    H175733   4.925   5.221   3.404  1.0904  1.1224 -0.6524
18106TIP3    H275734   4.821   5.268   3.305 -2.3164 -1.0132  1.7176
18107TIP3   OH275735   4.563   4.674  15.369 -0.1460 -0.5857  0.7291
18107TIP3    H175736   4.526   4.682  15.282 -0.3680 -2.0457  0.6637
18107TIP3    H275737   4.501   4.620  15.417  1.0021 -1.6115  1.1320
18108TIP3   OH275738   5.225   4.593  15.864  0.0026  0.0869 -0.0055
18108TIP3    H175739   5.214   4.670  15.808  0.5248 -0.0598 -0.3064
18108TIP3    H275740   5.136   4.560  15.876 -0.0195 -0.5166 -1.6328
18109TIP3   OH275741   0.716   5.706  16.031 -0.0798  0.3647  0.1603
18109TIP3    H175742   0.726   5.794  16.066  1.3866  0.2233  0.1845
18109TIP3    H275743   0.666   5.717  15.950 -1.4157  0.9837  1.0416
18110TIP3   OH275744   4.358   3.259  11.767 -0.5562 -0.0711  0.1689
18110TIP3    H175745   4.447   3.261  11.732 -0.1544 -0.8569  1.1066
18110TIP3    H275746   4.323   3.175  11.739 -1.6390  0.9206 -1.6361
18111TIP3   OH275747   4.323   2.721  13.581 -0.0590  0.2550 -0.1836
18111TIP3    H175748   4.283   2.653  13.528  0.0365 -0.3662  0.5258
18111TIP3    H275749   4.417   2.702  13.580 -0.2336 -1.0425  1.8974
18112TIP3   OH275750   4.542   5.228   6.258 -0.1276  0.1228 -0.1152
18112TIP3    H175751   4.459   5.183   6.243 -0.2055 -0.0625  0.8042
18112TIP3    H275752   4.543   5.299   6.195  0.0087 -1.1743 -1.6457
18113TIP3   OH275753   5.579   2.625  12.279  0.1047 -0.3273 -0.1380
18113TIP3    H175754   5.629   2.568  12.221 -1.0649  0.5374 -2.0921
18113TIP3    H275755   5.521   2.566  12.327  1.9943 -1.1970  1.2043
18114TIP3   OH275756   3.048   2.729  12.029  0.3180  0.6609 -0.3383
18114TIP3    H175757   3.084   2.670  11.964  1.2242  1.1357 -0.2745
18114TIP3    H275758   3.090   2.704  12.111 -1.4521 -0.5073  0.2627
18115TIP3   OH275759   6.237   1.021  13.497 -0.3682  0.0496  0.2188
18115TIP3    H175760   6.170   1.066  13.445  0.1185  0.5727  0.0279
18115TIP3    H275761   6.188   0.958  13.550 -1.1098  0.9760  0.6820
18116TIP3   OH275762   3.169   1.538   1.709 -0.0143 -0.1201  0.1007
18116TIP3    H175763   3.190   1.619   1.661  2.3642 -1.4381 -1.2462
18116TIP3    H275764   3.185   1.468   1.646  0.7167 -1.8038  2.0567
18117TIP3   OH275765   3.918   5.445  15.931  0.2882  0.2803  0.0882
18117TIP3    H175766   3.956   5.491  16.005 -0.3706  1.0840 -0.0646
18117TIP3    H275767   3.864   5.510  15.887  1.7797  0.2446 -1.9471
18118TIP3   OH275768   1.275   1.365   3.025 -0.2334 -0.5220  0.0284
18118TIP3    H175769   1.330   1.395   3.097  1.2806 -1.5523 -0.6502
18118TIP3    H275770   1.307   1.414   2.949 -2.1830  0.9707  0.0769
18119TIP3   OH275771   0.868   2.851  11.216 -0.0744 -0.0776 -0.0143
18119TIP3    H175772   0.795   2.795  11.188  1.3181 -1.9039 -0.1591
18119TIP3    H275773   0.871   2.841  11.311 -2.8110  3.6623  0.7227
18120TIP3   OH275774   5.274   6.679   6.528 -0.2254  0.2015 -0.0881
18120TIP3    H175775   5.327   6.688   6.449 -0.8122  1.1696 -0.3841
18120TIP3    H275776   5.205   6.618   6.504  0.3123 -0.4847  0.0732
18121TIP3   OH275777   6.456   0.229   4.115 -0.6399  0.1200 -0.4487
18121TIP3    H175778   6.375   0.247   4.067 -0.5706 -0.4070 -0.7680
18121TIP3    H275779   6.440   0.145   4.159 -0.6469  0.5238  0.3401
18122TIP3   OH275780   0.581   0.141   3.917  0.0860 -0.1399  0.4656
18122TIP3    H175781   0.667   0.183   3.921  0.5142 -0.8023 -1.1731
18122TIP3    H275782   0.542   0.173   3.836 -1.3172  0.2785  1.2529
18123TIP3   OH275783   0.742   6.431  15.770  1.2267 -0.3204  0.6808
18123TIP3    H175784   0.730   6.357  15.829 -0.8454  0.2614  1.0846
18123TIP3    H275785   0.761   6.505  15.828 -0.7305  0.2361  0.6870
18124TIP3   OH275786   1.838   3.009   5.190 -0.2566 -0.0813 -0.4318
18124TIP3    H175787   1.824   3.033   5.282  1.6203  0.1309 -0.1406
18124TIP3    H275788   1.844   2.913   5.191  0.9587 -0.0231 -0.0936
18125TIP3   OH275789   4.604   2.165  15.337  0.1356 -0.1989  0.2424
18125TIP3    H175790   4.686   2.194  15.376  0.2571 -0.2850  0.0560
18125TIP3    H275791   4.595   2.218  15.258  0.3848 -0.6957 -0.1250
18126TIP3   OH275792   0.845   6.128   3.308  0.4351 -0.3531 -0.3331
18126TIP3    H175793   0.825   6.059   3.245  0.0566 -1.5501  1.0223
18126TIP3    H275794   0.761   6.170   3.325  0.3289 -0.7410  0.1408
18127TIP3   OH275795   1.239   5.557  16.705  0.4360  0.4349 -0.0427
18127TIP3    H175796   1.146   5.575  16.690  0.7615  1.6036 -0.7875
18127TIP3    H275797   1.257   5.592  16.792 -0.2654 -1.6571  1.0021
18128TIP3   OH275798   2.365   2.185   1.760 -0.4260 -0.2713 -0.0905
18128TIP3    H175799   2.395   2.244   1.829 -1.8081  1.1307 -0.6208
18128TIP3    H275800   2.297   2.234   1.715 -0.9226 -1.9149 -1.2215
18129TIP3   OH275801   4.602   0.266   1.134  0.0504  0.1072 -0.1094
18129TIP3    H175802   4.534   0.240   1.072  0.0656  3.0269 -1.5302
18129TIP3    H275803   4.565   0.247   1.220 -2.0405  0.4545 -0.8798
18130TIP3   OH275804   1.207   5.436  11.762  0.1218 -0.2471 -0.3948
18130TIP3    H175805   1.274   5.380  11.723  1.8036  1.1542  0.3446
18130TIP3    H275806   1.247   5.523  11.764 -1.8505  0.7073 -0.1895
18131TIP3   OH275807   2.884   4.621  12.772  0.2825  0.4536  0.0408
18131TIP3    H175808   2.836   4.607  12.690  0.0206  0.2876  0.2207
18131TIP3    H275809   2.974   4.595  12.751  0.5123  1.6672 -0.5672
18132TIP3   OH275810   2.875   5.393  13.920 -0.2671  0.2201 -0.3900
18132TIP3    H175811   2.940   5.438  13.865 -0.7212  1.4262  0.0183
18132TIP3    H275812   2.795   5.445  13.910 -0.3900  0.4128  1.3178
18133TIP3   OH275813   5.221   0.401   0.270  0.1234 -0.2646 -0.5657
18133TIP3    H175814   5.178   0.486   0.276  1.4434  0.4617 -0.9338
18133TIP3    H275815   5.272   0.394   0.351  1.2005 -0.0088 -1.2023
18134TIP3   OH275816   3.206   1.841  16.680 -0.1237 -0.5075  0.5091
18134TIP3    H175817   3.238   1.917  16.729 -0.1095  0.0222 -0.3033
18134TIP3    H275818   3.259   1.840  16.600 -1.0103 -0.5962 -0.0905
18135TIP3   OH275819   5.537   5.976  14.996 -0.1073 -0.5826  0.1645
18135TIP3    H175820   5.567   6.044  15.056  0.2949 -1.7904  1.3860
18135TIP3    H275821   5.617   5.935  14.962 -0.3296 -0.0017 -1.1326
18136TIP3   OH275822   1.444   1.941  15.579 -0.0345 -0.3011  0.1140
18136TIP3    H175823   1.411   1.964  15.492 -0.9564  2.0046  0.9770
18136TIP3    H275824   1.536   1.921  15.566 -0.2487 -0.3550 -1.4432
18137TIP3   OH275825   5.874   6.058   3.653 -0.3428 -0.0604 -0.2319
18137TIP3    H175826   5.830   5.992   3.708 -0.1891  0.8810  1.0611
18137TIP3    H275827   5.926   6.006   3.591 -0.3866 -1.1660  0.6137
18138TIP3   OH275828   2.883   6.418   2.731 -0.1241 -0.4376  0.0524
18138TIP3    H175829   2.822   6.468   2.676  0.2169  0.1356  0.1816
18138TIP3    H275830   2.924   6.485   2.786 -0.3099 -0.9833  0.8513
18139TIP3   OH275831   1.312   2.685  15.094  0.0174  0.4538  0.0809
18139TIP3    H175832   1.381   2.720  15.038  1.4866 -0.0958  1.4535
18139TIP3    H275833   1.235   2.680  15.038  0.7324  2.2960 -1.1788
18140TIP3   OH275834   4.286   6.285  14.906  0.3167 -0.1829  0.2195
18140TIP3    H175835   4.207   6.293  14.960  0.3147  0.5096  0.1148
18140TIP3    H275836   4.333   6.211  14.943  1.5702  1.7606  2.7825
18141TIP3   OH275837   4.193   1.399  11.290 -0.1143 -0.0338 -0.3048
18141TIP3    H175838   4.200   1.483  11.244  0.6283  0.4942  0.7316
18141TIP3    H275839   4.143   1.343  11.230  0.6351  0.6782 -1.6506
18142TIP3   OH275840   6.768   4.180  13.372  0.0503 -0.4164  0.4984
18142TIP3    H175841   6.803   4.135  13.448  0.4927 -1.7578 -0.4603
18142TIP3    H275842   6.819   4.146  13.298  0.8603  2.1372 -0.2323
18143TIP3   OH275843   4.513   3.450  16.541  0.0350 -0.7625  0.2269
18143TIP3    H175844   4.421   3.447  16.565  0.3622 -0.2043  1.6685
18143TIP3    H275845   4.520   3.523  16.479 -0.6304 -1.4127 -0.6289
18144TIP3   OH275846   5.451   1.310  12.706  0.4458 -0.2832 -0.0358
18144TIP3    H175847   5.493   1.375  12.763 -1.1980  0.0338  0.8593
18144TIP3    H275848   5.520   1.284  12.645  0.8914  3.1652 -1.2009
18145TIP3   OH275849   4.919   5.707   3.166 -0.4392  0.4383  0.2507
18145TIP3    H175850   4.941   5.759   3.244 -0.3979  0.0879  0.4751
18145TIP3    H275851   4.841   5.749   3.131 -0.5864  0.4666  0.6094
18146TIP3   OH275852   6.589   4.582  14.793  0.4383  0.4044  0.6277
18146TIP3    H175853   6.600   4.519  14.865 -2.0262  0.4249  1.1293
18146TIP3    H275854   6.590   4.528  14.714  2.4105  0.2885  0.6814
18147TIP3   OH275855   4.973   3.675  15.078 -0.9340 -0.1135 -0.1673
18147TIP3    H175856   4.976   3.583  15.106 -0.0369 -0.9299 -2.6885
18147TIP3    H275857   5.025   3.721  15.144 -2.0108 -1.2443  1.5725
18148TIP3   OH275858   0.228   4.398  13.825 -0.1313  0.7033  0.3866
18148TIP3    H175859   0.252   4.486  13.852  0.2228 -0.0192  2.6197
18148TIP3    H275860   0.149   4.410  13.772  0.1581  2.3635  0.2761
18149TIP3   OH275861   3.055   2.516   4.096  0.3804  0.6200 -0.5790
18149TIP3    H175862   2.997   2.448   4.062  0.5571 -0.2032  0.7137
18149TIP3    H275863   3.127   2.520   4.033 -0.0885  0.2573 -1.1447
18150TIP3   OH275864   1.347   0.904  11.023 -0.1064  0.4741  0.4168
18150TIP3    H175865   1.366   0.915  11.116  0.3042  1.0139  0.2761
18150TIP3    H275866   1.361   0.991  10.985  0.6101  0.0653 -0.2997
18151TIP3   OH275867   6.337   0.989  11.043  0.2222  0.3168 -0.5139
18151TIP3    H175868   6.406   1.050  11.016  0.1525  0.8778  0.5268
18151TIP3    H275869   6.314   0.942  10.963  0.7220  1.2176 -1.2073
18152TIP3   OH275870   1.408   0.764  10.482 -0.7339 -0.0845  0.3893
18152TIP3    H175871   1.484   0.707  10.492  0.1024  0.9138 -0.0677
18152TIP3    H275872   1.347   0.714  10.428  0.4382 -0.1680 -0.9353
18153TIP3   OH275873   2.747   5.506   4.127  0.6245 -0.2166 -0.4053
18153TIP3    H175874   2.804   5.554   4.067 -1.0664  3.1721  0.4857
18153TIP3    H275875   2.715   5.432   4.075  1.5045  0.8979 -2.6837
18154TIP3   OH275876   4.012   4.564   1.452 -0.2024  0.5205  0.2236
18154TIP3    H175877   4.071   4.493   1.477 -0.4649 -0.0723 -0.7812
18154TIP3    H275878   4.067   4.642   1.451  0.5436  0.0064 -0.5189
18155TIP3   OH275879   5.175   3.167  13.711 -0.0398 -0.2054 -0.0333
18155TIP3    H175880   5.108   3.172  13.779  0.5697 -0.5555  0.5987
18155TIP3    H275881   5.150   3.235  13.648 -0.6451  0.0754  0.4978
18156TIP3   OH275882   2.672   2.375  16.714  0.5726  0.5236  0.2655
18156TIP3    H175883   2.711   2.316  16.779 -0.2334 -0.1069  0.1926
18156TIP3    H275884   2.708   2.345  16.630  0.6980  0.5773  0.2994
18157TIP3   OH275885   1.331   3.461   3.053 -0.6746 -0.2040  0.0615
18157TIP3    H175886   1.277   3.537   3.074 -1.6666 -0.2571 -2.0653
18157TIP3    H275887   1.268   3.393   3.027  0.2291 -1.5768  1.3010
18158TIP3   OH275888   2.737   1.189  10.799  0.1024  0.6459 -0.2923
18158TIP3    H175889   2.772   1.205  10.887  0.4536 -2.2817  0.2142
18158TIP3    H275890   2.810   1.208  10.741  0.5157  0.6854  0.2252
18159TIP3   OH275891   3.274   0.299   5.013  0.3012  0.1679 -0.6150
18159TIP3    H175892   3.321   0.229   5.057  0.2138  1.4661  1.6761
18159TIP3    H275893   3.343   0.357   4.979  0.4700  1.3595  1.5742
18160TIP3   OH275894   2.657   0.911  10.832 -0.0901  0.1201 -0.7232
18160TIP3    H175895   2.649   0.892  10.926  2.4126 -0.6911 -0.5963
18160TIP3    H275896   2.658   1.006  10.827  0.1296  0.1738  0.1525
18161TIP3   OH275897   1.702   0.011   6.503  0.1624  0.7027  0.2442
18161TIP3    H175898   1.747  -0.034   6.432  1.2992 -0.0680  1.4179
18161TIP3    H275899   1.678   0.096   6.465  1.0202  0.4428 -0.9534
18162TIP3   OH275900   3.480   2.270  13.433 -0.0954  0.3232  0.3370
18162TIP3    H175901   3.409   2.323  13.470 -0.5397 -0.8602  1.2408
18162TIP3    H275902   3.528   2.330  13.377 -1.7901  1.1823 -0.2699
18163TIP3   OH275903   3.914   2.102   5.061 -0.3428 -0.4743 -1.0809
18163TIP3    H175904   3.963   2.023   5.036  0.9053  0.0016 -0.2328
18163TIP3    H275905   3.979   2.158   5.103 -1.9652 -0.5477  1.7582
18164TIP3   OH275906   1.321   6.254   6.703  0.1790 -0.3825 -0.0019
18164TIP3    H175907   1.397   6.287   6.655 -0.1234 -0.8286 -0.8241
18164TIP3    H275908   1.246   6.285   6.653 -0.3430  2.3233  2.2621
18165TIP3   OH275909   6.735   3.589  13.428  0.0810 -0.3114 -0.0572
18165TIP3    H175910   6.819   3.578  13.473  0.7585  0.4630 -1.0975
18165TIP3    H275911   6.699   3.501  13.423  0.7322 -0.6277  0.5698
18166TIP3   OH275912   4.422   0.688   5.843  0.1647  0.2665 -0.1594
18166TIP3    H175913   4.364   0.688   5.920  0.0900  1.0960 -0.1958
18166TIP3    H275914   4.503   0.648   5.874  0.3621  1.1616  0.5486
18167TIP3   OH275915   0.277   1.308   1.749 -0.6377 -0.3240 -0.1095
18167TIP3    H175916   0.300   1.389   1.703 -2.3558  0.1101 -0.2732
18167TIP3    H275917   0.268   1.243   1.680 -1.2291 -0.1670 -0.1788
18168TIP3   OH275918   2.854   6.783  10.989  0.0967 -0.6154  0.1178
18168TIP3    H175919   2.876   6.692  10.969  2.0214 -0.0254 -0.6460
18168TIP3    H275920   2.852   6.787  11.085 -1.0091 -1.6572  0.1548
18169TIP3   OH275921   5.913   3.482   3.979 -0.0558  0.3920  0.5108
18169TIP3    H175922   5.995   3.473   3.930 -0.8695 -1.8749 -0.5953
18169TIP3    H275923   5.895   3.576   3.980  1.8651  0.8131 -0.3668
18170TIP3   OH275924   5.014   6.734  15.718 -0.9769  0.2590 -0.2508
18170TIP3    H175925   4.931   6.720  15.763 -2.3248 -0.4367 -2.7674
18170TIP3    H275926   5.052   6.811  15.760 -1.4384 -1.0700  2.8902
18171TIP3   OH275927   4.455   5.312   4.822  0.0876 -0.6997 -0.2287
18171TIP3    H175928   4.452   5.217   4.833 -2.4172 -0.6767 -0.2179
18171TIP3    H275929   4.442   5.326   4.728  1.7801 -0.3620 -0.4443
18172TIP3   OH275930   0.682   3.130   4.542  0.0619 -0.2538  0.8219
18172TIP3    H175931   0.629   3.052   4.557 -2.6811  1.3069 -0.0165
18172TIP3    H275932   0.669   3.150   4.449 -0.4702  1.9029  1.2944
18173TIP3   OH275933   6.788   1.558   0.041  0.5850  0.0815  0.0156
18173TIP3    H175934   6.720   1.620   0.012  0.5771 -0.4276 -1.0823
18173TIP3    H275935   6.766   1.540   0.132 -1.6999 -1.2629 -0.7317
18174TIP3   OH275936   6.159   4.581   0.828  0.5344  0.7066 -0.5364
18174TIP3    H175937   6.201   4.569   0.914 -0.0549 -3.2378 -0.6069
18174TIP3    H275938   6.232   4.598   0.769  1.5906 -1.2417  0.1037
18175TIP3   OH275939   3.816   2.114   4.618  0.3122 -0.5360 -0.1182
18175TIP3    H175940   3.726   2.098   4.588  1.0872 -2.4936 -1.5656
18175TIP3    H275941   3.822   2.210   4.624 -2.4655 -0.3607  2.0615
18176TIP3   OH275942   3.070   5.647  13.066  0.4862  0.4517  1.1078
18176TIP3    H175943   3.015   5.576  13.033  1.0701  0.4799  0.0137
18176TIP3    H275944   3.086   5.624  13.158  1.0202 -1.0775  0.6747
18177TIP3   OH275945   1.075   4.783  15.774 -0.5771  0.0631  0.2637
18177TIP3    H175946   1.008   4.716  15.757  1.1490 -1.4541 -0.9183
18177TIP3    H275947   1.057   4.811  15.864 -1.9733 -1.2879  0.4593
18178TIP3   OH275948   3.696   0.991   2.471  0.5283 -0.2355 -0.3134
18178TIP3    H175949   3.667   0.947   2.551  0.1045 -0.0729 -0.3726
18178TIP3    H275950   3.717   0.920   2.411  1.8697 -0.3796  0.2847
18179TIP3   OH275951   2.950   4.107   3.686 -0.5468 -0.6245 -0.6978
18179TIP3    H175952   3.020   4.155   3.731 -0.6135 -0.2558 -0.9901
18179TIP3    H275953   2.968   4.119   3.593 -1.9061  0.8193 -0.8117
18180TIP3   OH275954   5.848   6.527  14.039 -0.0109 -0.6155  0.8450
18180TIP3    H175955   5.882   6.548  13.952  0.5705 -0.8275  1.0156
18180TIP3    H275956   5.920   6.479  14.082 -0.1612 -0.2133  1.5658
18181TIP3   OH275957   4.530   5.952  15.290  0.1477  0.4949 -0.0779
18181TIP3    H175958   4.594   5.882  15.308  1.2001  0.9392 -1.8326
18181TIP3    H275959   4.520   5.997  15.374  0.1748 -1.1451  0.8568
18182TIP3   OH275960   3.011   2.264  16.376 -0.3996 -0.1455 -0.3576
18182TIP3    H175961   3.011   2.169  16.368 -0.8056 -0.1845  0.0543
18182TIP3    H275962   2.989   2.296  16.289  0.1258 -0.4161 -0.5966
18183TIP3   OH275963   0.142   5.418   0.803 -0.6103 -0.2403  0.4592
18183TIP3    H175964   0.115   5.477   0.874  0.3509 -0.0127  0.6457
18183TIP3    H275965   0.206   5.469   0.753 -1.5905 -0.2346 -0.8473
18184TIP3   OH275966   2.311   1.617   3.042 -0.7209 -0.4604 -0.2030
18184TIP3    H175967   2.243   1.678   3.070  0.0268 -0.9234  3.0691
18184TIP3    H275968   2.263   1.544   3.004 -2.0345 -0.3559  1.1515
18185TIP3   OH275969   3.061   1.947  12.388  0.4212  0.0968  0.9264
18185TIP3    H175970   3.138   1.920  12.337  0.5764  0.1764  1.1171
18185TIP3    H275971   3.053   1.881  12.457  0.7365  0.4697  1.3261
18186TIP3   OH275972   4.682   5.620   2.604 -0.2583 -0.2825  0.0063
18186TIP3    H175973   4.687   5.706   2.646  0.2282  0.4062 -1.4045
18186TIP3    H275974   4.747   5.567   2.651 -1.0543 -0.1232  1.3523
18187TIP3   OH275975   3.621   0.817   4.558 -0.0418 -0.3048  0.2899
18187TIP3    H175976   3.686   0.755   4.524  1.1743  0.5601  0.9583
18187TIP3    H275977   3.666   0.902   4.558 -2.1689  0.9662 -2.1154
18188TIP3   OH275978   2.425   0.487  11.761  0.4363  0.0802 -0.0598
18188TIP3    H175979   2.402   0.580  11.752  1.0174  0.0984 -1.6362
18188TIP3    H275980   2.371   0.456  11.835 -2.0354  0.9626 -1.3669
18189TIP3   OH275981   1.035   1.499  11.212 -0.6447 -0.6082 -0.7799
18189TIP3    H175982   0.952   1.499  11.165 -0.4595  0.1499 -1.1275
18189TIP3    H275983   1.101   1.493  11.142 -0.4046 -1.0448 -0.5191
18190TIP3   OH275984   2.431   6.020  16.216  0.1047  0.9208  0.0906
18190TIP3    H175985   2.377   6.050  16.289 -1.7747  0.9973 -1.2472
18190TIP3    H275986   2.436   5.925  16.227  1.2422  1.0959  1.2074
18191TIP3   OH275987   1.515   5.604   0.479 -0.7903  0.0340  0.3788
18191TIP3    H175988   1.537   5.681   0.426 -0.9307  1.3208  2.0924
18191TIP3    H275989   1.451   5.556   0.427  1.5680 -0.6309 -2.1164
18192TIP3   OH275990   4.801   3.773  16.856  0.1694  0.0560  0.2154
18192TIP3    H175991   4.864   3.834  16.818 -1.2606  1.5442  0.1349
18192TIP3    H275992   4.781   3.712  16.785  2.7805 -1.5773  0.7481
18193TIP3   OH275993   2.829   3.376  10.531 -0.2713  0.1699  0.3090
18193TIP3    H175994   2.763   3.327  10.483 -1.6214  0.5960  1.6504
18193TIP3    H275995   2.793   3.464  10.539  0.2102  0.2860  1.4983
18194TIP3   OH275996   2.973   4.065  16.735 -0.0035 -0.0104  0.1149
18194TIP3    H175997   2.912   4.135  16.758 -0.2658  0.4758 -1.8549
18194TIP3    H275998   2.997   4.025  16.819 -2.1818  0.4701  1.0399
18195TIP3   OH275999   0.374   4.326   3.978 -0.1020 -0.1465  0.6806
18195TIP3    H176000   0.451   4.367   4.017 -0.7351 -0.3665  2.2062
18195TIP3    H276001   0.375   4.236   4.010 -0.8813 -0.2119  0.5505
18196TIP3   OH276002   3.379   4.179  12.256 -0.4223 -0.4303 -0.1374
18196TIP3    H176003   3.287   4.154  12.255 -0.1922 -1.3542  0.0497
18196TIP3    H276004   3.389   4.233  12.334 -0.9832  0.4211 -0.6509
18197TIP3   OH276005   1.556   5.756   5.494  0.0206  0.8958  0.1313
18197TIP3    H176006   1.613   5.764   5.417  0.1380 -0.6742  0.0242
18197TIP3    H276007   1.488   5.821   5.479  0.7483  1.5078 -0.6640
18198TIP3   OH276008   1.978   0.616  15.631  0.1476 -0.0939  0.1664
18198TIP3    H176009   1.902   0.601  15.687  0.0955 -1.4318 -0.2231
18198TIP3    H276010   2.048   0.641  15.691 -0.4871  0.8130  0.5627
18199TIP3   OH276011   3.505   0.715  14.994  0.1464  0.1035  0.6790
18199TIP3    H176012   3.547   0.780  15.051 -1.4647  0.7996  1.1139
18199TIP3    H276013   3.563   0.709  14.918  0.0826  2.4663  0.3791
18200TIP3   OH276014   2.083   2.635  16.418 -0.8239  0.0640 -0.5576
18200TIP3    H176015   2.137   2.657  16.342 -1.8213 -0.1246 -1.3388
18200TIP3    H276016   2.112   2.696  16.486  0.3300 -0.0066 -0.9674
18201TIP3   OH276017   5.491   5.016   3.146  0.0603 -0.0800 -0.1763
18201TIP3    H176018   5.425   5.000   3.214 -0.8552  1.3452 -0.6793
18201TIP3    H276019   5.502   4.932   3.102 -1.0298 -0.4773  0.2752
18202TIP3   OH276020   3.682   5.078  12.183  0.3218 -0.3235  0.5777
18202TIP3    H176021   3.759   5.098  12.129 -1.0190  0.4503 -1.1129
18202TIP3    H276022   3.667   4.984  12.167  0.0183 -0.1338 -0.3141
18203TIP3   OH276023   0.217   1.701   1.799  0.3838 -0.0520 -0.4659
18203TIP3    H176024   0.152   1.769   1.781  0.1311 -0.0085  0.5325
18203TIP3    H276025   0.221   1.649   1.719 -0.2960  0.4293 -0.8182
18204TIP3   OH276026   2.990   1.434  11.053  0.3270  0.1600 -0.3366
18204TIP3    H176027   3.034   1.394  10.978 -1.0461 -0.4911 -0.8240
18204TIP3    H276028   2.998   1.528  11.038  2.7719  0.1459  0.3445
18205TIP3   OH276029   0.870   3.305  14.790  0.4875  0.5397  0.0737
18205TIP3    H176030   0.810   3.360  14.841  0.9434  0.7349  0.4099
18205TIP3    H276031   0.951   3.303  14.842  0.4727 -0.4725  0.0742
18206TIP3   OH276032   5.577   4.324   1.098 -0.7696  0.1024 -0.9402
18206TIP3    H176033   5.525   4.397   1.064 -2.7438 -2.0677 -2.9652
18206TIP3    H276034   5.666   4.342   1.067 -0.9087  2.2105 -0.3139
18207TIP3   OH276035   6.329   0.595   5.538 -0.0179  0.1258 -0.1307
18207TIP3    H176036   6.261   0.596   5.471 -0.3828  0.0285  0.2358
18207TIP3    H276037   6.329   0.683   5.574 -0.7285 -0.1772  0.6418
18208TIP3   OH276038   3.173   6.402  15.933  0.0156  0.3120 -0.1147
18208TIP3    H176039   3.189   6.487  15.891  0.6821 -0.4664 -1.4746
18208TIP3    H276040   3.114   6.357  15.873  0.0308 -0.3809  0.3824
18209TIP3   OH276041   1.431   0.936  16.250 -0.4367  0.2361  0.3703
18209TIP3    H176042   1.501   1.001  16.248  0.1632 -0.4043 -1.2969
18209TIP3    H276043   1.447   0.881  16.173 -3.0967  0.3959 -0.4090
18210TIP3   OH276044   1.916   0.275  13.444 -0.0971 -0.1712  0.3813
18210TIP3    H176045   1.955   0.345  13.496  0.1944 -0.5335  0.6457
18210TIP3    H276046   1.912   0.311  13.355 -1.9230  1.0159  0.8810
18211TIP3   OH276047   1.566   2.005   0.290  0.0160  0.3476 -0.0586
18211TIP3    H176048   1.566   1.911   0.307  0.8213  0.2646 -0.4840
18211TIP3    H276049   1.647   2.036   0.329 -0.8646  1.1040  1.2627
18212TIP3   OH276050   6.583   5.918  16.067 -0.6230 -0.0180  0.1313
18212TIP3    H176051   6.546   5.896  15.982 -1.0075  0.6457  0.1229
18212TIP3    H276052   6.598   5.833  16.109  1.7631 -0.4866 -1.4904
18213TIP3   OH276053   5.368   0.323   3.289  0.2560  0.2186 -0.4581
18213TIP3    H176054   5.447   0.340   3.340  0.0603 -0.7696  0.1812
18213TIP3    H276055   5.299   0.368   3.337  0.0671 -0.7335  0.1799
18214TIP3   OH276056   4.048   4.003   3.113 -0.1007  0.1778  0.2320
18214TIP3    H176057   4.087   3.992   3.027 -1.6606 -0.7682 -0.3810
18214TIP3    H276058   4.081   4.088   3.143  0.0613  0.7664 -1.5013
18215TIP3   OH276059   5.218   3.813   1.584  0.6543 -0.1439 -0.0799
18215TIP3    H176060   5.124   3.834   1.587  0.7852  0.8530 -1.8975
18215TIP3    H276061   5.223   3.725   1.622 -1.1711 -0.6818 -0.9417
18216TIP3   OH276062   4.418   0.727  16.607 -0.4021 -0.0366  0.1026
18216TIP3    H176063   4.391   0.768  16.689 -1.1711  0.5684 -0.4329
18216TIP3    H276064   4.514   0.726  16.610 -0.3981  0.7979  0.6180
18217TIP3   OH276065   1.477   1.437  13.119  0.1266 -0.2634  0.7538
18217TIP3    H176066   1.435   1.465  13.200 -0.8383  3.3468 -0.7928
18217TIP3    H276067   1.424   1.364  13.089 -4.7446  3.2489 -0.4490
18218TIP3   OH276068   0.645   4.873   3.169  0.4710  0.0023 -0.0330
18218TIP3    H176069   0.691   4.813   3.228  0.0710 -0.4492 -0.1760
18218TIP3    H276070   0.579   4.819   3.126  1.2404  0.1241 -1.4678
18219TIP3   OH276071   2.865   4.965   1.718  0.1955  0.1878 -0.3616
18219TIP3    H176072   2.913   5.048   1.718 -0.1446  0.5684  3.4745
18219TIP3    H276073   2.773   4.991   1.717  0.0740 -0.2483 -0.6654
18220TIP3   OH276074   5.031   5.425  13.375 -0.1566  0.1754 -0.1708
18220TIP3    H176075   4.946   5.443  13.416 -0.6417  0.0158 -1.0952
18220TIP3    H276076   5.019   5.451  13.284  0.7859  0.1301 -0.3097
18221TIP3   OH276077   5.935   6.133  11.628  0.5696 -0.0252  0.4703
18221TIP3    H176078   6.030   6.117  11.624  0.5831 -0.1017  0.9923
18221TIP3    H276079   5.917   6.193  11.556  0.0995 -4.3566 -3.5204
18222TIP3   OH276080   1.151   2.165   3.069  0.4190 -0.0513  0.8729
18222TIP3    H176081   1.139   2.240   3.128  0.5292 -0.8365  1.9224
18222TIP3    H276082   1.109   2.192   2.987  1.4320  1.5954  0.8400
18223TIP3   OH276083   5.316   2.278  15.794 -0.4360 -0.4901 -0.2250
18223TIP3    H176084   5.250   2.256  15.728 -1.4681 -0.1467  0.6590
18223TIP3    H276085   5.303   2.214  15.864 -1.0933  0.6887  0.7785
18224TIP3   OH276086   2.992   3.227   4.723 -0.2714 -0.1804  0.8146
18224TIP3    H176087   3.057   3.253   4.657  0.0634 -3.6922 -0.4271
18224TIP3    H276088   2.908   3.255   4.686  0.2233  1.9234  1.1402
18225TIP3   OH276089   0.950   1.974  12.852  0.0545 -1.1577 -0.2301
18225TIP3    H176090   0.931   2.008  12.765  0.5405 -0.7989 -0.2045
18225TIP3    H276091   0.880   2.010  12.907  0.8533  0.2729 -0.1053
18226TIP3   OH276092   0.114   0.355  12.454  0.0581  0.3757  0.0725
18226TIP3    H176093   0.150   0.289  12.514  1.5432  0.2032 -0.9625
18226TIP3    H276094   0.027   0.322  12.432 -0.2750  0.1322  1.6260
18227TIP3   OH276095   4.712   3.912   5.632  0.3223 -0.3976 -0.6182
18227TIP3    H176096   4.724   4.006   5.619 -1.1740 -0.1843 -0.6839
18227TIP3    H276097   4.666   3.905   5.715  0.5293 -1.0857 -0.5559
18228TIP3   OH276098   0.060   2.659   6.431 -0.2068  0.0733 -0.0333
18228TIP3    H176099   0.076   2.572   6.466  0.9347  0.7048  1.0931
18228TIP3    H276100  -0.031   2.678   6.455  0.2131  0.0601  1.7239
18229TIP3   OH276101   3.690   0.330   3.963  0.3201 -0.6065  0.0149
18229TIP3    H176102   3.714   0.254   3.910 -1.2548 -0.6237 -0.7001
18229TIP3    H276103   3.603   0.310   3.997  0.1760  0.5721  0.3951
18230TIP3   OH276104   3.305   6.226  11.881  0.4319  0.3778  0.6687
18230TIP3    H176105   3.288   6.308  11.835 -0.5701  0.8984  1.9393
18230TIP3    H276106   3.320   6.163  11.811  0.0654  1.3923 -0.3560
18231TIP3   OH276107   4.345   5.941   0.904 -0.3050  0.0578  0.0245
18231TIP3    H176108   4.410   6.008   0.886 -0.2466  0.0277  0.1267
18231TIP3    H276109   4.338   5.938   0.999  1.3538 -1.6444  0.1614
18232TIP3   OH276110   3.622   4.134  12.444 -0.4903 -0.2386 -0.7161
18232TIP3    H176111   3.551   4.071  12.436 -1.5867  0.6903  1.0379
18232TIP3    H276112   3.655   4.122  12.534 -0.2667  1.1790 -0.5814
18233TIP3   OH276113   4.283   4.962  11.927 -0.2176 -0.3571  0.2965
18233TIP3    H176114   4.282   4.907  11.849  2.3791 -2.2545  1.4518
18233TIP3    H276115   4.249   4.906  11.997 -0.7908  0.6975  0.8854
18234TIP3   OH276116   0.714   5.620  14.085  0.1305 -0.1664 -0.2459
18234TIP3    H176117   0.709   5.702  14.133  1.3279  0.3242 -0.9202
18234TIP3    H276118   0.804   5.589  14.100  0.7448  0.2941 -2.5864
18235TIP3   OH276119   0.240   3.926  16.415 -0.0717 -0.1284  0.4843
18235TIP3    H176120   0.315   3.970  16.375  1.1706 -2.4007  0.1416
18235TIP3    H276121   0.164   3.975  16.384  1.1740  1.3467 -0.3803
18236TIP3   OH276122   3.403   5.814   2.811 -0.5360 -0.0504  0.0055
18236TIP3    H176123   3.307   5.811   2.812 -0.6468 -0.9582  3.8367
18236TIP3    H276124   3.429   5.733   2.767 -1.5750 -0.5232  0.2396
18237TIP3   OH276125   4.807   5.416   0.358 -0.1428 -0.0145  0.1905
18237TIP3    H176126   4.720   5.405   0.395  0.5424 -0.8613  1.5910
18237TIP3    H276127   4.859   5.346   0.396  0.6880 -0.8127 -2.2124
18238TIP3   OH276128   1.523   0.583  13.274 -0.7984 -0.2618  0.9911
18238TIP3    H176129   1.488   0.530  13.203  0.7723 -0.5489  0.3868
18238TIP3    H276130   1.550   0.519  13.340  0.2331 -0.1764  0.6665
18239TIP3   OH276131   2.568   0.858  13.062  0.1834 -0.4445  0.0273
18239TIP3    H176132   2.536   0.948  13.060 -0.6189 -0.6902  1.1536
18239TIP3    H276133   2.663   0.867  13.073  0.5219  0.2727 -2.7603
18240TIP3   OH276134   2.400   5.802  12.641 -0.3170  0.3280  0.0130
18240TIP3    H176135   2.412   5.851  12.723  0.2738 -0.0970  0.1899
18240TIP3    H276136   2.430   5.713  12.661 -0.8683  0.0268 -0.4586
18241TIP3   OH276137   4.500   0.583   2.515  0.3224  0.4704  0.5564
18241TIP3    H176138   4.406   0.599   2.508 -0.1140 -0.6743  2.8576
18241TIP3    H276139   4.523   0.538   2.434 -1.4723 -0.7027  0.6520
18242TIP3   OH276140   5.060   6.230   2.076  0.0240 -0.3510  0.0656
18242TIP3    H176141   5.102   6.287   2.011  1.0793 -2.2165 -0.9609
18242TIP3    H276142   5.132   6.185   2.119 -0.7694 -0.5756  1.1965
18243TIP3   OH276143   2.085   6.371   2.058 -0.6495 -0.1064  0.4741
18243TIP3    H176144   2.012   6.368   2.121 -2.2377  0.4848 -1.2564
18243TIP3    H276145   2.077   6.457   2.017  1.1934  0.0516  0.3949
18244TIP3   OH276146   3.635   4.979   1.743  0.3222  0.4610 -0.0310
18244TIP3    H176147   3.591   4.895   1.757  1.6272 -0.3170 -0.4066
18244TIP3    H276148   3.725   4.965   1.773  1.0037  1.2102 -1.6062
18245TIP3   OH276149   5.269   5.638  12.006 -0.4199  0.1220 -0.0484
18245TIP3    H176150   5.278   5.671  12.096 -0.8878  0.4331 -0.1076
18245TIP3    H276151   5.221   5.708  11.961  0.2995  0.2099 -0.6809
18246TIP3   OH276152   0.197   0.341  16.568 -0.6499  0.1393 -0.2266
18246TIP3    H176153   0.199   0.370  16.477  1.5162 -1.0306 -0.6201
18246TIP3    H276154   0.224   0.249  16.565 -1.0251 -0.0774  1.5667
18247TIP3   OH276155   6.023   0.321   0.859 -0.6167  0.4866 -0.3118
18247TIP3    H176156   6.010   0.237   0.904  1.0095  0.5168  0.2857
18247TIP3    H276157   5.989   0.386   0.919 -0.2126  0.3805  0.0369
18248TIP3   OH276158   3.969   5.046   0.820  0.0287  0.1870 -0.3410
18248TIP3    H176159   3.968   5.115   0.754 -1.2021  1.2992  0.7642
18248TIP3    H276160   3.894   5.067   0.877  1.1508 -0.5782  1.5044
18249TIP3   OH276161   4.161   1.112  13.024  0.5965 -0.1863  0.0930
18249TIP3    H176162   4.139   1.182  13.086  0.4390 -0.0442 -0.1234
18249TIP3    H276163   4.080   1.062  13.014 -0.7158  2.2635 -3.2309
18250TIP3   OH276164   5.877   0.902  14.616 -0.4527 -0.5348  0.7671
18250TIP3    H176165   5.865   0.996  14.622 -1.3045 -0.6246  0.6443
18250TIP3    H276166   5.930   0.889  14.537 -3.2876 -0.3414 -1.3269
18251TIP3   OH276167   1.308   2.423   3.629  0.1543 -0.0908  0.4165
18251TIP3    H176168   1.329   2.395   3.539 -1.1071 -0.1720  0.1271
18251TIP3    H276169   1.295   2.518   3.622 -0.2798 -0.1462  0.4363
18252TIP3   OH276170   3.868   5.640   4.374  0.2846  0.1946  0.3326
18252TIP3    H176171   3.898   5.679   4.456  0.5330  1.5463 -0.3758
18252TIP3    H276172   3.888   5.706   4.307  0.0251 -0.8525 -0.8070
18253TIP3   OH276173   2.128   6.587  13.428 -0.0742 -0.3058 -0.4564
18253TIP3    H176174   2.108   6.680  13.427 -4.2403 -1.0008  0.5595
18253TIP3    H276175   2.097   6.555  13.343  1.5926 -0.8092 -0.9191
18254TIP3   OH276176   1.047   5.516   1.581  0.3906 -0.5248  0.6275
18254TIP3    H176177   0.968   5.542   1.535 -0.0954 -0.7647  1.3031
18254TIP3    H276178   1.100   5.470   1.515 -0.2211 -0.7305  0.2770
18255TIP3   OH276179   5.007   3.645  16.173  0.4322 -0.0075  0.3220
18255TIP3    H176180   5.018   3.586  16.098 -0.8402 -2.0040  1.6053
18255TIP3    H276181   4.919   3.625  16.205  1.0264  0.6167  2.4732
18256TIP3   OH276182   3.420   6.494  13.310  0.3999 -0.0193  0.0625
18256TIP3    H176183   3.490   6.552  13.279 -2.7396  3.3331 -1.5862
18256TIP3    H276184   3.366   6.550  13.366 -2.0714 -1.7981 -0.3806
18257TIP3   OH276185   5.954   4.675   3.218 -0.0426 -0.3544 -0.2652
18257TIP3    H176186   5.935   4.764   3.187  0.3761 -0.2272 -0.1762
18257TIP3    H276187   6.018   4.641   3.155 -1.1252 -1.0586 -1.0064
18258TIP3   OH276188   4.054   0.990  13.484 -0.4833 -0.0759 -0.6142
18258TIP3    H176189   4.109   0.920  13.448 -0.4334 -0.1656 -0.3678
18258TIP3    H276190   3.966   0.951  13.487 -0.4973 -0.0505 -0.6867
18259TIP3   OH276191   1.219   1.846  11.062 -0.1515  0.0633 -0.0302
18259TIP3    H176192   1.188   1.760  11.034  1.1034 -0.4608  0.1462
18259TIP3    H276193   1.240   1.892  10.981 -0.7262  0.1801 -0.1202
18260TIP3   OH276194   2.958   5.151   4.344 -0.1412 -0.1060  0.1120
18260TIP3    H176195   2.932   5.108   4.263  1.0275  1.2114 -1.0094
18260TIP3    H276196   3.034   5.102   4.374  0.7399  0.6827 -0.7705
18261TIP3   OH276197   1.772   3.185  11.041  0.2665  0.2162 -1.0342
18261TIP3    H176198   1.821   3.109  11.011 -0.1803 -1.0094  1.0954
18261TIP3    H276199   1.824   3.221  11.113  0.0571  1.4227 -1.4594
18262TIP3   OH276200   5.096   2.164  15.676  0.4798  0.2055 -0.1279
18262TIP3    H176201   5.034   2.161  15.749  1.6402  1.4511  0.9542
18262TIP3    H276202   5.071   2.089  15.621 -2.2173  0.8929  0.0207
18263TIP3   OH276203   4.942   1.160   0.429  0.1036  0.0877 -0.1053
18263TIP3    H176204   4.937   1.255   0.415 -0.0069 -0.0875 -1.3875
18263TIP3    H276205   4.975   1.126   0.346  0.9874 -0.9242  0.6292
18264TIP3   OH276206   1.957   1.815   5.231  0.1997 -0.7821  0.1495
18264TIP3    H176207   1.944   1.889   5.289 -0.8504 -1.5469  0.9458
18264TIP3    H276208   2.006   1.751   5.283  1.1727 -0.6220 -0.5552
18265TIP3   OH276209   6.538   1.685  12.418 -0.0140 -0.1272  0.2230
18265TIP3    H176210   6.515   1.594  12.436 -1.0111  0.3194  1.3174
18265TIP3    H276211   6.501   1.702  12.331 -1.4256 -0.2553  0.7742
18266TIP3   OH276212   2.409   2.579  13.566  0.6314  0.1306 -0.4860
18266TIP3    H176213   2.424   2.520  13.640  0.4525 -0.7181 -1.1154
18266TIP3    H276214   2.435   2.529  13.489  2.3725  1.5655 -0.8987
18267TIP3   OH276215   1.801   4.643  10.336  0.0843  0.5306 -0.2196
18267TIP3    H176216   1.782   4.591  10.258 -0.5629  1.0830 -0.4401
18267TIP3    H276217   1.836   4.580  10.399 -0.9757 -0.2409 -0.3707
18268TIP3   OH276218   3.749   5.128   0.995  0.1623 -0.0549 -0.3780
18268TIP3    H176219   3.731   5.180   1.073 -0.3489  0.7659 -1.0283
18268TIP3    H276220   3.669   5.078   0.980 -0.1100  0.5297 -0.9288
18269TIP3   OH276221   0.168   1.530  13.489 -0.1526 -0.1655  0.1036
18269TIP3    H176222   0.259   1.501  13.488 -0.0227  0.1627 -1.7095
18269TIP3    H276223   0.126   1.478  13.558  0.9080 -1.8931 -0.4997
18270TIP3   OH276224   3.493   4.146  14.616  0.1318  0.1275 -0.1821
18270TIP3    H176225   3.402   4.118  14.612 -0.2099  1.0492  0.7359
18270TIP3    H276226   3.489   4.234  14.653  1.4364 -0.0495  0.4307
18271TIP3   OH276227   6.657   5.349  13.101 -0.2481 -0.0772 -0.7990
18271TIP3    H176228   6.705   5.267  13.114 -1.4788 -0.4637  2.3199
18271TIP3    H276229   6.725   5.417  13.102  0.6192 -0.9117 -1.4890
18272TIP3   OH276230   4.522   3.165   0.587 -0.4152  0.2658 -0.3451
18272TIP3    H176231   4.583   3.207   0.648  1.8368 -0.6425 -1.8377
18272TIP3    H276232   4.456   3.125   0.643  1.2944 -0.1675  1.5012
18273TIP3   OH276233   3.084   1.320  15.337  0.1256  0.4311  0.1466
18273TIP3    H176234   3.058   1.255  15.402 -1.3126 -0.1620 -0.9560
18273TIP3    H276235   3.107   1.268  15.260 -0.9827  1.1988 -0.7300
18274TIP3   OH276236   6.692   4.911   4.731 -0.1311  0.2944 -0.1682
18274TIP3    H176237   6.751   4.866   4.791 -2.4354 -1.2667  1.0872
18274TIP3    H276238   6.675   4.995   4.774  0.2667  0.2679  0.0502
18275TIP3   OH276239   1.354   6.514   6.316  0.3462  0.4424  0.5881
18275TIP3    H176240   1.438   6.555   6.298  1.5322 -2.1423 -0.2668
18275TIP3    H276241   1.290   6.572   6.275  1.5845  2.8181  1.8488
18276TIP3   OH276242   4.530   4.038   4.399 -0.2619  0.2966 -0.0322
18276TIP3    H176243   4.569   4.072   4.480 -0.1803 -0.7655  0.4044
18276TIP3    H276244   4.583   3.960   4.379 -0.6468  0.2282 -0.7836
18277TIP3   OH276245   6.688   5.577  13.901 -0.0189  0.0333  0.6243
18277TIP3    H176246   6.700   5.499  13.848 -0.1990  2.0156 -2.5898
18277TIP3    H276247   6.594   5.594  13.899  0.3225  2.3209 -2.0823
18278TIP3   OH276248   6.020   6.342  12.277 -0.1436 -0.5410  0.3311
18278TIP3    H176249   6.066   6.259  12.290  1.0506 -0.1506 -1.0537
18278TIP3    H276250   6.078   6.392  12.218 -2.0580  0.2278 -0.9833
18279TIP3   OH276251   0.962   1.260  13.207 -0.4306 -0.5200 -0.3879
18279TIP3    H176252   0.904   1.276  13.133  0.9624 -2.4949 -2.0205
18279TIP3    H276253   0.918   1.193  13.258 -0.6345 -0.3558 -0.3479
18280TIP3   OH276254   2.195   5.772   4.199  0.3936 -0.9027  0.5036
18280TIP3    H176255   2.198   5.736   4.110 -1.8250  0.0182 -0.0189
18280TIP3    H276256   2.242   5.855   4.192 -1.0745 -0.0970 -0.2447
18281TIP3   OH276257   4.888   3.594   1.392 -0.2963  0.1903  0.1487
18281TIP3    H176258   4.803   3.637   1.393 -0.6034 -0.3904 -0.3166
18281TIP3    H276259   4.870   3.505   1.361  0.3137 -0.2985  1.1307
18282TIP3   OH276260   6.083   1.144  14.035 -0.0588 -0.0331  0.1154
18282TIP3    H176261   6.149   1.184  14.092  0.0498  0.7994 -0.5837
18282TIP3    H276262   6.130   1.072  13.993 -0.0399 -0.4289  0.7896
18283TIP3   OH276263   6.657   2.957   2.720  0.0571 -0.3951 -0.4858
18283TIP3    H176264   6.634   2.893   2.652  0.2116 -1.6513  0.6111
18283TIP3    H276265   6.729   2.917   2.768 -0.7052  0.0156  1.0471
18284TIP3   OH276266   1.159   0.641   2.303 -0.5447  0.0401  0.3527
18284TIP3    H176267   1.118   0.708   2.248  0.5413 -0.3496 -1.0067
18284TIP3    H276268   1.115   0.560   2.278 -1.0548  0.0766  1.1362
18285TIP3   OH276269   5.464   5.980   3.326  0.0294  0.0825  0.7531
18285TIP3    H176270   5.522   5.918   3.370  0.8995  0.1098 -0.3147
18285TIP3    H276271   5.520   6.055   3.306 -0.4156  0.1930 -0.1258
18286TIP3   OH276272   0.665   2.750   1.451  0.2025 -0.1568 -0.4296
18286TIP3    H176273   0.759   2.766   1.448  0.2395 -0.3435 -0.2681
18286TIP3    H276274   0.633   2.785   1.368  0.4169 -0.1090 -0.4944
18287TIP3   OH276275   6.066   2.046  11.823  0.2108  0.1049  0.6213
18287TIP3    H176276   6.063   1.988  11.899  1.7259 -1.0192 -0.1205
18287TIP3    H276277   6.146   2.096  11.834  0.1103  0.3949  0.0938
18288TIP3   OH276278   4.285   3.931  17.020  0.2963 -0.4594 -0.0264
18288TIP3    H176279   4.258   3.903  16.932 -2.6204 -1.0997  0.9784
18288TIP3    H276280   4.381   3.920  17.019  0.3212 -0.9977 -2.9013
18289TIP3   OH276281   4.111   6.498  13.180  0.1639 -0.2154  0.6952
18289TIP3    H176282   4.161   6.492  13.262 -2.2643 -0.1510  2.3041
18289TIP3    H276283   4.064   6.582  13.187 -0.5601 -0.4957 -0.4739
18290TIP3   OH276284   6.390   0.987   0.406 -0.5157  0.5542 -0.2380
18290TIP3    H176285   6.482   1.010   0.399 -0.5253  0.4308 -0.8296
18290TIP3    H276286   6.346   1.042   0.341 -0.4981 -1.2459 -1.8693
18291TIP3   OH276287   3.641   1.928   5.012 -0.0184 -0.3333  0.4373
18291TIP3    H176288   3.631   2.020   4.989 -2.1499 -1.2605 -3.1835
18291TIP3    H276289   3.707   1.895   4.951 -2.2527 -1.9394 -1.2682
18292TIP3   OH276290   0.928   2.749  12.908 -0.5769  0.2051 -0.3870
18292TIP3    H176291   0.861   2.804  12.948 -1.1885 -1.3793  0.9007
18292TIP3    H276292   1.006   2.804  12.904 -1.6137  1.7053 -0.8165
18293TIP3   OH276293   5.247   1.157   5.314 -0.0076  0.8312  0.2983
18293TIP3    H176294   5.276   1.116   5.395 -0.4330 -0.3441 -0.1275
18293TIP3    H276295   5.174   1.214   5.340 -1.7012 -1.2964  0.4755
18294TIP3   OH276296   2.189   6.259  14.205 -0.0111  0.1259 -0.4941
18294TIP3    H176297   2.185   6.220  14.291  0.7572  0.4410 -0.3057
18294TIP3    H276298   2.152   6.347  14.217  0.7486  0.4316 -0.3180
18295TIP3   OH276299   5.745   0.296   6.070  0.1582  0.1243  0.3009
18295TIP3    H176300   5.792   0.374   6.101 -0.1535 -0.6315  2.9665
18295TIP3    H276301   5.812   0.242   6.029  0.5795  1.3041 -0.6066
18296TIP3   OH276302   1.019   1.616   6.071  0.5903  0.2802  0.1204
18296TIP3    H176303   1.027   1.521   6.060  1.3099  0.4507 -0.9990
18296TIP3    H276304   0.928   1.629   6.099  0.3730 -0.7109 -0.0705
18297TIP3   OH276305   0.253   0.768  14.889  0.1896  0.0801  0.2183
18297TIP3    H176306   0.160   0.748  14.898  0.0307  0.8360  0.2965
18297TIP3    H276307   0.275   0.819  14.967  0.3747  0.9332 -0.3730
18298TIP3   OH276308   3.693   0.022  14.460 -0.6330 -0.4047  0.3386
18298TIP3    H176309   3.700  -0.071  14.482 -1.6886 -0.7017 -0.4717
18298TIP3    H276310   3.681   0.023  14.365 -0.5669  0.5706  0.3306
18299TIP3   OH276311   0.720   0.643  14.630  0.1799 -0.0006 -0.2142
18299TIP3    H176312   0.705   0.622  14.538  2.6847  2.6243 -1.3954
18299TIP3    H276313   0.635   0.671  14.663 -0.4837  0.5616 -2.2523
18300TIP3   OH276314   6.446   6.214  13.186  0.2898 -0.4861 -0.0096
18300TIP3    H176315   6.420   6.123  13.174 -0.0766 -0.7790  2.5372
18300TIP3    H276316   6.390   6.246  13.257  0.4916  1.7197 -0.7454
18301TIP3   OH276317   3.060   1.238   1.107 -0.4231  0.1584 -0.0024
18301TIP3    H176318   3.061   1.155   1.154 -0.6267 -0.7515 -1.5129
18301TIP3    H276319   3.055   1.213   1.014  1.6831  1.8167 -0.6550
18302TIP3   OH276320   4.962   2.451  14.392  0.0798 -0.0744  0.1643
18302TIP3    H176321   4.946   2.374  14.445 -2.0213 -1.2499 -1.9624
18302TIP3    H276322   5.007   2.418  14.314  1.6932  1.3355  0.4430
18303TIP3   OH276323   3.946   3.170   0.326  0.1183  0.2683 -0.2470
18303TIP3    H176324   3.979   3.182   0.237  2.4954  1.0586  0.6749
18303TIP3    H276325   3.964   3.078   0.346  1.6496  0.6460  0.1776
18304TIP3   OH276326   0.730   3.904   1.272  0.1156 -0.3749 -0.4295
18304TIP3    H176327   0.760   3.991   1.249 -0.6655 -0.5356 -2.2213
18304TIP3    H276328   0.740   3.899   1.368  3.4108  0.4074 -0.6065
18305TIP3   OH276329   2.311   2.348  13.961  0.6540 -0.4595 -0.3355
18305TIP3    H176330   2.318   2.280  14.027  0.4130  0.9322  1.2140
18305TIP3    H276331   2.217   2.366  13.956  0.7459  0.0349 -0.3848
18306TIP3   OH276332   0.400   0.050   0.382  0.5595  0.2141  0.1280
18306TIP3    H176333   0.495   0.048   0.365  0.5872 -0.9083  0.2918
18306TIP3    H276334   0.361   0.030   0.297  0.4810  0.4554  0.1084
18307TIP3   OH276335   0.611   3.536  16.547 -0.2787  0.5632  0.1485
18307TIP3    H176336   0.610   3.626  16.514 -2.3128 -0.1230 -1.9398
18307TIP3    H276337   0.635   3.483  16.471  1.3676 -0.6564  1.4677
18308TIP3   OH276338   3.602   6.591   5.115  0.3255 -0.4351 -0.3753
18308TIP3    H176339   3.680   6.579   5.062 -0.0763 -1.3099 -0.7956
18308TIP3    H276340   3.608   6.680   5.148  0.9325 -0.1089 -1.3328
18309TIP3   OH276341   1.455   4.594   3.923  0.0989  0.9152  1.0002
18309TIP3    H176342   1.405   4.629   3.997 -0.3828 -0.1506  1.2027
18309TIP3    H276343   1.409   4.514   3.899  0.2434  1.2549 -0.4839
18310TIP3   OH276344   0.443   2.072   4.647  0.1745  0.5398 -0.3667
18310TIP3    H176345   0.421   1.993   4.698  0.3867  0.9327  0.3566
18310TIP3    H276346   0.538   2.066   4.635  0.1948  0.6950 -0.2831
18311TIP3   OH276347   1.300   6.327  16.788  0.1098  0.5057 -0.0787
18311TIP3    H176348   1.304   6.232  16.788  0.9674  0.4889 -2.1736
18311TIP3    H276349   1.391   6.356  16.783 -0.1982  1.3353 -1.8005
18312TIP3   OH276350   6.612   1.923   0.109 -0.3453  0.9238  0.3503
18312TIP3    H176351   6.519   1.921   0.131 -0.3350 -3.6631  0.8856
18312TIP3    H276352   6.657   1.916   0.194  0.0783 -3.7494 -0.0207
18313TIP3   OH276353   2.381   4.624  14.643 -0.2825  0.4305  0.4995
18313TIP3    H176354   2.318   4.585  14.583 -0.0622  1.6030 -0.5393
18313TIP3    H276355   2.363   4.718  14.638  0.6342  0.6608  1.2480
18314TIP3   OH276356   2.279   2.414  15.857  0.4033  0.3477 -0.5382
18314TIP3    H176357   2.262   2.441  15.947  2.6492 -1.7022  0.5983
18314TIP3    H276358   2.297   2.497  15.811 -0.3678  1.3938  0.9521
18315TIP3   OH276359   2.709   3.657   3.594  0.3839 -0.1081 -0.3901
18315TIP3    H176360   2.802   3.647   3.572  0.4238 -1.4508  0.2903
18315TIP3    H276361   2.709   3.699   3.680  0.5452 -3.6050  1.4769
18316TIP3   OH276362   3.237   4.028  11.896 -0.1690 -0.1280  0.2742
18316TIP3    H176363   3.222   4.036  11.990 -0.2762  1.0498  0.1812
18316TIP3    H276364   3.193   4.105  11.859 -1.4057 -1.3245 -0.8958
18317TIP3   OH276365   6.408   6.568  10.490  0.4807  0.1129  0.1350
18317TIP3    H176366   6.376   6.504  10.426  1.1567 -2.1263  1.9070
18317TIP3    H276367   6.486   6.606  10.449 -0.6689  0.8268 -1.4896
18318TIP3   OH276368   0.088   4.278  16.532 -0.4061 -0.1569  0.5291
18318TIP3    H176369   0.162   4.261  16.473  0.7783 -1.2578  2.2459
18318TIP3    H276370   0.024   4.322  16.477  0.9557 -0.4200 -1.3837
18319TIP3   OH276371   3.736   4.477  10.490  0.7155  0.1607 -0.2420
18319TIP3    H176372   3.814   4.479  10.434  1.3240  2.9564  0.5468
18319TIP3    H276373   3.691   4.559  10.470 -3.1117 -2.0912 -1.9579
18320TIP3   OH276374   6.017   1.134  13.354  0.3244 -0.0543 -0.4157
18320TIP3    H176375   6.042   1.205  13.413  0.1692 -0.9726  0.7966
18320TIP3    H276376   6.058   1.157  13.271 -0.6542  2.0190 -0.3870
18321TIP3   OH276377   5.636   5.518  14.591  0.2053  0.6049 -0.3577
18321TIP3    H176378   5.674   5.459  14.656 -0.0902  1.7296  0.8959
18321TIP3    H276379   5.624   5.601  14.638 -1.4235  1.0296 -1.4109
18322TIP3   OH276380   2.600   6.244   2.248  0.1051 -0.9690  0.5212
18322TIP3    H176381   2.691   6.215   2.259  0.2050 -1.5485 -1.3536
18322TIP3    H276382   2.548   6.167   2.268  0.0065 -0.6309  1.6154
18323TIP3   OH276383   2.437   1.862  10.571 -0.2822 -0.0853 -0.4430
18323TIP3    H176384   2.385   1.788  10.541 -0.7956  0.1601 -0.1789
18323TIP3    H276385   2.379   1.938  10.560 -0.3725  0.0535  0.8178
18324TIP3   OH276386   5.382   3.328  13.193 -0.4133  0.2841 -0.5018
18324TIP3    H176387   5.432   3.247  13.203  0.3706  0.8651  0.4166
18324TIP3    H276388   5.443   3.389  13.151  0.2831  1.4980  2.0459
18325TIP3   OH276389   3.283   1.117  14.920  0.1830 -0.4496 -0.0972
18325TIP3    H176390   3.201   1.085  14.885 -1.1028  1.6024  0.8271
18325TIP3    H276391   3.278   1.099  15.014  1.3994 -1.4656 -0.1927
18326TIP3   OH276392   2.688   4.261  14.506  0.2900 -0.2351 -0.0637
18326TIP3    H176393   2.621   4.194  14.519 -2.7038  2.8874  2.8170
18326TIP3    H276394   2.725   4.276  14.593 -0.6289  3.0391 -0.0766
18327TIP3   OH276395   2.480   2.780  16.636  0.1031 -0.3396 -0.1235
18327TIP3    H176396   2.570   2.775  16.602 -0.1963 -1.1033 -0.8294
18327TIP3    H276397   2.449   2.866  16.608  0.6043 -0.0871  0.0903
18328TIP3   OH276398   3.748   4.209   0.946  0.4748  0.6911  0.2947
18328TIP3    H176399   3.665   4.161   0.939  1.3707 -1.3330  2.1818
18328TIP3    H276400   3.788   4.199   0.860  0.3702 -1.6439  0.4320
18329TIP3   OH276401   5.542   4.090  10.945 -0.5264 -0.2452 -0.2475
18329TIP3    H176402   5.462   4.041  10.924 -1.8314  1.0635  1.4450
18329TIP3    H276403   5.572   4.124  10.860 -1.1520 -1.6066 -1.0539
18330TIP3   OH276404   0.512   2.218  10.782  0.1948 -0.5828 -0.4204
18330TIP3    H176405   0.505   2.314  10.779  1.8534 -0.4268 -0.5107
18330TIP3    H276406   0.462   2.188  10.706 -1.8900  0.0553  0.6198
18331TIP3   OH276407   6.613   5.944  12.726  0.4657  0.3395  0.4873
18331TIP3    H176408   6.544   5.922  12.789 -1.1321  0.5389 -1.1233
18331TIP3    H276409   6.602   5.880  12.656  0.6389  1.5939 -0.7139
18332TIP3   OH276410   6.057   4.300   2.487 -0.4855  0.0312 -0.7244
18332TIP3    H176411   6.061   4.379   2.541 -0.1134  0.4824 -1.4044
18332TIP3    H276412   5.978   4.311   2.434 -1.5197 -0.9658  0.5521
18333TIP3   OH276413   3.168   6.391  16.544  0.2593  0.0774  0.2112
18333TIP3    H176414   3.193   6.374  16.453  0.3254  1.4975 -0.0494
18333TIP3    H276415   3.250   6.382  16.593  0.6818  1.5409 -0.1977
18334TIP3   OH276416   6.600   2.193  12.959  0.0579 -0.1485 -0.0806
18334TIP3    H176417   6.654   2.167  12.884  1.4393  2.5074 -0.1011
18334TIP3    H276418   6.595   2.114  13.013  0.8722 -1.4921 -1.8678
18335TIP3   OH276419   0.163   4.749   3.467 -0.1519 -0.1993  0.2493
18335TIP3    H176420   0.166   4.817   3.399  1.0737 -0.0048  0.4617
18335TIP3    H276421   0.169   4.797   3.549 -2.5388 -0.3767  0.5720
18336TIP3   OH276422   1.917   6.611  12.562 -0.3236 -0.0217 -0.1272
18336TIP3    H176423   1.898   6.675  12.494  0.3927 -1.4728 -1.7952
18336TIP3    H276424   1.835   6.564  12.575 -0.5280  0.4242  0.1948
18337TIP3   OH276425   5.097   5.343  10.936  0.6927 -0.4381  0.1404
18337TIP3    H176426   5.171   5.292  10.903  2.2447  0.1758  2.3566
18337TIP3    H276427   5.032   5.278  10.962  0.6053 -1.0173 -1.4370
18338TIP3   OH276428   5.675   6.092   0.287  0.2397 -0.2702 -0.1739
18338TIP3    H176429   5.744   6.150   0.254  0.5764 -0.6149 -0.0774
18338TIP3    H276430   5.709   6.061   0.371 -0.5445  0.4892  0.4331
18339TIP3   OH276431   1.483   3.588   6.651  0.6747 -0.0356 -0.7828
18339TIP3    H176432   1.429   3.641   6.593  1.1370  0.7833 -0.4804
18339TIP3    H276433   1.498   3.507   6.602 -1.9786 -0.8860 -0.3057
18340TIP3   OH276434   0.016   4.373   0.450  0.3587 -0.4782  0.5984
18340TIP3    H176435   0.013   4.339   0.360 -1.3536 -0.9917  0.7998
18340TIP3    H276436   0.101   4.416   0.457 -0.5215  2.1447 -2.2398
18341TIP3   OH276437   0.997   3.849   1.097  0.3989  0.0280 -0.6003
18341TIP3    H176438   1.041   3.928   1.130  1.7407 -0.6799 -0.5988
18341TIP3    H276439   1.031   3.839   1.008 -2.9281  1.7321 -2.2602
18342TIP3   OH276440   3.612   6.778  11.339  0.6041 -0.4330  0.2480
18342TIP3    H176441   3.684   6.749  11.394  0.6712 -0.7903 -0.0267
18342TIP3    H276442   3.534   6.739  11.380  0.7609 -1.5509 -0.4879
18343TIP3   OH276443   2.899   6.293  12.901  0.3279 -0.4060 -0.5071
18343TIP3    H176444   2.816   6.248  12.882 -0.8363  1.6055 -0.4166
18343TIP3    H276445   2.909   6.356  12.830  0.8337  0.6323  0.4637
18344TIP3   OH276446   2.436   6.248   1.859 -0.0743  0.1274  0.4463
18344TIP3    H176447   2.393   6.310   1.800 -1.3950 -1.9145 -0.8448
18344TIP3    H276448   2.410   6.277   1.947 -1.5217  0.8155 -0.1679
18345TIP3   OH276449   5.573   4.291  15.332  0.1132  0.5731 -0.1208
18345TIP3    H176450   5.504   4.321  15.272  0.5539  1.2760 -0.2872
18345TIP3    H276451   5.584   4.364  15.393 -0.4028 -0.1791  0.8947
18346TIP3   OH276452   4.274   6.551  16.750  0.0655 -0.5314 -0.0085
18346TIP3    H176453   4.304   6.531  16.839  0.4492  0.5771  0.1316
18346TIP3    H276454   4.255   6.466  16.711 -0.2662 -1.0259  1.1864
18347TIP3   OH276455   5.136   3.015  12.039  0.0488 -0.4171  0.3532
18347TIP3    H176456   5.098   3.100  12.016  0.2662 -0.5292 -0.4233
18347TIP3    H276457   5.148   3.020  12.134 -0.5938  0.1536  0.4095
18348TIP3   OH276458   1.893   2.973  13.348  0.6722  0.6682  0.0990
18348TIP3    H176459   1.887   3.066  13.330  2.0891  0.8241  0.2963
18348TIP3    H276460   1.966   2.943  13.293  1.8092  0.1720  1.8172
18349TIP3   OH276461   1.304   3.094  12.825  0.4255 -0.4271 -0.3658
18349TIP3    H176462   1.266   3.176  12.793 -3.1603 -1.5295  0.5412
18349TIP3    H276463   1.398   3.112  12.832  0.0872  2.8889 -2.1173
18350TIP3   OH276464   2.822   5.564   5.873  0.0687 -0.0877 -0.1316
18350TIP3    H176465   2.753   5.507   5.905 -0.0319 -0.9316 -1.7482
18350TIP3    H276466   2.839   5.624   5.946 -1.4128 -0.7098  0.7778
18351TIP3   OH276467   1.883   4.817   0.975 -0.1422 -0.0379  0.5812
18351TIP3    H176468   1.949   4.795   1.041  0.1661  1.2788  0.7236
18351TIP3    H276469   1.808   4.762   0.998  0.2924 -0.2889  1.4630
18352TIP3   OH276470   1.633   2.462   1.379 -0.2623 -0.0344  0.6248
18352TIP3    H176471   1.612   2.391   1.439  0.5220 -0.3390  0.5402
18352TIP3    H276472   1.601   2.432   1.294 -0.4552 -0.0297  0.6935
18353TIP3   OH276473   3.222   0.665  10.552  0.0539 -0.0595  0.6459
18353TIP3    H176474   3.197   0.577  10.525  1.9313 -0.1881 -0.9412
18353TIP3    H276475   3.166   0.723  10.501  0.4642 -0.3396 -0.1344
18354TIP3   OH276476   1.067   0.739  12.344 -0.8905 -0.1638  0.0648
18354TIP3    H176477   1.012   0.795  12.399  2.1357  1.6385  1.5196
18354TIP3    H276478   1.115   0.684  12.407 -0.5382 -1.2404 -1.1000
18355TIP3   OH276479   1.310   1.903  16.401 -0.3087  0.0799  0.6427
18355TIP3    H176480   1.358   1.836  16.352  1.5832  0.2036  2.2131
18355TIP3    H276481   1.315   1.981  16.345 -0.0441 -0.3386  0.0708
18356TIP3   OH276482   1.067   1.294  16.819  0.7945 -0.2716  0.0107
18356TIP3    H176483   0.994   1.304  16.758 -0.4438  0.5739  1.5418
18356TIP3    H276484   1.134   1.248  16.769  0.6945  2.1717 -2.6596
18357TIP3   OH276485   2.050   2.292  12.131 -0.1274  0.3318 -0.4746
18357TIP3    H176486   1.999   2.266  12.055  1.0733 -0.6896 -0.9719
18357TIP3    H276487   1.994   2.271  12.206 -0.8441  0.2445 -1.0260
18358TIP3   OH276488   1.569   5.148   6.271 -0.2114 -0.1788  0.2493
18358TIP3    H176489   1.652   5.114   6.238  0.1833 -0.1496  1.1765
18358TIP3    H276490   1.538   5.207   6.202  0.1687 -0.7503 -0.4193
18359TIP3   OH276491   2.900   6.251   4.944  0.0677 -0.3899  0.3728
18359TIP3    H176492   2.909   6.156   4.944  0.5543 -0.3594 -0.9555
18359TIP3    H276493   2.841   6.269   4.871  0.3935  0.3641  0.2921
18360TIP3   OH276494   2.510   6.421  17.043  0.3902 -0.3758  0.4888
18360TIP3    H176495   2.562   6.409  17.123  2.0529  1.6486 -0.1911
18360TIP3    H276496   2.560   6.377  16.975  0.5976  0.4925  0.0572
18361TIP3   OH276497   3.925   0.479  11.485  0.0745 -0.9201  0.0337
18361TIP3    H176498   3.961   0.447  11.568  4.7578  1.7583 -0.6269
18361TIP3    H276499   3.987   0.448  11.419 -0.7144  1.1285 -1.7842
18362TIP3   OH276500   4.442   2.428   0.849  0.1202 -0.0421 -0.3868
18362TIP3    H176501   4.407   2.387   0.771 -1.9579  0.1375  0.3687
18362TIP3    H276502   4.535   2.438   0.832 -0.2101 -0.3169 -2.6795
18363TIP3   OH276503   5.274   6.325  13.643  0.4525 -0.3855  0.2155
18363TIP3    H176504   5.227   6.275  13.710 -0.5379 -1.3249 -1.1282
18363TIP3    H276505   5.218   6.400  13.627 -0.9537 -1.7694 -1.7586
18364TIP3   OH276506   0.739   0.574  15.726  0.1434 -0.1917  0.5846
18364TIP3    H176507   0.727   0.479  15.720  0.3409 -0.2531  1.1134
18364TIP3    H276508   0.782   0.598  15.644 -1.4918 -0.2916 -0.3397
18365TIP3   OH276509   2.764   2.279   1.503  0.3578 -0.2185  0.0502
18365TIP3    H176510   2.707   2.356   1.502  1.2381  0.4551  0.1072
18365TIP3    H276511   2.843   2.309   1.548  1.4611 -0.6036 -1.5640
18366TIP3   OH276512   0.442   0.782   5.290  0.5931  0.1584  0.5412
18366TIP3    H176513   0.450   0.704   5.346 -0.4973  0.3428  0.9762
18366TIP3    H276514   0.456   0.855   5.349 -0.1998  0.3448  0.5073
18367TIP3   OH276515   3.410   0.191  13.821 -0.2453  0.0633 -0.4215
18367TIP3    H176516   3.414   0.155  13.910 -1.5240 -0.5571 -0.5901
18367TIP3    H276517   3.438   0.118  13.765  3.0159  1.1528 -0.4568
18368TIP3   OH276518   4.522   2.783   5.592  0.3259 -0.6629 -0.6980
18368TIP3    H176519   4.501   2.705   5.644 -0.2727  0.2419  0.4571
18368TIP3    H276520   4.441   2.805   5.547  0.6813 -1.0866 -1.5816
18369TIP3   OH276521   1.994   0.652   2.585 -0.0737 -0.2988  0.1421
18369TIP3    H176522   1.985   0.574   2.641  1.1465 -0.5707 -0.0032
18369TIP3    H276523   1.905   0.675   2.562 -0.5843 -0.5348  1.7246
18370TIP3   OH276524   2.324   3.741  16.997 -0.0546  0.3724  0.0694
18370TIP3    H176525   2.301   3.777  16.911  3.0699  3.2757  0.2257
18370TIP3    H276526   2.407   3.694  16.982  1.4269  2.2992  1.6107
18371TIP3   OH276527   0.677   0.304  16.729  0.4918 -0.4712  0.2221
18371TIP3    H176528   0.608   0.297  16.795 -0.0522  1.2814 -0.1216
18371TIP3    H276529   0.632   0.334  16.650  1.3567 -1.2303 -0.5929
18372TIP3   OH276530   4.714   2.287   5.862 -0.1200 -0.0528 -0.0540
18372TIP3    H176531   4.728   2.336   5.943 -0.5762 -1.1572  0.7156
18372TIP3    H276532   4.628   2.246   5.873  0.1668 -0.8841 -0.7482
18373TIP3   OH276533   3.686   4.366   0.720 -0.4922  0.4606 -0.1444
18373TIP3    H176534   3.688   4.331   0.809 -0.2291 -0.8098 -0.6360
18373TIP3    H276535   3.608   4.422   0.718 -1.7362 -1.1911  0.2686
18374TIP3   OH276536   3.356   2.378  12.548 -0.3206 -0.4721 -0.4834
18374TIP3    H176537   3.323   2.398  12.636 -0.6063 -0.3998 -0.6035
18374TIP3    H276538   3.281   2.337  12.503 -0.7634  1.0874 -1.2518
18375TIP3   OH276539   4.246   6.309   5.765  0.1567  0.1499  0.0584
18375TIP3    H176540   4.290   6.332   5.847  0.1443 -0.9149  0.3831
18375TIP3    H276541   4.157   6.344   5.776  0.2986  0.4509  0.2868
18376TIP3   OH276542   2.923   4.762  13.272 -0.1568 -0.4730  0.2821
18376TIP3    H176543   2.834   4.744  13.245 -0.1244  0.6317 -0.6526
18376TIP3    H276544   2.977   4.736  13.198  0.3970 -1.8812  1.1401
18377TIP3   OH276545   1.679   4.967   4.570  0.0023 -0.7033  0.1917
18377TIP3    H176546   1.658   4.915   4.647  2.4364 -2.5667 -0.2846
18377TIP3    H276547   1.618   4.937   4.503 -0.7305 -0.5992  0.8021
18378TIP3   OH276548   4.464   2.709  10.983  0.0763  0.5542  0.4793
18378TIP3    H176549   4.384   2.678  10.942 -1.3486  2.8251  1.3160
18378TIP3    H276550   4.479   2.796  10.945  1.6006  0.5782  1.0344
18379TIP3   OH276551   0.293   0.087  14.291  0.2152  0.5933  0.4892
18379TIP3    H176552   0.250   0.106  14.208  2.2186 -0.9647 -1.0293
18379TIP3    H276553   0.228   0.040  14.343 -0.0742 -1.5889 -1.6629
18380TIP3   OH276554   6.518   5.148  15.209 -0.5908 -0.2547  0.5581
18380TIP3    H176555   6.440   5.097  15.231 -1.3623  1.5237  2.2385
18380TIP3    H276556   6.517   5.221  15.270  0.0744  2.2192 -2.1833
18381TIP3   OH276557   3.784   3.622  14.259  0.5037 -0.0268 -0.0261
18381TIP3    H176558   3.785   3.537  14.214 -1.0693 -0.2158  0.2477
18381TIP3    H276559   3.866   3.623  14.309  1.2590 -0.7235 -1.1984
18382TIP3   OH276560   2.343   1.520   5.907 -1.0597 -0.4541  0.1397
18382TIP3    H176561   2.346   1.474   5.991  0.8180 -1.3468 -0.3510
18382TIP3    H276562   2.369   1.610   5.928  0.7149 -0.9807  0.3874
18383TIP3   OH276563   2.476   0.854   4.458 -0.5674 -0.0607  0.2184
18383TIP3    H176564   2.438   0.855   4.370  0.1202  0.7181 -0.0847
18383TIP3    H276565   2.408   0.891   4.514 -2.0253 -2.9028  0.4955
18384TIP3   OH276566   6.163   6.083   3.032  0.2969  0.3096 -0.2063
18384TIP3    H176567   6.163   6.156   3.092  1.6325 -0.8864  1.3444
18384TIP3    H276568   6.234   6.026   3.062 -0.0558 -1.1668 -1.9115
18385TIP3   OH276569   2.593   3.814  12.918  0.1311  0.3373  0.0456
18385TIP3    H176570   2.653   3.866  12.865 -1.0700  0.3760 -1.3418
18385TIP3    H276571   2.505   3.841  12.889 -0.5624  0.0206  1.7485
18386TIP3   OH276572   4.992   0.216   0.086  0.1021 -0.0409 -0.0919
18386TIP3    H176573   5.084   0.242   0.092 -0.4982  2.5662 -1.0160
18386TIP3    H276574   4.951   0.285   0.034 -2.4972 -0.8696  0.7373
18387TIP3   OH276575   4.878   3.801   3.824  0.0595 -0.4070  0.6915
18387TIP3    H176576   4.835   3.883   3.849  0.9534 -0.1516  1.4604
18387TIP3    H276577   4.835   3.734   3.876 -0.5652 -0.4144  0.1801
18388TIP3   OH276578   0.777   4.157  12.244  0.7404  0.1534 -0.3497
18388TIP3    H176579   0.708   4.219  12.219 -0.8040 -1.2432  0.3210
18388TIP3    H276580   0.746   4.072  12.212  1.1916 -0.8268  1.6804
18389TIP3   OH276581   5.505   1.619  14.232  0.2614  0.1047  0.3702
18389TIP3    H176582   5.530   1.607  14.324  2.6147 -0.8031 -0.3243
18389TIP3    H276583   5.535   1.707  14.211 -0.0762  0.2294  0.4123
18390TIP3   OH276584   1.402   4.558  16.609 -0.1940 -0.5630  0.2546
18390TIP3    H176585   1.333   4.623  16.600 -0.3717 -0.7363  0.3464
18390TIP3    H276586   1.415   4.549  16.703 -0.9551 -1.4631  0.2967
18391TIP3   OH276587   1.262   2.950   5.325  0.4802 -0.3288 -0.1132
18391TIP3    H176588   1.222   2.863   5.323 -2.7480  1.0013 -2.2865
18391TIP3    H276589   1.301   2.960   5.239 -2.1168  1.4514 -1.2023
18392TIP3   OH276590   4.955   2.655   2.586  0.4617 -0.4675 -0.0347
18392TIP3    H176591   4.950   2.570   2.629  1.0201  0.1569  1.3305
18392TIP3    H276592   4.929   2.638   2.495  2.2924 -2.4134 -0.2629
18393TIP3   OH276593   4.025   6.344   2.992  0.0941  0.1148 -0.1480
18393TIP3    H176594   4.051   6.364   3.082 -0.5413 -2.7028  0.7668
18393TIP3    H276595   4.041   6.425   2.944  2.4575  1.0776  2.0453
18394TIP3   OH276596   1.192   2.718  11.440 -0.1301 -0.3199  0.2916
18394TIP3    H176597   1.177   2.812  11.433  2.1025  0.0904  0.2082
18394TIP3    H276598   1.133   2.679  11.376  1.0396  1.2885 -1.8868
18395TIP3   OH276599   5.148   6.167  13.822  0.5553 -0.5209 -0.2468
18395TIP3    H176600   5.187   6.222  13.890  0.5210 -1.7566  0.8168
18395TIP3    H276601   5.095   6.103  13.871  1.3364 -2.0760 -1.3568
18396TIP3   OH276602   0.014   6.014   0.542 -0.0404 -0.3135 -0.4615
18396TIP3    H176603   0.014   6.105   0.513 -0.7250  0.2905  1.3266
18396TIP3    H276604   0.036   5.964   0.463  1.6378  1.4669 -1.2055
18397TIP3   OH276605   3.640   0.491  14.278 -0.2366  0.0198 -0.4523
18397TIP3    H176606   3.567   0.457  14.329  0.6880 -0.5472  0.5225
18397TIP3    H276607   3.629   0.586  14.280 -0.7801 -0.0460 -0.0851
18398TIP3   OH276608   3.853   5.229   5.269 -0.1198 -0.7040 -0.3338
18398TIP3    H176609   3.809   5.313   5.261  0.9512  0.0669  1.5247
18398TIP3    H276610   3.940   5.243   5.231  0.1559 -0.8799  0.2176
18399TIP3   OH276611   0.645   0.495  10.875  0.5629 -0.3164 -0.1943
18399TIP3    H176612   0.623   0.515  10.966  0.1632 -1.4807 -0.0133
18399TIP3    H276613   0.740   0.480  10.876  0.7111  0.5959 -0.1586
18400TIP3   OH276614   3.253   2.508   0.632 -0.0739 -0.0169 -0.1775
18400TIP3    H176615   3.236   2.570   0.561 -0.8623 -0.4007 -0.3317
18400TIP3    H276616   3.289   2.431   0.589  3.0928  1.1055  0.2265
18401TIP3   OH276617   3.744   6.682  11.933  0.5280 -0.4187  0.0825
18401TIP3    H176618   3.751   6.589  11.912 -1.5950 -0.2262 -1.8253
18401TIP3    H276619   3.687   6.718  11.865 -0.4673  1.8811  2.0037
18402TIP3   OH276620   0.255   3.250  16.676  0.3616  0.1541  0.6741
18402TIP3    H176621   0.223   3.276  16.762  2.1779  3.3486  0.5194
18402TIP3    H276622   0.338   3.206  16.693  0.2980 -0.0035  0.5821
18403TIP3   OH276623   0.445   2.707  16.851  0.1102 -0.4946  0.0103
18403TIP3    H176624   0.489   2.691  16.767  0.1757 -0.9884  0.1373
18403TIP3    H276625   0.367   2.652  16.848  0.0061 -0.3557  0.1902
18404TIP3   OH276626   3.128   2.404  15.538 -0.2758 -0.6027 -0.1761
18404TIP3    H176627   3.050   2.457  15.523  0.5137  0.3959 -0.9587
18404TIP3    H276628   3.157   2.379  15.451  1.7568  1.3151 -0.1526
18405TIP3   OH276629   3.895   6.583  16.591 -0.2987 -0.0173  0.0581
18405TIP3    H176630   3.973   6.573  16.536  0.2415  1.2597  0.5583
18405TIP3    H276631   3.902   6.513  16.655  0.6404  0.2811  0.3064
18406TIP3   OH276632   4.498   1.101   1.091  0.2575  0.3510  0.8041
18406TIP3    H176633   4.442   1.024   1.085  1.3866 -0.3792 -1.5302
18406TIP3    H276634   4.583   1.071   1.058  0.5818  2.7241 -0.7394
18407TIP3   OH276635   0.291   5.929  12.030  0.0117 -0.4451  0.1573
18407TIP3    H176636   0.279   6.014  12.073 -2.3719 -0.8320  0.3855
18407TIP3    H276637   0.270   5.865  12.098 -1.4506 -1.1213 -0.8857
18408TIP3   OH276638   1.319   0.897  15.069  0.1632  0.4317  0.6230
18408TIP3    H176639   1.323   0.801  15.065 -1.0154  0.4152 -0.5689
18408TIP3    H276640   1.367   0.919  15.149  1.2668 -1.0902  0.4327
18409TIP3   OH276641   5.141   5.907  15.773  0.2439 -0.0648  0.3140
18409TIP3    H176642   5.203   5.977  15.749  0.5697 -0.6260 -0.5007
18409TIP3    H276643   5.055   5.950  15.771  0.2308 -0.0486 -1.9068
18410TIP3   OH276644   2.751   5.366   0.154 -0.4847  0.5385  0.3665
18410TIP3    H176645   2.770   5.294   0.095  1.8587  1.2845  0.0992
18410TIP3    H276646   2.682   5.333   0.211  0.0616 -1.6652 -0.1671
18411TIP3   OH276647   1.904   5.340   1.628 -0.3425 -0.6235  0.3368
18411TIP3    H176648   1.845   5.290   1.571 -0.6787  1.0681 -0.9065
18411TIP3    H276649   1.871   5.325   1.716 -2.8358  0.3988 -0.3297
18412TIP3   OH276650   1.749   5.018  12.949  0.1533 -0.5433 -0.5129
18412TIP3    H176651   1.691   5.093  12.956  0.7454 -0.1529  0.4307
18412TIP3    H276652   1.795   5.030  12.866  0.7628  0.5245 -0.0334
18413TIP3   OH276653   6.225   0.249   2.352  0.1084 -0.3515  0.2817
18413TIP3    H176654   6.302   0.206   2.315 -0.2381 -2.0207  1.3742
18413TIP3    H276655   6.258   0.330   2.390  1.7925 -1.9595  2.5190
18414TIP3   OH276656   3.277   2.453  12.030 -0.7815  0.6266  0.2617
18414TIP3    H176657   3.258   2.363  12.004  1.0986 -0.1464  1.3548
18414TIP3    H276658   3.315   2.445  12.118 -0.6748  2.5055  0.4345
18415TIP3   OH276659   6.077   5.982  13.909  0.3972  0.4844  0.0947
18415TIP3    H176660   6.063   6.055  13.848 -0.0915  1.3262  1.1796
18415TIP3    H276661   6.122   6.021  13.983  0.7372 -0.4719  0.4031
18416TIP3   OH276662   3.249   2.366   3.587 -0.0593  0.2962  0.2339
18416TIP3    H176663   3.345   2.366   3.594 -0.1475 -0.7265  2.3538
18416TIP3    H276664   3.231   2.339   3.497  1.6228  0.6925 -0.2569
18417TIP3   OH276665   2.818   3.838  16.648  0.0053 -0.3173 -0.5758
18417TIP3    H176666   2.794   3.827  16.740 -0.3863 -0.3729 -0.6842
18417TIP3    H276667   2.899   3.889  16.650 -0.1604 -0.0622 -0.2070
18418TIP3   OH276668   2.985   6.452  11.276  0.4550 -0.2321 -0.7597
18418TIP3    H176669   2.983   6.409  11.191  1.4504 -0.5648 -0.6331
18418TIP3    H276670   3.044   6.398  11.329 -0.8519 -0.5452  0.4347
18419TIP3   OH276671   6.521   1.780   5.441 -0.3304  0.0580  0.8298
18419TIP3    H176672   6.539   1.699   5.394 -0.7113  0.7531 -0.5329
18419TIP3    H276673   6.605   1.802   5.483 -0.0364 -0.6554  0.6209
18420TIP3   OH276674   4.543   6.542  13.569  0.4088 -0.3404  0.0440
18420TIP3    H176675   4.464   6.580  13.531  0.4017  0.3074  0.6850
18420TIP3    H276676   4.582   6.491  13.498 -0.8394 -1.0891 -0.1499
18421TIP3   OH276677   1.131   1.973  12.130 -0.3622  0.2221 -0.1044
18421TIP3    H176678   1.085   2.011  12.056 -0.9086 -1.7778 -0.8414
18421TIP3    H276679   1.070   1.983  12.204 -1.0232 -0.3462 -0.5647
18422TIP3   OH276680   0.162   3.850  16.708 -0.3169  0.1159 -0.5675
18422TIP3    H176681   0.205   3.766  16.689 -1.7214 -0.2771 -2.3295
18422TIP3    H276682   0.185   3.906  16.634  0.8298  1.4326  0.7260
18423TIP3   OH276683   4.421   5.108  11.374 -0.3189  0.4326  0.0579
18423TIP3    H176684   4.391   5.056  11.300 -1.0865  0.2061  0.5171
18423TIP3    H276685   4.515   5.089  11.380 -0.5456 -0.7548  0.0937
18424TIP3   OH276686   2.795   5.735  12.663  0.2983  0.0234 -0.0337
18424TIP3    H176687   2.777   5.643  12.644  0.1644  0.0699 -0.1307
18424TIP3    H276688   2.737   5.784  12.604  0.4555  0.1695 -0.0675
18425TIP3   OH276689   3.166   0.725   1.693 -0.4412 -0.2270  0.2259
18425TIP3    H176690   3.218   0.805   1.699 -1.7706  0.8872 -1.6727
18425TIP3    H276691   3.177   0.696   1.602 -0.6292 -1.7663  0.6600
18426TIP3   OH276692   3.265   3.038  12.117  0.3733  0.3597 -1.0407
18426TIP3    H176693   3.321   3.008  12.189 -0.9983 -0.5672 -0.3166
18426TIP3    H276694   3.285   3.131  12.108  2.1226  0.0346 -0.9216
18427TIP3   OH276695   1.944   3.732   3.389 -0.6067 -0.1002  0.2568
18427TIP3    H176696   1.971   3.640   3.390  0.8985  0.3084  1.8047
18427TIP3    H276697   1.908   3.747   3.476  1.2606  1.3019  0.8640
18428TIP3   OH276698   1.500   4.684   5.467  0.1211 -0.2817  0.3263
18428TIP3    H176699   1.552   4.754   5.506 -1.3440  0.4213  1.0629
18428TIP3    H276700   1.416   4.687   5.512 -0.6259 -1.3146 -0.9109
18429TIP3   OH276701   2.523   5.122   1.449 -0.3190 -1.2580  0.0509
18429TIP3    H176702   2.565   5.171   1.379  1.1125 -0.7590  1.2029
18429TIP3    H276703   2.443   5.171   1.468 -0.5634 -1.2353 -1.0066
18430TIP3   OH276704   0.253   2.001   3.346  0.0732 -0.4910  0.0463
18430TIP3    H176705   0.227   1.909   3.354  0.6933 -0.5487  1.7088
18430TIP3    H276706   0.188   2.050   3.395  0.6062 -0.1965  0.4687
18431TIP3   OH276707   5.139   3.733  16.931  0.1205 -0.4843  0.2735
18431TIP3    H176708   5.069   3.669  16.918 -0.4088 -0.0856  1.0939
18431TIP3    H276709   5.204   3.688  16.984  1.2621 -1.3855 -1.7821
18432TIP3   OH276710   1.182   4.010  16.700  0.1833  0.1179  0.1077
18432TIP3    H176711   1.263   4.056  16.678  0.2955  0.7016  1.6246
18432TIP3    H276712   1.206   3.950  16.770 -0.8139  0.8450  1.1204
18433TIP3   OH276713   6.379   2.522  14.577  0.0265  0.2596 -0.4177
18433TIP3    H176714   6.413   2.515  14.488 -1.6406 -1.4867 -0.9660
18433TIP3    H276715   6.301   2.577  14.568  0.4868  1.0304  0.1851
18434TIP3   OH276716   0.409   1.762   0.777 -0.1662  0.7036  0.1461
18434TIP3    H176717   0.428   1.828   0.710  0.9754  0.1044 -0.1511
18434TIP3    H276718   0.391   1.682   0.727 -0.4288  0.5137  0.5359
18435TIP3   OH276719   4.035   6.022  12.481 -0.2448  0.4192  0.1289
18435TIP3    H176720   4.001   5.941  12.520  0.3225  0.7096  1.2816
18435TIP3    H276721   4.109   5.993  12.428 -0.3473  0.1348  0.1362
18436TIP3   OH276722   6.352   2.331   5.365 -0.2376 -0.1611  0.0965
18436TIP3    H176723   6.374   2.313   5.457 -1.2218 -0.0706  0.3557
18436TIP3    H276724   6.385   2.255   5.317  1.1735  0.2351  0.3831
18437TIP3   OH276725   5.905   6.334   2.826 -0.1082  0.8280 -0.1080
18437TIP3    H176726   5.956   6.350   2.905  0.8581 -2.1730  0.0087
18437TIP3    H276727   5.819   6.371   2.844  0.1887  0.5202  2.2236
18438TIP3   OH276728   6.508   3.787  15.750  0.2960  0.3407 -0.2910
18438TIP3    H176729   6.535   3.743  15.831  0.3088 -0.4523 -0.7077
18438TIP3    H276730   6.502   3.879  15.773  2.8605  0.5148 -0.0211
18439TIP3   OH276731   2.197   3.999  14.974 -0.2484  0.3022 -0.6285
18439TIP3    H176732   2.187   4.041  15.059  2.2877 -0.8082  0.3406
18439TIP3    H276733   2.182   3.906  14.992  1.6915 -0.1357 -1.0087
18440TIP3   OH276734   5.939   6.010  16.153  0.7475  0.1721  0.5291
18440TIP3    H176735   5.927   6.098  16.117 -0.4624  0.2842  1.1743
18440TIP3    H276736   6.000   6.022  16.226  0.2913  0.5353  0.8494
18441TIP3   OH276737   5.938   3.674  15.812 -0.3110  0.1292  0.5741
18441TIP3    H176738   5.851   3.635  15.801 -0.1403  0.0807 -0.8510
18441TIP3    H276739   5.931   3.758  15.766  0.3200  0.2493  0.6930
18442TIP3   OH276740   4.639   1.336   5.357  0.0194  0.2490  0.7547
18442TIP3    H176741   4.700   1.281   5.406 -0.0558 -0.6079 -0.0973
18442TIP3    H276742   4.673   1.337   5.268  0.3699  2.1065  0.8598
18443TIP3   OH276743   2.071   4.538   6.342  0.0196  0.4415  0.3951
18443TIP3    H176744   2.100   4.620   6.380 -0.0196 -0.3515  2.2240
18443TIP3    H276745   2.146   4.479   6.351 -0.2105  0.0453 -0.1912
18444TIP3   OH276746   0.006   3.821   5.280 -0.7321 -0.0285 -0.2411
18444TIP3    H176747  -0.034   3.808   5.366 -1.7214 -0.8305 -0.8087
18444TIP3    H276748  -0.031   3.904   5.249  2.3483  2.2360  1.5666
18445TIP3   OH276749   1.654   2.198   5.622 -0.5485 -0.0459  1.0806
18445TIP3    H176750   1.636   2.234   5.535 -0.5120 -2.3004  0.0631
18445TIP3    H276751   1.737   2.238   5.648 -0.7063  0.8736  0.2218
18446TIP3   OH276752   6.390   4.782  13.570  0.3390 -0.2124 -0.3553
18446TIP3    H176753   6.300   4.804  13.549  0.2926 -0.6221 -0.5987
18446TIP3    H276754   6.439   4.864  13.558  0.1167 -0.1612 -0.9139
18447TIP3   OH276755   0.983   0.398   5.166  0.4540  0.6782 -0.1735
18447TIP3    H176756   0.974   0.360   5.253  0.0888 -1.6694 -1.1561
18447TIP3    H276757   1.019   0.327   5.112  1.0648  2.1876 -1.8473
18448TIP3   OH276758   5.948   5.955   3.203  0.7171 -0.1381 -0.1095
18448TIP3    H176759   5.975   5.866   3.180  2.6142  0.3872 -0.0705
18448TIP3    H276760   5.987   6.010   3.135 -0.4992  0.6703 -0.1741
18449TIP3   OH276761   1.498   4.235   2.293 -0.2984 -0.2324  0.4143
18449TIP3    H176762   1.584   4.270   2.316  0.0229 -0.5793 -0.2260
18449TIP3    H276763   1.471   4.185   2.370 -0.7091  1.2812  1.3031
18450TIP3   OH276764   2.647   1.003  11.348  0.2994  0.4881  0.0981
18450TIP3    H176765   2.595   1.034  11.273  0.8607  1.0637 -0.0635
18450TIP3    H276766   2.690   0.924  11.316 -0.1623  0.2278  0.1070
18451TIP3   OH276767   4.876   1.905   0.806  0.1705  0.3664 -0.2363
18451TIP3    H176768   4.944   1.916   0.739  0.8173  1.9486  0.6313
18451TIP3    H276769   4.924   1.885   0.886 -0.6475 -2.3730 -0.3480
18452TIP3   OH276770   5.754   5.443  15.517 -0.0364  0.5254 -0.0841
18452TIP3    H176771   5.827   5.396  15.478 -1.3069 -1.2636 -0.3822
18452TIP3    H276772   5.725   5.387  15.589 -0.3881  1.7903  0.8044
18453TIP3   OH276773   1.075   0.047  11.909 -0.1799 -0.3957  0.2657
18453TIP3    H176774   1.034   0.005  11.834 -2.1699  3.5110 -1.0795
18453TIP3    H276775   1.031   0.008  11.985 -2.7515 -0.0053 -0.9330
18454TIP3   OH276776   3.933   2.349  16.860 -0.6293 -0.3798  0.2466
18454TIP3    H176777   3.907   2.290  16.931 -2.3355 -0.5002 -0.4416
18454TIP3    H276778   3.861   2.411  16.851  0.3495  0.7436 -0.2239
18455TIP3   OH276779   0.978   2.619  16.655  0.5485 -0.1692 -0.2380
18455TIP3    H176780   0.942   2.653  16.573  0.6781 -0.4826 -0.4262
18455TIP3    H276781   1.053   2.565  16.628  0.3457 -0.6019  0.0576
18456TIP3   OH276782   5.464   2.733  11.257  0.4670  0.2406 -0.2266
18456TIP3    H176783   5.538   2.672  11.254  1.2345  1.0146  1.4977
18456TIP3    H276784   5.402   2.693  11.317 -0.1999 -0.0557 -1.1005
18457TIP3   OH276785   1.198   6.443   1.627  0.7945 -0.0176 -1.1367
18457TIP3    H176786   1.209   6.381   1.555  1.0135 -2.2170  0.6381
18457TIP3    H276787   1.287   6.462   1.656  0.6974  0.5788 -1.2153
18458TIP3   OH276788   1.716   6.528   1.256  0.0619  0.2340 -0.9832
18458TIP3    H176789   1.674   6.461   1.203 -0.6303  1.0502 -1.5062
18458TIP3    H276790   1.775   6.480   1.313 -0.3587 -0.8077 -1.3907
18459TIP3   OH276791   3.405   4.163   5.284  0.5683 -0.3846  0.0897
18459TIP3    H176792   3.406   4.131   5.194 -1.3425  0.9309 -0.4511
18459TIP3    H276793   3.481   4.220   5.290  1.3708 -1.3790 -0.3113
18460TIP3   OH276794   3.700   5.791  15.988  0.3600  0.1270  0.3176
18460TIP3    H176795   3.708   5.844  16.067  0.9856  0.5872 -0.0504
18460TIP3    H276796   3.761   5.830  15.926 -0.2878 -0.0914 -0.4780
18461TIP3   OH276797   4.043   1.012  12.707  0.1254 -0.7179 -0.2942
18461TIP3    H176798   3.980   0.970  12.766  0.6166 -0.5415  0.3702
18461TIP3    H276799   4.070   1.091  12.753  1.6558 -1.3346 -0.0626
18462TIP3   OH276800   0.563   2.271   4.805 -0.2888  0.5140  0.5605
18462TIP3    H176801   0.516   2.344   4.764 -1.3109 -0.8254 -0.7599
18462TIP3    H276802   0.511   2.194   4.783  1.1858 -0.7249  1.2480
18463TIP3   OH276803   0.845   4.267  12.911  0.5715  0.1981 -0.1184
18463TIP3    H176804   0.813   4.291  12.824 -0.0919 -0.4406 -0.0563
18463TIP3    H276805   0.902   4.340  12.936  1.0346  0.2413 -1.2196
18464TIP3   OH276806   4.304   5.094   0.227 -0.4176 -0.2443  0.0831
18464TIP3    H176807   4.382   5.046   0.253  0.0793  1.5178  2.1123
18464TIP3    H276808   4.334   5.155   0.160  0.3229  1.2849  1.7119
18465TIP3   OH276809   1.424   4.262  12.108 -0.5203 -0.2945 -0.3645
18465TIP3    H176810   1.374   4.190  12.144 -0.7682  0.3469  0.6158
18465TIP3    H276811   1.511   4.254  12.149 -0.6044  0.0648 -0.1133
18466TIP3   OH276812   2.782   1.897  12.623  0.5548  0.1982  0.2664
18466TIP3    H176813   2.804   1.844  12.547  2.3383  0.6512  0.4199
18466TIP3    H276814   2.850   1.964  12.626 -0.3142  1.0699  1.4300
18467TIP3   OH276815   5.093   1.431   4.005  0.0935  0.2202 -0.0373
18467TIP3    H176816   5.186   1.410   4.012 -0.4238 -1.9652  1.2510
18467TIP3    H276817   5.079   1.500   4.069  0.8694  0.7620 -0.4408
18468TIP3   OH276818   6.359   3.853  12.815 -0.3118 -0.0265  0.4029
18468TIP3    H176819   6.401   3.882  12.734  0.5653 -1.9101  0.1108
18468TIP3    H276820   6.270   3.886  12.809  0.1591  1.1230 -0.6332
18469TIP3   OH276821   2.711   2.569   0.963  0.3463 -0.3651 -0.1337
18469TIP3    H176822   2.675   2.498   0.909  1.9973 -1.3080 -0.0789
18469TIP3    H276823   2.710   2.534   1.052  1.4948 -0.4900 -0.1526
18470TIP3   OH276824   0.360   4.323  13.277 -0.0025  0.4751 -0.3108
18470TIP3    H176825   0.299   4.264  13.233  1.2469 -0.6076 -0.6814
18470TIP3    H276826   0.379   4.391  13.212 -1.1514  1.0784 -0.0254
18471TIP3   OH276827   4.075   3.675   3.380  0.3426 -0.1554  0.5438
18471TIP3    H176828   4.144   3.667   3.446  1.7575  0.5404 -0.7604
18471TIP3    H276829   4.114   3.731   3.312 -1.8660  1.0610  0.1751
18472TIP3   OH276830   5.194   3.358   6.139 -0.0285  0.2109  0.2819
18472TIP3    H176831   5.287   3.349   6.158  0.0564  1.1045  0.2895
18472TIP3    H276832   5.158   3.271   6.161  0.5720  0.2680  1.6270
18473TIP3   OH276833   1.180   5.438   4.668 -0.1259 -0.0179 -0.1581
18473TIP3    H176834   1.232   5.362   4.697 -1.1429 -0.8173 -0.3761
18473TIP3    H276835   1.139   5.470   4.748 -1.4246 -1.0551 -0.3869
18474TIP3   OH276836   3.194   5.956  10.314  0.0226 -0.0660 -0.1483
18474TIP3    H176837   3.253   6.030  10.303 -1.2721  1.0299  0.1371
18474TIP3    H276838   3.125   5.988  10.372 -1.0043 -1.2280 -0.6826
18475TIP3   OH276839   1.853   4.424  14.439 -0.5439 -0.1197 -0.1170
18475TIP3    H176840   1.831   4.338  14.474  1.4351 -0.2912  0.8750
18475TIP3    H276841   1.945   4.417  14.413  0.6583  2.4419  2.7544
18476TIP3   OH276842   4.818   5.846  14.528  0.1640 -0.5767  0.1987
18476TIP3    H176843   4.762   5.916  14.561  1.2068 -0.3501  1.5791
18476TIP3    H276844   4.757   5.775  14.507 -0.6192 -1.0321  3.3772
18477TIP3   OH276845   6.355   2.332  16.522  0.2392  0.3202  0.1608
18477TIP3    H176846   6.327   2.290  16.604  0.6346  2.8484  1.7275
18477TIP3    H276847   6.273   2.354  16.478  0.0219 -1.2749 -0.2869
18478TIP3   OH276848   6.158   6.744   2.219  0.1169 -0.0997 -0.2271
18478TIP3    H176849   6.144   6.778   2.130 -0.1101 -0.3282 -0.2827
18478TIP3    H276850   6.195   6.657   2.205  3.4628  1.1571 -0.0773
18479TIP3   OH276851   0.629   4.204   5.672  0.1860 -0.0011  0.3731
18479TIP3    H176852   0.668   4.278   5.720  1.1601 -2.4295  3.6534
18479TIP3    H276853   0.551   4.181   5.723 -0.2328 -1.1255 -0.7300
18480TIP3   OH276854   4.254   0.848   2.786 -0.3448  0.2217 -0.0374
18480TIP3    H176855   4.345   0.858   2.815 -0.5893  1.6541  0.3231
18480TIP3    H276856   4.214   0.788   2.849  0.0526  0.5032  0.4873
18481TIP3   OH276857   0.683   3.708   3.870  0.2100  0.8675 -0.5696
18481TIP3    H176858   0.682   3.772   3.799  1.7802 -1.2221 -2.6350
18481TIP3    H276859   0.621   3.641   3.842 -0.2488  0.6861  0.8055
18482TIP3   OH276860   4.263   5.986  12.333 -0.1011 -0.2513 -0.1161
18482TIP3    H176861   4.355   5.963  12.328  0.6076  1.0782  3.6362
18482TIP3    H276862   4.252   6.057  12.270  1.4679 -0.2822 -0.4571
18483TIP3   OH276863   0.203   5.470  12.315 -0.0175 -0.5135  0.4761
18483TIP3    H176864   0.217   5.558  12.280 -0.9632 -0.8440 -0.7974
18483TIP3    H276865   0.290   5.439  12.339  0.4872  0.2945 -0.2594
18484TIP3   OH276866   0.251   6.771  13.809 -0.2290  0.4613  0.2972
18484TIP3    H176867   0.157   6.756  13.820 -0.5988  2.6035  0.5316
18484TIP3    H276868   0.256   6.843  13.746  1.4572 -2.5316 -3.3929
18485TIP3   OH276869   4.645   1.109  12.371 -0.1399 -0.4041 -0.0900
18485TIP3    H176870   4.574   1.172  12.360  0.1108 -0.2602 -0.9022
18485TIP3    H276871   4.702   1.149  12.436 -0.6880 -0.4260  0.4161
18486TIP3   OH276872   4.673   1.909   2.461  0.7895  0.1448  0.5737
18486TIP3    H176873   4.729   1.929   2.386 -0.7731  3.4527  0.1039
18486TIP3    H276874   4.601   1.857   2.424  1.7349 -1.1712  0.5192
18487TIP3   OH276875   3.042   6.163  10.752 -0.0893  0.3824 -0.4977
18487TIP3    H176876   3.101   6.237  10.761 -0.4716  0.7286 -0.8463
18487TIP3    H276877   3.079   6.096  10.810  0.2366  0.8524 -0.1600
18488TIP3   OH276878   0.408   1.934   5.313  0.1079  0.3126  0.2586
18488TIP3    H176879   0.447   2.016   5.286 -1.3383  0.2571 -2.2910
18488TIP3    H276880   0.417   1.934   5.409 -0.2876  3.6595  0.4238
18489TIP3   OH276881   1.572   1.210   1.440 -0.0245  0.6400  0.0647
18489TIP3    H176882   1.582   1.159   1.359 -0.1687  0.8015 -0.0558
18489TIP3    H276883   1.537   1.148   1.503 -0.8989  0.7671 -0.2827
18490TIP3   OH276884   3.795   2.849   3.308 -0.3789  0.4774  0.0829
18490TIP3    H176885   3.815   2.778   3.369  1.6506 -1.1007 -2.1953
18490TIP3    H276886   3.852   2.921   3.335  1.1644 -0.5181 -0.3802
18491TIP3   OH276887   6.316   6.507   3.001  0.2896  0.1003  0.6156
18491TIP3    H176888   6.274   6.466   3.077 -0.2298  0.8102  0.7267
18491TIP3    H276889   6.243   6.543   2.951  0.5801 -0.8237 -0.5185
18492TIP3   OH276890   2.129   1.514   4.439 -0.1673 -0.2938 -0.1726
18492TIP3    H176891   2.090   1.524   4.526 -0.0077  1.1638 -0.2446
18492TIP3    H276892   2.058   1.535   4.379  0.3497  1.0483 -0.3323
18493TIP3   OH276893   4.558   6.139   2.623  0.2979  0.2418  0.0537
18493TIP3    H176894   4.549   6.172   2.534  0.4684  1.8772  0.5991
18493TIP3    H276895   4.639   6.179   2.656  0.0651 -0.0667  1.0392
18494TIP3   OH276896   1.338   1.776  14.706 -0.3265 -0.0267  0.0614
18494TIP3    H176897   1.345   1.761  14.612 -0.1031 -0.5424  0.1564
18494TIP3    H276898   1.415   1.732  14.743 -0.5321 -0.0221  0.5059
18495TIP3   OH276899   2.002   1.466  11.872 -0.5882  0.9356  0.1247
18495TIP3    H176900   1.986   1.527  11.944 -1.0958  0.8965  0.0461
18495TIP3    H276901   1.998   1.380  11.912  0.4976  0.9571  0.3064
18496TIP3   OH276902   1.133   0.289  14.248  0.7255 -0.5375  0.2665
18496TIP3    H176903   1.103   0.367  14.201  0.0918 -0.9101  0.0369
18496TIP3    H276904   1.054   0.257  14.293  0.9780 -1.0535  0.3477
18497TIP3   OH276905   4.558   2.281   3.097  0.4907  0.0510 -0.4183
18497TIP3    H176906   4.506   2.359   3.079 -0.8706 -0.7738 -0.2477
18497TIP3    H276907   4.555   2.271   3.192  4.2984  2.1497  0.1126
18498TIP3   OH276908   6.770   1.028  15.568  0.2118 -0.3094 -0.0600
18498TIP3    H176909   6.745   1.010  15.477  2.0964 -0.8593 -0.5359
18498TIP3    H276910   6.837   1.096  15.561  1.0285 -0.9916  0.8205
18499TIP3   OH276911   0.320   0.884   4.217 -0.3864 -0.0106 -0.0128
18499TIP3    H176912   0.372   0.819   4.265 -2.0120 -0.4107  1.3088
18499TIP3    H276913   0.295   0.840   4.136 -1.1032 -0.9394  0.6725
18500TIP3   OH276914   6.227   4.549  16.340  0.1007 -0.4847  0.1997
18500TIP3    H176915   6.252   4.498  16.263  1.3386  0.8370 -0.3281
18500TIP3    H276916   6.307   4.558  16.390 -0.0158  1.0990  0.1533
18501TIP3   OH276917   6.281   1.695  15.504 -0.6963  0.2098  0.3063
18501TIP3    H176918   6.324   1.621  15.548 -2.1881  0.1779  1.8100
18501TIP3    H276919   6.188   1.674  15.507 -1.2751  2.5473  1.6741
18502TIP3   OH276920   0.225   4.245  16.271 -0.4824 -0.2149 -0.0625
18502TIP3    H176921   0.150   4.186  16.276 -1.6958  1.1900 -0.6724
18502TIP3    H276922   0.235   4.262  16.177  0.9955 -0.8329 -0.0375
18503TIP3   OH276923   3.967   4.057  16.730  0.1503 -0.2506  0.7642
18503TIP3    H176924   4.018   4.014  16.661 -1.1464  1.6423 -1.5345
18503TIP3    H276925   3.965   3.994  16.802  0.6966 -2.8059 -1.3221
18504TIP3   OH276926   0.709   0.504  10.593  0.3546 -0.7148 -0.1787
18504TIP3    H176927   0.775   0.436  10.582  0.5316 -0.7185  0.7604
18504TIP3    H276928   0.683   0.497  10.685  0.7915  0.8402  0.0970
18505TIP3   OH276929   0.309   4.779  13.305  0.8357 -0.1714 -0.0644
18505TIP3    H176930   0.275   4.834  13.235  0.6391  0.5740  0.5950
18505TIP3    H276931   0.393   4.819  13.328  0.6378 -0.0685  0.4961
18506TIP3   OH276932   4.413   3.937   1.147  0.3133  0.2145 -0.4271
18506TIP3    H176933   4.426   3.842   1.152  2.1208  0.4145  4.9869
18506TIP3    H276934   4.318   3.948   1.160 -0.0208 -0.7879 -1.8045
18507TIP3   OH276935   1.821   2.860  11.064 -0.2212 -0.3198  0.0496
18507TIP3    H176936   1.783   2.772  11.059 -1.5306  0.1925  0.6214
18507TIP3    H276937   1.883   2.863  10.991 -0.2158 -1.6844 -0.0343
18508TIP3   OH276938   0.333   3.106   4.535  0.7284 -0.2350  0.8518
18508TIP3    H176939   0.346   3.073   4.446  1.9635 -1.2222  1.3620
18508TIP3    H276940   0.351   3.200   4.529  1.7842 -0.4615  0.2377
18509TIP3   OH276941   5.050   4.431   0.890  0.1654 -0.4693  0.3547
18509TIP3    H176942   5.066   4.494   0.819  2.7897 -2.7312 -1.2624
18509TIP3    H276943   4.967   4.388   0.866  0.2121 -0.1113 -0.4758
18510TIP3   OH276944   2.379   3.948  13.362  0.2956 -0.2279  0.6412
18510TIP3    H176945   2.333   3.868  13.335  1.1634 -0.9359  1.1938
18510TIP3    H276946   2.445   3.917  13.423  0.7499  0.9105  0.7367
18511TIP3   OH276947   2.110   2.399   2.396 -0.0061  0.0041 -0.4714
18511TIP3    H176948   2.066   2.456   2.459 -1.6715 -2.0204  0.3199
18511TIP3    H276949   2.115   2.314   2.440  0.2405 -1.0765 -2.4806
18512TIP3   OH276950   5.535   4.661   5.783 -0.0222  0.0415  0.4876
18512TIP3    H176951   5.478   4.610   5.840  0.9872 -1.7536 -0.0445
18512TIP3    H276952   5.620   4.660   5.827  0.2603  0.3723 -0.0430
18513TIP3   OH276953   5.350   1.614   6.112 -0.2331  0.2911  0.1768
18513TIP3    H176954   5.365   1.704   6.141 -1.4677  0.8580 -0.8377
18513TIP3    H276955   5.436   1.582   6.087  0.1634  1.3446  0.1523
18514TIP3   OH276956   0.214   2.269  12.047 -0.0718 -0.3120  0.3467
18514TIP3    H176957   0.251   2.235  12.129 -1.2164 -2.7371 -0.0620
18514TIP3    H276958   0.124   2.292  12.070 -1.1019 -3.0236 -0.5976
18515TIP3   OH276959   0.229   5.283  14.147  0.0089 -0.7817 -0.1184
18515TIP3    H176960   0.161   5.349  14.157  0.6899  0.1508 -1.4032
18515TIP3    H276961   0.182   5.203  14.124 -0.6768 -0.2522 -0.5666
18516TIP3   OH276962   3.953   5.538  13.660 -0.0250 -0.2641 -0.8101
18516TIP3    H176963   3.892   5.560  13.590 -0.5839 -0.5759 -0.4312
18516TIP3    H276964   3.916   5.578  13.739  0.3119 -0.3671 -0.5929
18517TIP3   OH276965   3.425   0.134   3.079  0.4924 -0.0770  0.1687
18517TIP3    H176966   3.521   0.142   3.083  0.7820 -2.5953 -0.1184
18517TIP3    H276967   3.398   0.126   3.171  0.8803 -1.8245  0.1672
18518TIP3   OH276968   2.286   2.288  11.149  0.1661 -0.1938 -1.0294
18518TIP3    H176969   2.359   2.228  11.135 -0.1729 -0.8370 -0.1639
18518TIP3    H276970   2.221   2.236  11.197  0.7352  1.4337  1.7074
18519TIP3   OH276971   2.695   4.916  12.680  0.4930 -0.0720  0.0833
18519TIP3    H176972   2.685   4.857  12.755 -1.8224  1.8558  1.4748
18519TIP3    H276973   2.745   4.990  12.714 -0.1323  0.5875 -0.3834
18520TIP3   OH276974   2.782   3.628  12.694  0.4986 -0.1440 -0.2555
18520TIP3    H176975   2.797   3.542  12.734  2.3163  0.1020 -0.3375
18520TIP3    H276976   2.840   3.687  12.742 -0.6307  1.0461 -0.2873
18521TIP3   OH276977   4.404   2.751   1.812  0.2175 -0.4663 -0.0524
18521TIP3    H176978   4.439   2.715   1.894 -1.1550  1.1900  1.3186
18521TIP3    H276979   4.324   2.702   1.796  0.0155 -0.1795  0.0816
18522TIP3   OH276980   3.249   1.933  12.941 -0.2902 -0.2070 -0.1191
18522TIP3    H176981   3.291   1.847  12.945  0.3142  0.0920 -0.0627
18522TIP3    H276982   3.236   1.949  12.848  1.5816  0.5976 -0.2737
18523TIP3   OH276983   2.527   5.665   4.994  0.2133  0.3373  0.2173
18523TIP3    H176984   2.439   5.655   4.957  0.7725 -2.0092 -0.6772
18523TIP3    H276985   2.517   5.638   5.085 -0.4173  2.4867  0.8541
18524TIP3   OH276986   3.057   4.573  12.338  0.7769 -0.2833  0.2379
18524TIP3    H176987   3.134   4.577  12.280  0.4913 -0.7352 -0.1787
18524TIP3    H276988   3.058   4.484  12.373  0.1667 -0.4528 -0.1604
18525TIP3   OH276989   5.528   4.768   3.046 -0.1193 -0.0699 -0.5291
18525TIP3    H176990   5.565   4.709   2.981  3.0363  0.7221  0.3371
18525TIP3    H276991   5.537   4.721   3.129 -0.4973  0.4125 -0.2071
18526TIP3   OH276992   0.325   2.076  14.726  0.2641  0.2722 -0.0275
18526TIP3    H176993   0.298   2.016  14.795 -0.2502  0.5680  0.0336
18526TIP3    H276994   0.243   2.108  14.688  0.5371 -0.0957 -0.9614
18527TIP3   OH276995   4.833   1.298  13.684  0.4701  0.3119 -0.1000
18527TIP3    H176996   4.753   1.281  13.734  0.6710 -4.2627 -0.8577
18527TIP3    H276997   4.803   1.303  13.593  0.7898  1.6159 -0.1474
18528TIP3   OH276998   6.448   1.803  14.740 -0.5254 -0.2831 -0.3786
18528TIP3    H176999   6.483   1.824  14.826 -0.2478 -1.7938 -0.0829
18528TIP3    H277000   6.477   1.874  14.683 -0.8144  0.7973  0.7889
18529TIP3   OH277001   6.184   5.138  14.652  0.4266  0.4637 -0.0412
18529TIP3    H177002   6.188   5.153  14.557 -1.1517 -0.3495 -0.2809
18529TIP3    H277003   6.251   5.072  14.668  1.2836  1.2139 -0.4394
18530TIP3   OH277004   2.597   4.998   5.679  0.2912 -0.3947 -0.9274
18530TIP3    H177005   2.645   4.930   5.726 -0.5932 -0.0645  0.5147
18530TIP3    H277006   2.640   5.080   5.705  0.1636 -0.2548 -1.1579
18531TIP3   OH277007   0.772   1.594  14.597 -0.4257 -0.3411  0.3948
18531TIP3    H177008   0.735   1.515  14.556 -1.4372  0.7476 -0.9059
18531TIP3    H277009   0.756   1.582  14.690  1.7831 -2.8338  0.5590
18532TIP3   OH277010   0.703   4.506   1.448 -0.5961  0.4826 -0.2135
18532TIP3    H177011   0.769   4.496   1.379 -1.0712 -1.0457 -0.4728
18532TIP3    H277012   0.746   4.559   1.515  1.0504 -0.7925 -0.2108
18533TIP3   OH277013   6.259   6.156   0.056 -0.3537 -0.3943  0.8748
18533TIP3    H177014   6.168   6.168   0.029  0.0808 -0.3931 -0.6824
18533TIP3    H277015   6.259   6.174   0.150 -1.6801  1.2018  0.6204
18534TIP3   OH277016   5.063   5.131   3.797 -0.3345  0.5436  0.0371
18534TIP3    H177017   5.073   5.208   3.852 -0.6692  1.5716 -1.2852
18534TIP3    H277018   4.975   5.138   3.761  0.3665  0.7124 -1.7554
18535TIP3   OH277019   6.137   3.536  14.747  0.3015 -0.3613  0.3511
18535TIP3    H177020   6.179   3.540  14.661  0.3246 -1.2160  0.3165
18535TIP3    H277021   6.138   3.443  14.770 -1.6790 -0.4401  0.2838
18536TIP3   OH277022   0.852   1.064  13.631 -0.0926  0.4757  0.3653
18536TIP3    H177023   0.932   1.040  13.677  0.5212 -0.6471 -1.1949
18536TIP3    H277024   0.839   1.156  13.652  1.6542  0.7000  0.6021
18537TIP3   OH277025   3.549   0.593   1.234 -0.4603  0.1911 -0.1359
18537TIP3    H177026   3.517   0.660   1.295  0.0053  0.6763 -0.4118
18537TIP3    H277027   3.471   0.544   1.209 -1.2424  2.0709 -1.6960
18538TIP3   OH277028   0.307   0.828  16.197 -0.1129 -0.0963  0.4700
18538TIP3    H177029   0.298   0.917  16.231 -1.8979 -0.3609  0.7965
18538TIP3    H277030   0.267   0.831  16.110  1.2927 -0.2313 -0.2094
18539TIP3   OH277031   6.166   2.443   2.485 -0.0611  0.2348  0.3858
18539TIP3    H177032   6.075   2.415   2.481  0.2863 -0.7593 -2.0587
18539TIP3    H277033   6.180   2.492   2.404  2.2033 -1.8449 -0.6167
18540TIP3   OH277034   2.641   5.535  12.545  0.1558 -0.1324  0.6929
18540TIP3    H177035   2.552   5.540  12.509  0.4417  0.7997  0.0900
18540TIP3    H277036   2.697   5.525  12.469  0.7374  1.4429  0.8747
18541TIP3   OH277037   3.209   3.802   0.358  0.4061  0.4574 -0.0227
18541TIP3    H177038   3.263   3.839   0.427 -0.8273  1.5887  0.3975
18541TIP3    H277039   3.187   3.714   0.388  0.1636  0.8177  0.8751
18542TIP3   OH277040   5.904   2.818  13.979 -0.4412  0.0413 -0.1078
18542TIP3    H177041   5.987   2.784  14.011  1.0931  2.1695 -1.5236
18542TIP3    H277042   5.880   2.758  13.908  0.6959  0.2209 -0.6690
18543TIP3   OH277043   5.267   6.125  14.207  0.5215  1.1631 -0.1039
18543TIP3    H177044   5.305   6.070  14.275  1.3445 -1.1788 -2.2868
18543TIP3    H277045   5.177   6.094  14.199  0.7082  0.7496 -0.6940
18544TIP3   OH277046   3.424   2.634  15.578  0.5051 -0.8371 -0.1658
18544TIP3    H177047   3.376   2.645  15.496  1.3512  0.1510 -0.5370
18544TIP3    H277048   3.478   2.556  15.564 -1.3968 -2.3638  0.4844
18545TIP3   OH277049   1.256   1.366  15.246  0.7262  0.1058  0.1963
18545TIP3    H177050   1.237   1.342  15.155  2.5085 -0.0446 -0.1629
18545TIP3    H277051   1.349   1.389  15.246  0.5285  1.0303  1.7997
18546TIP3   OH277052   1.732   3.492  11.081 -0.2931 -0.1003 -0.0061
18546TIP3    H177053   1.815   3.533  11.106  0.9074 -1.1051 -2.0757
18546TIP3    H277054   1.675   3.565  11.057  0.6458  0.5281 -0.3731
18547TIP3   OH277055   0.056   0.882  13.877 -0.9544  0.0286  0.0103
18547TIP3    H177056   0.132   0.824  13.874 -1.1996 -0.2453 -1.6523
18547TIP3    H277057   0.039   0.906  13.786 -0.7890  2.8530  0.6065
18548TIP3   OH277058   3.375   2.709   4.416  0.1789  0.2442  0.0345
18548TIP3    H177059   3.437   2.653   4.463  2.4635  1.7908 -0.9691
18548TIP3    H277060   3.350   2.776   4.481  0.8342  0.5348 -0.0049
18549TIP3   OH277061   1.231   5.201   2.897  0.0086 -0.0728  0.3285
18549TIP3    H177062   1.292   5.260   2.852  0.5809 -0.4007  0.6623
18549TIP3    H277063   1.145   5.229   2.867  0.3141  0.4656 -0.0766
18550TIP3   OH277064   3.801   5.966   2.024  0.2213 -0.6692 -0.0168
18550TIP3    H177065   3.841   5.925   1.947  0.0609  1.4526 -1.2814
18550TIP3    H277066   3.720   6.005   1.992 -0.0106 -0.0037  1.3052
18551TIP3   OH277067   3.549   2.799  11.846  0.8111 -0.0003 -0.0784
18551TIP3    H177068   3.527   2.804  11.939  2.4073  0.2869  0.3186
18551TIP3    H277069   3.569   2.890  11.822  1.3195 -0.2090 -0.4540
18552TIP3   OH277070   0.343   3.380  13.476  0.5767 -0.1867 -0.4766
18552TIP3    H177071   0.294   3.301  13.450 -0.2481  0.1935 -0.1258
18552TIP3    H277072   0.411   3.348  13.534 -1.3858 -0.4123  1.8660
18553TIP3   OH277073   0.341   3.197  15.195 -0.0450 -0.0689  0.1373
18553TIP3    H177074   0.269   3.235  15.247 -0.6149 -0.8925 -0.0392
18553TIP3    H277075   0.331   3.238  15.109  0.4958  0.7936  0.4686
18554TIP3   OH277076   6.057   3.107   4.992 -0.2707  0.4592  0.2404
18554TIP3    H177077   5.988   3.083   5.054 -0.4846 -1.9697 -0.8437
18554TIP3    H277078   6.014   3.165   4.930 -1.2465 -0.6461 -0.1527
18555TIP3   OH277079   4.440   1.967   1.106  0.1160 -0.2112 -0.2263
18555TIP3    H177080   4.498   2.021   1.158 -0.5204 -0.7367  1.0670
18555TIP3    H277081   4.463   1.877   1.130 -1.9527 -0.4254  1.1859
18556TIP3   OH277082   5.778   2.001   2.584  0.0234 -0.3212 -0.2928
18556TIP3    H177083   5.865   2.041   2.595 -0.8168  1.2715  0.9971
18556TIP3    H277084   5.773   1.935   2.652 -0.6496  1.3001  1.3197
18557TIP3   OH277085   4.020   6.504   2.141  0.1609 -0.4228 -0.9196
18557TIP3    H177086   3.996   6.491   2.050  1.0656 -2.5961 -0.9039
18557TIP3    H277087   4.047   6.596   2.146 -0.2166 -0.1850 -2.7519
18558TIP3   OH277088   3.479   2.199   0.071 -0.3154 -0.2787  0.3743
18558TIP3    H177089   3.483   2.230   0.162 -0.6987  1.1892 -0.0901
18558TIP3    H277090   3.480   2.103   0.079  0.4801 -0.1833  1.8842
18559TIP3   OH277091   0.916   1.148   0.595  0.2402  0.3978 -0.0593
18559TIP3    H177092   0.977   1.199   0.648  0.8024  0.2801 -0.5696
18559TIP3    H277093   0.898   1.070   0.647 -0.9609  1.2980  0.9099
18560TIP3   OH277094   6.021   3.391  12.755 -0.4268 -0.0101 -0.0949
18560TIP3    H177095   5.941   3.414  12.708  0.1167 -2.5359 -2.4973
18560TIP3    H277096   6.079   3.466  12.741 -1.5230  0.8363 -0.2977
18561TIP3   OH277097   1.732   5.872   0.639 -0.2897 -0.1086  0.0517
18561TIP3    H177098   1.735   5.822   0.557  1.0052 -0.0577  0.0434
18561TIP3    H277099   1.806   5.932   0.634  0.1905 -0.5252  1.5202
18562TIP3   OH277100   2.138   4.464  15.288 -0.0615  0.3174  0.3602
18562TIP3    H177101   2.056   4.417  15.271  0.2405  0.3785 -1.4213
18562TIP3    H277102   2.137   4.538  15.228  1.8611 -0.4030 -0.6655
18563TIP3   OH277103   5.823   5.991  16.741 -0.5159 -0.1322 -0.1104
18563TIP3    H177104   5.851   5.982  16.650  0.1625  0.2184  0.0624
18563TIP3    H277105   5.898   5.963  16.792 -0.2390  1.3767  0.3645
18564TIP3   OH277106   0.144   4.014  12.392  0.2477 -0.3622 -0.2140
18564TIP3    H177107   0.203   4.069  12.442 -1.3334  0.7385  0.5425
18564TIP3    H277108   0.160   3.925  12.423  2.4373 -0.3073 -1.0426
18565TIP3   OH277109   6.356   3.712  13.959  0.4587 -0.0602  0.1307
18565TIP3    H177110   6.303   3.632  13.964 -0.9174  0.6011 -2.2107
18565TIP3    H277111   6.446   3.681  13.962 -0.0443 -1.6897 -0.3492
18566TIP3   OH277112   3.269   2.173   5.531  0.2076 -0.1027 -0.6058
18566TIP3    H177113   3.191   2.222   5.560  1.6598  2.9943 -1.4525
18566TIP3    H277114   3.252   2.156   5.439  0.3057  0.1245 -0.6670
18567TIP3   OH277115   4.392   6.783   4.530  0.4089 -0.0533  0.3237
18567TIP3    H177116   4.479   6.744   4.529  0.0562 -0.9984  2.1845
18567TIP3    H277117   4.350   6.750   4.450  1.4349 -0.3320 -0.1115
18568TIP3   OH277118   2.175   0.122   5.756 -0.1354 -0.1390  0.4564
18568TIP3    H177119   2.199   0.037   5.792 -1.2674 -0.5849  0.2072
18568TIP3    H277120   2.082   0.114   5.735  0.0755  0.6638 -0.9464
18569TIP3   OH277121   2.539   5.878   1.468  0.6340 -0.0110 -0.2276
18569TIP3    H177122   2.472   5.925   1.518  0.9417 -0.6230  0.7831
18569TIP3    H277123   2.493   5.802   1.433  0.3496  0.5649 -1.1294
18570TIP3   OH277124   6.398   4.647   2.877  0.1837 -0.1054  0.5613
18570TIP3    H177125   6.486   4.640   2.839 -0.3527  0.4900 -0.8279
18570TIP3    H277126   6.414   4.671   2.968  1.4496  1.7784 -0.1073
18571TIP3   OH277127   4.900   0.020   0.775  0.2308  0.2267  0.0912
18571TIP3    H177128   4.891  -0.008   0.866  0.6484 -0.6765 -0.1389
18571TIP3    H277129   4.931  -0.057   0.728  2.3080  1.2763 -0.3997
18572TIP3   OH277130   4.071   0.740  10.722 -0.3469 -0.3985 -0.3525
18572TIP3    H177131   4.006   0.670  10.728  1.8413 -2.7914 -2.2119
18572TIP3    H277132   4.119   0.721  10.641  2.6433  1.2331  0.8874
18573TIP3   OH277133   4.210   1.284   0.143  0.5851  0.3607  0.5502
18573TIP3    H177134   4.244   1.217   0.084 -1.4549  0.7306 -1.1847
18573TIP3    H277135   4.225   1.367   0.097  0.7745  0.8684  1.4899
18574TIP3   OH277136   6.198   4.906   1.165 -0.0114  0.1208 -0.6076
18574TIP3    H177137   6.165   4.872   1.082  1.3534 -0.0814 -1.0940
18574TIP3    H277138   6.182   4.836   1.228 -0.4125 -0.0048 -0.8455
18575TIP3   OH277139   1.827   2.130  13.792  0.0864  0.4477 -0.1792
18575TIP3    H177140   1.786   2.198  13.846  1.3527  1.5603 -0.5755
18575TIP3    H277141   1.812   2.158  13.702 -1.8443 -1.2984 -0.4994
18576TIP3   OH277142   3.828   4.072   1.431 -0.4966 -0.2032  0.2788
18576TIP3    H177143   3.913   4.116   1.438 -1.2117  1.3291 -0.0982
18576TIP3    H277144   3.820   4.020   1.511  0.1084  0.9259  1.0984
18577TIP3   OH277145   5.706   0.941  12.147 -0.6598 -0.3843 -0.0214
18577TIP3    H177146   5.660   0.857  12.150  0.0111 -0.7481  1.3758
18577TIP3    H277147   5.655   0.999  12.204 -0.6372 -0.1043 -0.2829
18578TIP3   OH277148   0.067   6.692  11.619  0.4823  0.0570  0.1505
18578TIP3    H177149   0.139   6.716  11.678  0.0489 -0.7550  1.0287
18578TIP3    H277150   0.034   6.609  11.654  0.0187 -0.2969 -1.0676
18579TIP3   OH277151   5.641   3.974   4.636  0.0817 -0.8507 -0.0539
18579TIP3    H177152   5.558   3.990   4.682  0.1955 -2.1473  0.6528
18579TIP3    H277153   5.701   3.944   4.705  0.5197 -1.9434 -0.8899
18580TIP3   OH277154   6.468   4.349  14.666  0.0727 -0.3078  0.9951
18580TIP3    H177155   6.538   4.322  14.606 -0.1102 -1.0767  1.1219
18580TIP3    H277156   6.446   4.270  14.714 -1.5074 -0.2941  0.3312
18581TIP3   OH277157   1.220   1.612  12.194 -0.2244  0.3675 -0.0738
18581TIP3    H177158   1.224   1.572  12.281 -0.4147 -1.7892 -0.9914
18581TIP3    H277159   1.129   1.639  12.184 -0.5490 -0.6963 -0.1274
18582TIP3   OH277160   1.009   0.346  15.819  0.6578 -0.5537  0.2456
18582TIP3    H177161   0.971   0.295  15.748  1.4172  0.6072 -1.0651
18582TIP3    H277162   1.062   0.284  15.869  0.6345 -1.2668 -0.6023
18583TIP3   OH277163   6.027   2.462   0.738 -0.0221  0.2429 -0.0176
18583TIP3    H177164   5.980   2.508   0.808  0.2247  0.4752 -0.0020
18583TIP3    H277165   5.992   2.499   0.657  1.1602  1.4868 -0.0011
18584TIP3   OH277166   5.364   1.367  13.264 -0.0312  0.2788  0.4256
18584TIP3    H177167   5.381   1.459  13.283  0.9798  0.1023  0.4100
18584TIP3    H277168   5.335   1.331  13.348  0.7114  0.3525  0.7184
18585TIP3   OH277169   1.088   6.516  11.119 -0.2294 -0.5065 -0.2301
18585TIP3    H177170   1.057   6.601  11.088 -1.4663 -1.0552 -0.5765
18585TIP3    H277171   1.051   6.508  11.207  2.1870  0.4759  0.9681
18586TIP3   OH277172   3.122   1.824   6.304 -0.3026 -0.2515 -0.0910
18586TIP3    H177173   3.053   1.869   6.353 -1.7978 -2.1045 -0.3956
18586TIP3    H277174   3.157   1.759   6.365 -0.2712 -0.7166 -0.5914
18587TIP3   OH277175   2.245   1.715   4.837  0.2720 -1.0354 -0.1918
18587TIP3    H177176   2.315   1.780   4.830  1.0621 -1.7390  0.7968
18587TIP3    H277177   2.226   1.690   4.747 -0.5613  1.0633 -0.6546
18588TIP3   OH277178   4.933   4.751  13.567 -0.6250  0.5221 -0.1308
18588TIP3    H177179   4.898   4.667  13.596 -1.6785  1.2056  0.6659
18588TIP3    H277180   4.926   4.808  13.644 -0.8554  1.6140 -0.9398
18589TIP3   OH277181   2.069   4.427   1.350 -0.0742 -0.3126  0.7154
18589TIP3    H177182   2.142   4.414   1.411  1.7800 -3.3440 -1.8142
18589TIP3    H277183   1.991   4.410   1.402  1.3906 -2.2952  2.4297
18590TIP3   OH277184   5.990   1.828   0.476 -0.2847 -0.2919 -0.5431
18590TIP3    H177185   6.031   1.876   0.404  0.2862 -0.4165 -0.3099
18590TIP3    H277186   5.997   1.888   0.551 -2.2978  0.4946 -0.9305
18591TIP3   OH277187   3.697   6.419   6.287 -0.1738 -0.7641 -0.0403
18591TIP3    H177188   3.661   6.482   6.350 -1.3160 -0.1822 -1.2147
18591TIP3    H277189   3.736   6.474   6.218 -0.5365 -1.3453 -0.7196
18592TIP3   OH277190   4.731   5.500   3.125 -0.0388  0.4125 -0.0113
18592TIP3    H177191   4.780   5.419   3.113 -1.2522 -0.5224  1.0548
18592TIP3    H277192   4.791   5.558   3.173  0.3211 -0.4156  0.5626
18593TIP3   OH277193   4.260   2.016  12.825  0.0268  0.1122  0.5665
18593TIP3    H177194   4.282   2.071  12.901 -1.6081  0.2133  1.0244
18593TIP3    H277195   4.256   2.077  12.752 -2.4780  0.8419  1.1988
18594TIP3   OH277196   5.688   3.908   1.853  0.0547 -0.4747 -0.1058
18594TIP3    H177197   5.642   3.882   1.933 -0.4847 -0.3743 -0.3768
18594TIP3    H277198   5.622   3.898   1.784  1.0864 -2.6001 -0.8746
18595TIP3   OH277199   1.624   3.372   5.388 -0.2129 -0.2348  0.0842
18595TIP3    H177200   1.580   3.312   5.328 -0.3716  1.6551 -1.8224
18595TIP3    H277201   1.576   3.455   5.380  2.0809  1.1840 -0.1493
18596TIP3   OH277202   5.164   2.553  15.000  0.4506  0.1770  0.0779
18596TIP3    H177203   5.080   2.509  15.016 -1.0389  2.4293 -1.0092
18596TIP3    H277204   5.162   2.574  14.907  1.0984  2.3998  0.5184
18597TIP3   OH277205   5.568   6.200   0.620 -0.6310  0.2122 -0.2119
18597TIP3    H177206   5.558   6.216   0.714  0.5037  2.3227 -0.4035
18597TIP3    H277207   5.629   6.126   0.614 -1.1296 -0.2886  0.6889
18598TIP3   OH277208   2.295   5.254   1.327  0.4049  0.4122  0.0054
18598TIP3    H177209   2.302   5.267   1.233 -0.3808 -0.9049 -0.2656
18598TIP3    H277210   2.279   5.341   1.363  2.9326  1.3042 -0.8176
18599TIP3   OH277211   1.943   4.476   1.753 -0.1549 -0.3636  0.2752
18599TIP3    H177212   1.950   4.387   1.786  2.6574 -0.5771 -0.6583
18599TIP3    H277213   1.916   4.465   1.661 -0.2541 -0.2188  0.2865
18600TIP3   OH277214   1.142   4.175  13.521  0.1942 -0.3918  0.3351
18600TIP3    H177215   1.173   4.138  13.604 -1.1162  0.0549  1.0424
18600TIP3    H277216   1.213   4.157  13.459 -0.1281 -3.6464  0.7346
18601TIP3   OH277217   2.293   2.457   4.207 -0.1249  0.2335 -0.0327
18601TIP3    H177218   2.357   2.527   4.195 -1.2722  1.2127 -0.6470
18601TIP3    H277219   2.284   2.418   4.120 -1.7830  1.3974 -0.4234
18602TIP3   OH277220   3.536   5.226  13.441  0.1987  0.2434 -0.0795
18602TIP3    H177221   3.599   5.295  13.418  0.4164  0.2375  0.4842
18602TIP3    H277222   3.575   5.146  13.406  1.6110 -0.1132  2.1078
18603TIP3   OH277223   6.352   2.372   6.065  0.2287  0.4454  0.6336
18603TIP3    H177224   6.297   2.442   6.031 -1.4101 -0.9530  0.2127
18603TIP3    H277225   6.339   2.375   6.160 -1.2159 -0.3062  0.4929
18604TIP3   OH277226   0.602   1.325  11.180  0.3507  0.4894  0.2463
18604TIP3    H177227   0.672   1.383  11.150  0.6351 -0.0142 -0.0837
18604TIP3    H277228   0.602   1.253  11.117  1.5820 -1.0758  1.9228
18605TIP3   OH277229   2.122   4.393  14.368 -0.0632 -0.5487 -0.2613
18605TIP3    H177230   2.152   4.381  14.458  2.4525 -1.3804 -1.0934
18605TIP3    H277231   2.158   4.478  14.342 -1.7683  0.2325 -0.1649
18606TIP3   OH277232   4.938   3.278   4.722 -0.4671 -0.0994 -0.2008
18606TIP3    H177233   4.877   3.304   4.791  1.3216 -3.0989  2.8254
18606TIP3    H277234   4.885   3.229   4.659 -1.6556 -0.2548  0.8876
18607TIP3   OH277235   0.482   1.338   0.029 -0.8700 -0.1051  0.3762
18607TIP3    H177236   0.538   1.319  -0.046 -0.4150  1.0976  0.3878
18607TIP3    H277237   0.482   1.434   0.035 -2.6391 -0.0880  0.6022
18608TIP3   OH277238   6.566   2.976   0.113  0.1748  0.0674 -0.6887
18608TIP3    H177239   6.541   3.065   0.135 -0.7742 -0.7317  1.7939
18608TIP3    H277240   6.662   2.977   0.113  0.2253  0.7190  1.3787
18609TIP3   OH277241   4.745   4.258  15.923  0.2838 -0.4685  0.5070
18609TIP3    H177242   4.840   4.249  15.916  0.4404  1.7531 -1.4604
18609TIP3    H277243   4.723   4.330  15.864 -2.6703 -1.0243  0.7660
18610TIP3   OH277244   0.670   2.488   1.918  0.9794  0.4472  0.3455
18610TIP3    H177245   0.615   2.561   1.889  1.6594  0.9561  0.3219
18610TIP3    H277246   0.646   2.416   1.859  1.6719  1.2040 -0.9201
18611TIP3   OH277247   1.910   2.457   2.925  0.5076  0.5816  0.4334
18611TIP3    H177248   1.858   2.379   2.946  1.7716 -0.3732  0.1189
18611TIP3    H277249   1.971   2.466   2.998  0.6160  1.0547  0.2874
18612TIP3   OH277250   1.773   0.952   0.694 -0.0810 -0.4882  0.7026
18612TIP3    H177251   1.806   1.039   0.719  0.5135 -0.7871  0.9673
18612TIP3    H277252   1.736   0.965   0.607  0.3221 -0.0489  0.5917
18613TIP3   OH277253   0.317   3.992   0.591  0.2668 -0.0628  0.4207
18613TIP3    H177254   0.258   4.065   0.569  0.3851 -0.5879 -1.7881
18613TIP3    H277255   0.258   3.919   0.609  0.1702 -0.5044 -1.4862
18614TIP3   OH277256   1.075   0.482  12.665 -0.3637  0.0094  0.4116
18614TIP3    H177257   1.006   0.548  12.657  0.5712  1.0416  0.5218
18614TIP3    H277258   1.077   0.461  12.759  1.2990  2.1174  0.9545
18615TIP3   OH277259   4.665   4.142   4.635 -0.0774  0.2025 -0.2882
18615TIP3    H177260   4.742   4.088   4.651 -0.5125 -0.6988 -1.1160
18615TIP3    H277261   4.669   4.211   4.701  1.3042  0.0318 -0.1726
18616TIP3   OH277262   5.191   6.454  16.953 -0.2864  0.0861 -0.4617
18616TIP3    H177263   5.237   6.396  16.892 -0.1260 -0.1067 -0.1650
18616TIP3    H277264   5.116   6.487  16.905 -1.0437 -1.3010 -0.2535
18617TIP3   OH277265   2.339   1.517   1.348 -0.3298  0.7938  0.1381
18617TIP3    H177266   2.297   1.541   1.430  0.8772 -0.8596  1.2997
18617TIP3    H277267   2.412   1.578   1.339  0.0181  0.4781  0.7368
18618TIP3   OH277268   5.927   4.311   4.390  0.0918  0.3298 -0.1885
18618TIP3    H177269   6.007   4.361   4.381 -1.1820  2.6702  0.6792
18618TIP3    H277270   5.862   4.359   4.339 -0.9513 -1.1054 -0.2872
18619TIP3   OH277271   3.895   4.582   0.899 -0.5162  0.1742 -0.2571
18619TIP3    H177272   3.861   4.600   0.986  3.1673 -2.0471  1.8929
18619TIP3    H277273   3.876   4.489   0.883  1.7785 -0.3685 -0.1996
18620TIP3   OH277274   3.666   3.758  16.912 -0.0243  0.1422 -0.4900
18620TIP3    H177275   3.598   3.817  16.945  0.7911 -0.1165  1.8007
18620TIP3    H277276   3.641   3.742  16.821 -3.6930 -0.8245  0.4900
18621TIP3   OH277277   4.988   6.180   3.213  0.1035  0.1988 -0.6431
18621TIP3    H177278   4.990   6.248   3.280 -0.3311 -0.1896 -0.2349
18621TIP3    H277279   5.076   6.183   3.174  1.5038 -1.6732  2.0453
18622TIP3   OH277280   4.847   3.269  15.994  0.0927  0.3852 -0.3613
18622TIP3    H177281   4.767   3.316  15.972  0.6379  0.4989 -2.2317
18622TIP3    H277282   4.917   3.331  15.975  0.7347 -0.5408 -1.0976
18623TIP3   OH277283   3.401   3.043   3.525  0.2609 -0.5222  0.7944
18623TIP3    H177284   3.385   2.959   3.567  1.9682 -2.4081 -2.0187
18623TIP3    H277285   3.348   3.042   3.446 -1.0244  1.8779  1.5212
18624TIP3   OH277286   4.521   6.342   0.883 -0.2709  0.0913 -0.9211
18624TIP3    H177287   4.536   6.252   0.912 -0.2979  0.6746  0.9905
18624TIP3    H277288   4.438   6.367   0.924  0.9708  1.8151  0.6542
18625TIP3   OH277289   6.003   1.942  15.277  0.8664  0.1082  0.1559
18625TIP3    H177290   5.923   1.891  15.263  1.3355 -0.5083 -0.2897
18625TIP3    H277291   6.071   1.893  15.232  1.4608  0.7506  0.3457
18626TIP3   OH277292   2.655   1.284   0.616  0.6082 -0.2506 -0.3738
18626TIP3    H177293   2.666   1.260   0.524  0.5082  2.1162 -1.0722
18626TIP3    H277294   2.560   1.292   0.627  0.3397 -3.6123  0.8874
18627TIP3   OH277295   0.454   0.241   1.522 -0.8240  0.2275  0.6165
18627TIP3    H177296   0.437   0.188   1.600 -2.0298  0.7709  0.7511
18627TIP3    H277297   0.532   0.202   1.483 -0.5561 -0.4341  1.7600
18628TIP3   OH277298   0.194   3.592  13.513  0.0004  0.4694 -0.2468
18628TIP3    H177299   0.181   3.590  13.608 -1.5201 -0.9691 -0.4302
18628TIP3    H277300   0.232   3.507  13.492 -2.0344 -0.2820 -1.1557
18629TIP3   OH277301   0.820   1.788   1.540  0.0137  0.0756 -0.1728
18629TIP3    H177302   0.745   1.795   1.599  0.1321 -1.0903  0.1472
18629TIP3    H277303   0.859   1.875   1.541  0.6485 -0.1450  2.3493
18630TIP3   OH277304   4.589   1.398   6.048  0.1995  0.2743 -0.0663
18630TIP3    H177305   4.497   1.410   6.024  0.7730 -1.1120 -3.5617
18630TIP3    H277306   4.588   1.323   6.107 -0.9661  1.0592  0.9822
18631TIP3   OH277307   1.682   4.890  13.617  0.2535 -0.1232  0.4794
18631TIP3    H177308   1.715   4.831  13.685 -0.9251 -1.5682 -0.1544
18631TIP3    H277309   1.615   4.942  13.661 -0.0109 -0.5645  0.6055
18632TIP3   OH277310   4.077   0.517  14.070 -0.5836 -0.8057 -0.3107
18632TIP3    H177311   4.077   0.582  14.000 -1.0054 -2.1334 -1.6232
18632TIP3    H277312   4.084   0.567  14.151 -0.3364  0.8065 -1.2919
18633TIP3   OH277313   1.346   3.748  13.421  0.0514 -0.4564 -0.5912
18633TIP3    H177314   1.253   3.740  13.402 -0.0365 -2.6114  0.4748
18633TIP3    H277315   1.380   3.659  13.415  1.3317 -0.2910  2.3324
18634TIP3   OH277316   2.183   5.012   1.389 -0.1448 -0.2062 -0.1998
18634TIP3    H177317   2.245   5.048   1.326 -0.4019 -0.9381 -0.8872
18634TIP3    H277318   2.099   5.052   1.366 -0.4289 -1.1867 -0.9570
18635TIP3   OH277319   3.947   6.382  12.845  0.2033  0.1352  0.2153
18635TIP3    H177320   3.995   6.329  12.910  0.2621  0.2986  0.3041
18635TIP3    H277321   3.906   6.451  12.896 -2.2301 -1.4094  0.5420
18636TIP3   OH277322   3.212   4.084   4.381  0.0353  0.3139 -0.0114
18636TIP3    H177323   3.277   4.087   4.451  0.3518  1.3871 -0.3316
18636TIP3    H277324   3.207   3.991   4.356 -1.5486 -0.4646  2.7572
18637TIP3   OH277325   4.998   6.537   4.291  0.0928 -0.0912 -0.2099
18637TIP3    H177326   5.004   6.583   4.375 -0.3418  1.6082 -1.0621
18637TIP3    H277327   5.074   6.568   4.241  0.2252 -0.9096 -0.5304
18638TIP3   OH277328   4.354   2.294   2.314 -0.1110  0.1573  0.4009
18638TIP3    H177329   4.360   2.228   2.384  2.1215  1.1755  1.2518
18638TIP3    H277330   4.266   2.330   2.324  0.6181  1.4196  3.8620
18639TIP3   OH277331   1.886   1.980   5.448 -0.0843  0.0175  0.1208
18639TIP3    H177332   1.941   1.969   5.526  0.8570 -2.6239 -0.7897
18639TIP3    H277333   1.798   1.959   5.477 -0.1963  1.4892  0.9649
18640TIP3   OH277334   1.887   0.661  11.681 -1.0423  0.4655 -0.0169
18640TIP3    H177335   1.825   0.681  11.751 -1.1453 -0.5099  0.1731
18640TIP3    H277336   1.834   0.665  11.601 -1.1992  0.2958  0.0801
18641TIP3   OH277337   0.550   0.177   3.645  0.4080 -0.1137 -0.3929
18641TIP3    H177338   0.592   0.107   3.595  1.0302  0.4273 -0.6272
18641TIP3    H277339   0.460   0.178   3.613  0.2614 -1.1112 -0.0679
18642TIP3   OH277340   3.142   2.604   6.718  0.9275  0.0620  0.3124
18642TIP3    H177341   3.148   2.687   6.670 -0.4032  0.0956  0.1642
18642TIP3    H277342   3.084   2.549   6.664  0.3493 -0.3118  1.2885
18643TIP3   OH277343   1.583   4.145   6.313  0.1171  0.7064  0.2651
18643TIP3    H177344   1.660   4.201   6.322  1.4061 -0.6096 -1.7583
18643TIP3    H277345   1.528   4.190   6.249 -0.5645  1.3410  1.2584
18644TIP3   OH277346   2.628   3.242   5.135 -0.2974 -0.2095 -0.4571
18644TIP3    H177347   2.704   3.295   5.156  0.1321  0.0187 -2.4047
18644TIP3    H277348   2.663   3.153   5.125 -0.4496 -0.2773 -0.3911
18645TIP3   OH277349   3.604   5.165   2.793  0.1761  0.4550 -0.6627
18645TIP3    H177350   3.638   5.079   2.766  0.3582  0.4994 -0.5753
18645TIP3    H277351   3.511   5.150   2.809  0.0387  0.4582 -1.4449
18646TIP3   OH277352   1.129   3.601  11.801  0.4983  0.1970 -0.1794
18646TIP3    H177353   1.123   3.571  11.892 -2.1480  0.4941 -0.1640
18646TIP3    H277354   1.222   3.597  11.780  1.3450  1.1367  2.8853
18647TIP3   OH277355   2.499   3.264   1.801 -0.5108 -0.4805 -0.3301
18647TIP3    H177356   2.435   3.212   1.752  0.7549 -2.4152 -0.0335
18647TIP3    H277357   2.472   3.256   1.893 -0.0113 -1.1082 -0.2283
18648TIP3   OH277358   2.859   0.176  15.408 -0.5617 -0.4119  0.6624
18648TIP3    H177359   2.797   0.133  15.349 -0.9629 -0.6105  1.2177
18648TIP3    H277360   2.809   0.191  15.489 -0.8654  2.3118  0.0775
18649TIP3   OH277361   1.183   5.582   0.027 -0.5877  0.2934 -0.0316
18649TIP3    H177362   1.228   5.538   0.098  0.3432  1.3009  0.0269
18649TIP3    H277363   1.100   5.534   0.018 -0.0773 -0.7741  0.7182
18650TIP3   OH277364   4.760   3.412   5.681  0.5002  0.2165  0.2038
18650TIP3    H177365   4.694   3.478   5.702  0.9456  0.6446  0.2657
18650TIP3    H277366   4.799   3.389   5.766 -1.3831 -2.0113  0.5668
18651TIP3   OH277367   3.019   1.890   0.970 -0.3170  0.0556 -0.2636
18651TIP3    H177368   3.003   1.977   1.006 -1.3993  0.2153 -1.0923
18651TIP3    H277369   2.933   1.848   0.970  0.1158 -0.8478 -0.3075
18652TIP3   OH277370   5.039   1.610   1.511 -0.6642  0.5791 -0.1091
18652TIP3    H177371   4.996   1.544   1.566 -1.0426  2.4483  1.9447
18652TIP3    H277372   4.971   1.675   1.494  0.3676  1.7177  0.0394
18653TIP3   OH277373   0.310   5.883  13.109 -0.0456 -0.2709 -0.2778
18653TIP3    H177374   0.396   5.844  13.097  1.1006  1.9980 -0.0966
18653TIP3    H277375   0.257   5.815  13.149  2.4255 -0.9531  2.0583
18654TIP3   OH277376   1.682   4.523   3.764 -0.1032 -0.7564  0.1234
18654TIP3    H177377   1.599   4.540   3.809 -0.4417  0.9511 -1.0290
18654TIP3    H277378   1.660   4.529   3.671  1.5793  1.5405 -0.2157
18655TIP3   OH277379   4.540   1.576  13.726  0.2019 -0.2589 -0.3180
18655TIP3    H177380   4.515   1.656  13.773  2.3882  1.1547 -1.3994
18655TIP3    H277381   4.550   1.510  13.795 -0.7040  0.6450  0.7152
18656TIP3   OH277382   2.045   1.807  13.979  0.4102 -0.3847 -0.3546
18656TIP3    H177383   1.955   1.839  13.984  0.2979 -0.7562  0.0762
18656TIP3    H277384   2.062   1.772  14.066  0.2890 -2.1161 -0.9955
18657TIP3   OH277385   1.265   4.133   5.561  0.1966 -0.2127 -0.3932
18657TIP3    H177386   1.321   4.150   5.637 -0.6515 -0.2523  0.2497
18657TIP3    H277387   1.256   4.038   5.558  0.1504 -0.2057 -0.4912
18658TIP3   OH277388   4.499   5.934   3.637  0.0556 -0.5003 -0.1487
18658TIP3    H177389   4.469   5.893   3.719  0.7912  0.0238  0.4025
18658TIP3    H277390   4.420   5.968   3.596 -0.1999  0.2289  0.9139
18659TIP3   OH277391   6.016   1.945  11.201  0.4223 -0.3738 -0.0153
18659TIP3    H177392   6.019   2.041  11.195  1.8900 -0.4561 -1.5133
18659TIP3    H277393   5.976   1.917  11.119 -0.3075 -1.0490  0.5599
18660TIP3   OH277394   6.503   5.010  13.512  0.4820 -0.2705 -0.3656
18660TIP3    H177395   6.495   5.071  13.438  0.4405  1.0229  0.6607
18660TIP3    H277396   6.533   5.065  13.585  4.1264 -2.1236 -0.2522
18661TIP3   OH277397   0.685   1.814  13.504  0.2908 -0.0881  0.6523
18661TIP3    H177398   0.661   1.721  13.514  1.2010 -0.1896  2.2112
18661TIP3    H277399   0.772   1.820  13.542 -0.0682  1.5670  1.2629
18662TIP3   OH277400   4.276   2.881   5.163  0.5543 -0.1064  0.0371
18662TIP3    H177401   4.231   2.940   5.103  0.9281  1.9955  1.7244
18662TIP3    H277402   4.223   2.802   5.163 -0.7725  0.7335 -1.2141
18663TIP3   OH277403   5.875   0.116  16.880 -0.2958  0.0658 -0.3834
18663TIP3    H177404   5.823   0.194  16.897 -2.0482 -0.6664 -2.0934
18663TIP3    H277405   5.833   0.048  16.932  0.1953 -0.1184 -0.2205
18664TIP3   OH277406   6.735   3.728  15.593 -0.7049 -0.2499 -0.3010
18664TIP3    H177407   6.775   3.811  15.568  0.1777 -1.4611 -3.4334
18664TIP3    H277408   6.660   3.753  15.646  0.6078  2.4206  0.5010
18665TIP3   OH277409   2.955   3.391  12.645  0.1016  0.3652 -0.2158
18665TIP3    H177410   3.026   3.443  12.682 -1.0594  1.2086  0.9283
18665TIP3    H277411   2.946   3.421  12.555 -0.1300  1.7188  0.2441
18666TIP3   OH277412   4.742   5.204   0.655 -0.1759 -0.3395  0.0024
18666TIP3    H177413   4.691   5.152   0.594 -0.1731 -0.3344 -0.0046
18666TIP3    H277414   4.698   5.193   0.740  0.5807 -1.4085  0.2728
18667TIP3   OH277415   2.971   5.246   1.656  0.5024 -0.3345  0.0662
18667TIP3    H177416   2.950   5.324   1.604  1.6504  0.3529  0.5981
18667TIP3    H277417   2.921   5.257   1.737 -0.8087 -1.1050 -0.6034
18668TIP3   OH277418   2.456   5.913  12.901 -0.2958 -0.0776 -0.7673
18668TIP3    H177419   2.517   5.840  12.911 -1.3977 -0.7807  1.5024
18668TIP3    H277420   2.505   5.990  12.931 -0.3310 -0.5469  0.5229
18669TIP3   OH277421   4.917   5.150  12.316 -0.0649 -0.0367 -0.1462
18669TIP3    H177422   4.934   5.244  12.320  0.4662 -0.1548  1.8774
18669TIP3    H277423   4.834   5.142  12.270  0.0507  1.4021 -0.6357
18670TIP3   OH277424   2.190   1.763  12.492 -0.1602  0.2416 -0.1217
18670TIP3    H177425   2.169   1.721  12.409 -1.4274 -1.4951  0.9985
18670TIP3    H277426   2.279   1.733  12.513 -0.1420  0.0369 -0.4844
18671TIP3   OH277427   5.963   6.499  10.593  0.9893 -0.2342  0.3239
18671TIP3    H177428   6.056   6.489  10.609  1.0981 -0.4755 -0.3942
18671TIP3    H277429   5.957   6.566  10.525  0.6329 -0.1063  0.4805
18672TIP3   OH277430   3.388   0.361   2.182 -0.5859 -0.3238  0.1299
18672TIP3    H177431   3.391   0.299   2.109 -2.3004  1.0417 -1.1922
18672TIP3    H277432   3.295   0.382   2.192 -0.3955 -0.4717  2.7637
18673TIP3   OH277433   3.708   1.891  12.589  0.4099 -0.6254 -0.1716
18673TIP3    H177434   3.637   1.937  12.633  1.6558  0.2058  1.0689
18673TIP3    H277435   3.672   1.867  12.504 -0.2239  3.0783 -1.1259
18674TIP3   OH277436   4.653   2.165   0.368  0.2677  0.1211  0.0125
18674TIP3    H177437   4.642   2.221   0.445 -1.3879  0.1107 -0.1696
18674TIP3    H277438   4.612   2.083   0.393  0.8877 -0.3317 -0.4363
18675TIP3   OH277439   1.290   5.175  12.383 -0.1325  0.1362 -0.4206
18675TIP3    H177440   1.348   5.107  12.418  0.7219 -0.1100 -2.2028
18675TIP3    H277441   1.320   5.188  12.293 -3.5412 -0.7874 -1.8481
18676TIP3   OH277442   2.130   3.161  11.549 -0.5914  0.1678 -0.4156
18676TIP3    H177443   2.108   3.142  11.640  0.1295  0.2178 -0.2327
18676TIP3    H277444   2.132   3.256  11.543  1.0225  0.1710 -0.0772
18677TIP3   OH277445   0.413   6.533   1.067 -0.1525 -0.2676  0.1679
18677TIP3    H177446   0.446   6.485   1.143 -2.4334 -1.6307  0.4004
18677TIP3    H277447   0.417   6.469   0.996  1.8802  0.9725 -0.9029
18678TIP3   OH277448   3.235   3.003   1.993 -0.4164 -0.8608  0.4794
18678TIP3    H177449   3.291   3.010   1.915  1.4337 -0.9118  1.7416
18678TIP3    H277450   3.146   3.001   1.958  0.3883 -2.2515 -1.7360
18679TIP3   OH277451   2.078   6.683   2.942 -0.2983 -0.0491  0.0526
18679TIP3    H177452   2.038   6.626   2.876  0.3076 -1.8361  1.1802
18679TIP3    H277453   2.031   6.662   3.023  1.1666 -0.3154  0.8627
18680TIP3   OH277454   6.345   1.486  15.762 -0.6683 -0.4987  0.4669
18680TIP3    H177455   6.429   1.521  15.790 -0.8353  0.1376  0.1930
18680TIP3    H277456   6.367   1.409  15.709 -0.1716  0.6600 -1.0518
18681TIP3   OH277457   1.884   0.763   5.761 -0.5908  0.4134  0.2583
18681TIP3    H177458   1.952   0.704   5.795  2.1410  2.8921 -0.5231
18681TIP3    H277459   1.894   0.759   5.666 -1.2427  1.1838  0.1482
18682TIP3   OH277460   0.841   5.032   0.466 -0.2021  0.4208  0.2026
18682TIP3    H177461   0.936   5.038   0.472  0.1442 -1.5028 -1.9845
18682TIP3    H277462   0.820   4.949   0.509 -0.8898  0.7812  0.5739
18683TIP3   OH277463   2.711   2.070  15.502 -0.3896 -0.1619  0.1308
18683TIP3    H177464   2.807   2.067  15.498 -0.3088  0.2755  1.2416
18683TIP3    H277465   2.684   1.979  15.496 -0.0616 -0.1559 -2.5738
18684TIP3   OH277466   1.650   5.386   6.068  0.4848 -0.7602  0.1902
18684TIP3    H177467   1.731   5.350   6.032  0.4890 -0.4966 -0.0633
18684TIP3    H277468   1.593   5.401   5.993  0.6032  0.0609  0.2491
18685TIP3   OH277469   2.911   6.226   3.189 -0.0220 -0.5868 -0.1720
18685TIP3    H177470   2.973   6.260   3.124 -1.6100  1.4131 -0.7403
18685TIP3    H277471   2.966   6.180   3.252  1.6563 -2.0447 -2.5208
18686TIP3   OH277472   0.413   3.604  14.228 -0.5442  0.0838 -0.0006
18686TIP3    H177473   0.353   3.596  14.302 -1.5036 -2.7387 -0.9592
18686TIP3    H277474   0.356   3.604  14.151  0.4293  2.9942 -0.8324
18687TIP3   OH277475   5.145   5.292   2.644 -0.2141 -0.1570  0.3253
18687TIP3    H177476   5.211   5.315   2.578  0.0336 -0.2912  0.5260
18687TIP3    H277477   5.129   5.199   2.630 -0.7687 -0.0005 -0.0862
18688TIP3   OH277478   3.779   0.235   4.787  0.2464 -0.9411 -0.7352
18688TIP3    H177479   3.700   0.194   4.823  0.6155 -0.1050  1.1231
18688TIP3    H277480   3.850   0.204   4.843  0.5587  2.0763  0.7094
18689TIP3   OH277481   5.091   1.608  12.650  0.1943 -0.2595 -0.4442
18689TIP3    H177482   5.076   1.519  12.684 -1.4411  0.0924 -0.1632
18689TIP3    H277483   5.045   1.665  12.711  0.3450  0.6970 -1.2020
18690TIP3   OH277484   1.970   2.685  15.474  0.4994  0.3180  0.2428
18690TIP3    H177485   2.033   2.710  15.541  2.2308  0.2907 -1.2876
18690TIP3    H277486   1.972   2.589  15.473  0.2372  0.3116  0.3746
18691TIP3   OH277487   3.783   6.041  15.043  0.0191  0.6011 -0.4297
18691TIP3    H177488   3.852   6.020  14.980 -0.0410 -0.1253 -0.2619
18691TIP3    H277489   3.703   6.040  14.990  0.2194  2.4290 -0.8309
18692TIP3   OH277490   6.183   4.374   5.425  0.2886 -0.6547  0.0989
18692TIP3    H177491   6.267   4.419   5.433  0.2657 -0.3041 -1.3568
18692TIP3    H277492   6.190   4.324   5.344 -1.5049  0.8133 -1.0534
18693TIP3   OH277493   1.522   3.501  13.059  0.7574  0.3628  0.0622
18693TIP3    H177494   1.500   3.594  13.047  2.5363  1.0303  1.3975
18693TIP3    H277495   1.584   3.482  12.989  2.3374  0.9763  1.2132
18694TIP3   OH277496   2.114   3.303  15.538 -0.6753 -0.2106 -0.6181
18694TIP3    H177497   2.119   3.267  15.627  4.2315 -0.1184 -0.5922
18694TIP3    H277498   2.037   3.359  15.540 -1.2146 -0.7756  3.3413
18695TIP3   OH277499   3.992   5.348  12.711 -0.2816 -0.0456  0.1108
18695TIP3    H177500   3.963   5.439  12.715 -0.4927 -0.1232  0.3849
18695TIP3    H277501   3.912   5.298  12.695 -0.7160 -0.4665  3.0821
18696TIP3   OH277502   6.682   4.463  13.170 -0.4626 -0.0711 -0.2770
18696TIP3    H177503   6.669   4.557  13.157 -1.0812 -0.2309 -0.8164
18696TIP3    H277504   6.594   4.426  13.169 -0.2881 -0.5619  0.7930
18697TIP3   OH277505   2.535   2.637   2.533  0.4630 -0.0801 -0.1819
18697TIP3    H177506   2.456   2.595   2.500 -0.7860  2.2747 -0.3841
18697TIP3    H277507   2.593   2.643   2.456 -0.1972  0.4469 -0.6469
18698TIP3   OH277508   5.940   5.528  11.825 -0.1705 -0.3312 -0.1832
18698TIP3    H177509   5.874   5.566  11.883 -1.8866 -1.8884 -1.0036
18698TIP3    H277510   5.915   5.560  11.738  1.7679  1.1566 -0.2631
18699TIP3   OH277511   2.346   2.384   3.957 -0.1742 -0.3321 -0.2832
18699TIP3    H177512   2.282   2.323   3.921  1.6679 -1.2785 -2.1792
18699TIP3    H277513   2.332   2.465   3.907 -0.5770 -0.2069  0.0347
18700TIP3   OH277514   3.346   5.217   5.613  0.9342 -0.1691 -0.0927
18700TIP3    H177515   3.380   5.210   5.702 -0.0829 -1.7883  0.2145
18700TIP3    H277516   3.254   5.192   5.621  0.7405 -0.0200 -1.5545
18701TIP3   OH277517   1.301   5.566  12.211 -0.1920  0.4034 -0.4707
18701TIP3    H177518   1.342   5.639  12.164 -0.7522 -0.3890 -2.2867
18701TIP3    H277519   1.325   5.489  12.160  1.3463 -0.9032  2.0523
18702TIP3   OH277520   2.985   2.230  11.963 -0.5740 -0.0980  0.2227
18702TIP3    H177521   2.949   2.145  11.988  0.6629 -0.4941  0.7248
18702TIP3    H277522   3.080   2.217  11.963 -0.1939  1.8630  2.6367
18703TIP3   OH277523   5.719   5.169  15.279  0.4949  0.0295  0.0081
18703TIP3    H177524   5.719   5.184  15.374 -0.9547  0.6834 -0.0759
18703TIP3    H277525   5.712   5.074  15.270  1.7754 -0.1335  0.5446
18704TIP3   OH277526   3.620   6.042   4.667  0.6022 -0.1157 -0.8541
18704TIP3    H177527   3.600   6.100   4.593  0.1556 -0.6171 -1.1340
18704TIP3    H277528   3.538   6.032   4.714  0.4686 -1.1334 -1.2569
18705TIP3   OH277529   3.557   2.338  13.806 -0.4149 -0.7653 -0.1300
18705TIP3    H177530   3.644   2.319  13.841 -0.6776 -1.1650  0.3162
18705TIP3    H277531   3.563   2.318  13.713  0.4021  0.6530 -0.4219
18706TIP3   OH277532   5.589   5.554  13.295  0.2590  0.2365  0.3870
18706TIP3    H177533   5.668   5.583  13.249  0.6959  0.0411  1.0057
18706TIP3    H277534   5.589   5.604  13.376 -0.4503  0.4965  0.2258
18707TIP3   OH277535   4.451   3.094   4.116 -0.9868  0.1193 -0.3287
18707TIP3    H177536   4.416   3.127   4.199 -1.4919  0.7390 -0.7788
18707TIP3    H277537   4.446   2.999   4.123 -0.5251  0.1517  0.5635
18708TIP3   OH277538   0.979   4.322   4.798  0.1051 -0.5990  0.3136
18708TIP3    H177539   0.988   4.262   4.872  0.1483 -1.1289 -0.1131
18708TIP3    H277540   0.901   4.293   4.752 -0.9263  0.7984  1.0977
18709TIP3   OH277541   3.170   1.833  14.106  0.1426 -0.4420 -0.7214
18709TIP3    H177542   3.259   1.838  14.069 -0.2883 -0.0491 -1.7350
18709TIP3    H277543   3.184   1.813  14.199  1.2989 -0.1282 -0.8140
18710TIP3   OH277544   5.777   5.300   1.153 -0.1769  0.2972 -0.2299
18710TIP3    H177545   5.765   5.332   1.242 -0.2896  0.0625 -0.1576
18710TIP3    H277546   5.858   5.249   1.157  0.0912  0.7121 -0.3835
18711TIP3   OH277547   5.556   4.512  16.095  0.3714 -0.3193  0.3923
18711TIP3    H177548   5.577   4.470  16.178  1.6469  0.1868  0.3531
18711TIP3    H277549   5.642   4.528  16.055 -0.0207  2.6896  0.5801
18712TIP3   OH277550   0.065   5.410   1.962 -0.5681  0.3140 -0.0407
18712TIP3    H177551   0.032   5.348   2.027 -0.5220 -0.0093 -0.3223
18712TIP3    H277552  -0.014   5.454   1.928 -0.6935 -0.2925 -0.5459
18713TIP3   OH277553   1.579   3.791   1.971 -0.2616  0.2130 -0.2870
18713TIP3    H177554   1.660   3.840   1.981 -1.0386  1.3078  1.0283
18713TIP3    H277555   1.519   3.852   1.929 -1.5788  0.9027  2.3680
18714TIP3   OH277556   6.079   0.972   4.924 -0.4067 -0.0452 -0.2315
18714TIP3    H177557   6.142   0.975   4.996 -1.1803 -1.7444  0.5989
18714TIP3    H277558   6.129   0.937   4.850 -0.3087 -1.2544  0.3798
18715TIP3   OH277559   4.631   5.090   4.409 -0.0519  0.0956  0.1231
18715TIP3    H177560   4.555   5.035   4.389 -0.9716  0.0451  3.2151
18715TIP3    H277561   4.613   5.173   4.365 -1.9633  0.1060  0.8471
18716TIP3   OH277562   2.762   4.911  14.315  0.2665 -0.0646  0.0187
18716TIP3    H177563   2.732   4.830  14.274  2.0575 -0.1805 -1.1469
18716TIP3    H277564   2.753   4.977  14.247  0.4477  0.3656  0.4110
18717TIP3   OH277565   3.374   5.401  13.824  0.1156  0.5967  0.0147
18717TIP3    H177566   3.283   5.427  13.831 -0.3875 -0.8535 -0.6783
18717TIP3    H277567   3.411   5.457  13.756 -0.6144  0.3159 -0.6236
18718TIP3   OH277568   1.354   1.766   2.982  0.0429  0.1202 -0.4961
18718TIP3    H177569   1.318   1.778   2.894  1.0312 -0.2054 -0.9598
18718TIP3    H277570   1.444   1.739   2.967  0.1308 -0.2365  0.6235
18719TIP3   OH277571   1.436   5.680   1.962  0.0980 -0.1435  0.2442
18719TIP3    H177572   1.363   5.662   1.902  0.9532 -1.9457 -0.3213
18719TIP3    H277573   1.396   5.678   2.049 -0.4257 -2.0957  0.0215
18720TIP3   OH277574   4.624   6.094   0.925 -0.1946 -0.0868 -0.4776
18720TIP3    H177575   4.681   6.052   0.990 -1.5263 -1.7242 -0.2915
18720TIP3    H277576   4.656   6.062   0.841 -1.1178 -1.4716 -0.3431
18721TIP3   OH277577   0.283   3.187  13.023  0.1509  0.0410  0.2234
18721TIP3    H177578   0.233   3.259  13.061  1.4193  0.8116  0.4867
18721TIP3    H277579   0.364   3.185  13.073  1.2615  0.1713 -1.4850
18722TIP3   OH277580   3.918   0.306  16.282 -0.8072  0.1375  0.2265
18722TIP3    H177581   3.865   0.274  16.209  1.1964  0.1534 -1.3236
18722TIP3    H277582   3.988   0.356  16.241 -0.0968  0.9069  2.2391
18723TIP3   OH277583   3.310   4.049  16.781  0.8603 -0.2764 -0.3945
18723TIP3    H177584   3.357   4.132  16.774 -1.9377  1.6329  1.5711
18723TIP3    H277585   3.289   4.026  16.690  0.0031  2.2399 -0.9103
18724TIP3   OH277586   5.698   5.069  11.520  0.2895  0.0428 -0.4298
18724TIP3    H177587   5.700   5.022  11.437  1.9013  0.3338 -0.5902
18724TIP3    H277588   5.742   5.152  11.502  1.5676 -0.2949  0.9283
18725TIP3   OH277589   4.334   1.692  11.848 -0.7657 -0.6266  0.2560
18725TIP3    H177590   4.330   1.764  11.910 -1.8180 -1.2285  0.9332
18725TIP3    H277591   4.249   1.648  11.857 -0.8759 -0.8422 -1.4862
18726TIP3   OH277592   0.753   1.283  13.048 -0.3216  0.5421 -0.3638
18726TIP3    H177593   0.691   1.210  13.042  0.6298 -0.1672 -2.1470
18726TIP3    H277594   0.702   1.360  13.022 -1.0239  0.3595  0.4031
18727TIP3   OH277595   6.176   6.791  16.555 -0.2893 -1.0819  0.3724
18727TIP3    H177596   6.120   6.714  16.544 -0.5751 -0.9700  0.9911
18727TIP3    H277597   6.242   6.783  16.486 -2.5409  0.1256 -2.0897
18728TIP3   OH277598   1.830   1.265   5.639  0.1663 -0.4626 -0.4360
18728TIP3    H177599   1.829   1.234   5.548  0.2519  0.9530 -0.9567
18728TIP3    H277600   1.899   1.332   5.640 -0.2265 -0.0621  0.5210
18729TIP3   OH277601   1.641   2.353   0.396 -0.0240 -0.1149 -0.2988
18729TIP3    H177602   1.679   2.374   0.481 -1.7120 -1.7495  0.9441
18729TIP3    H277603   1.593   2.272   0.411 -1.4126  0.2242 -2.5131
18730TIP3   OH277604   5.153   5.556   1.108 -0.4561 -0.1212 -0.3676
18730TIP3    H177605   5.225   5.595   1.059 -0.7157  0.9755  0.0764
18730TIP3    H277606   5.195   5.500   1.173 -0.0544 -0.4166 -0.8825
18731TIP3   OH277607   0.632   2.465   1.222  0.1047  0.2260 -0.5802
18731TIP3    H177608   0.705   2.403   1.229  1.0782  1.3017 -1.0253
18731TIP3    H277609   0.554   2.409   1.225  0.9585 -1.0931 -1.4905
18732TIP3   OH277610   3.559   3.295   1.994  0.6701 -0.4948  0.1020
18732TIP3    H177611   3.497   3.359   2.029  0.6648 -0.0704 -0.6673
18732TIP3    H277612   3.504   3.227   1.956  0.6143  0.5402 -1.8073
18733TIP3   OH277613   2.317   5.255   1.058 -0.4302  0.1322 -0.0211
18733TIP3    H177614   2.368   5.188   1.012 -1.2892 -2.0656  1.9877
18733TIP3    H277615   2.237   5.264   1.006 -0.4710 -0.7528 -0.1374
18734TIP3   OH277616   5.748   3.441  11.969 -0.4864 -0.2165 -0.0571
18734TIP3    H177617   5.780   3.521  12.012 -0.3790  0.1948 -0.8918
18734TIP3    H277618   5.749   3.375  12.039  0.1133  0.3277  0.4683
18735TIP3   OH277619   0.529   2.624   0.150 -0.6382 -0.4371 -0.3202
18735TIP3    H177620   0.581   2.549   0.180 -0.9893 -0.7360 -0.4485
18735TIP3    H277621   0.591   2.696   0.147  0.0265 -1.0201 -1.4759
18736TIP3   OH277622   4.059   3.853  16.557 -0.5642 -0.1220  0.3835
18736TIP3    H177623   4.126   3.828  16.621  1.7036  0.3338 -1.6325
18736TIP3    H277624   3.996   3.781  16.559  0.0455 -0.6742  2.2670
18737TIP3   OH277625   6.639   3.331  12.661 -0.3251  0.1222 -0.4424
18737TIP3    H177626   6.699   3.332  12.735 -0.3541  0.6167 -0.4279
18737TIP3    H277627   6.666   3.253  12.610 -1.4152 -1.2463  0.9826
18738TIP3   OH277628   2.482   2.314  14.390 -0.1795  0.2169 -0.0218
18738TIP3    H177629   2.572   2.337  14.413  0.9029 -2.2565 -1.2966
18738TIP3    H277630   2.445   2.278  14.470  0.4115  0.1280  0.2198
18739TIP3   OH277631   1.534   1.669   3.410  0.1023 -0.5309 -0.0621
18739TIP3    H177632   1.566   1.749   3.452 -0.1777 -0.4260 -0.0452
18739TIP3    H277633   1.439   1.680   3.407 -0.0648 -1.4628  1.1800
18740TIP3   OH277634   6.307   4.649   1.925 -0.1077  0.2251 -0.2702
18740TIP3    H177635   6.215   4.643   1.952 -0.1592  0.9124 -0.2760
18740TIP3    H277636   6.329   4.741   1.936 -0.3979  0.7668 -3.3863
18741TIP3   OH277637   6.436   5.304   2.127 -0.9711  0.1672  0.4443
18741TIP3    H177638   6.352   5.320   2.169 -0.6123  1.8150  0.6090
18741TIP3    H277639   6.418   5.308   2.033 -0.8688  2.1641  0.4496
18742TIP3   OH277640   3.670   5.634  11.670  0.2604  0.6872  0.0264
18742TIP3    H177641   3.744   5.675  11.714  1.7585 -2.6233  0.9305
18742TIP3    H277642   3.709   5.561  11.621 -2.4093 -1.6533  1.1106
18743TIP3   OH277643   3.179   0.968  14.083  0.4381  0.6746  0.0888
18743TIP3    H177644   3.209   0.937  13.998 -0.6185 -0.3426  0.0656
18743TIP3    H277645   3.165   1.062  14.072  2.4374  0.9922 -0.2121
18744TIP3   OH277646   2.172   5.892   1.569 -0.3841 -0.7600 -0.2212
18744TIP3    H177647   2.109   5.828   1.601 -1.0325  0.5453  1.2749
18744TIP3    H277648   2.158   5.894   1.474 -1.8322 -1.2925 -0.0455
18745TIP3   OH277649   4.416   5.087  16.208 -0.2894  0.0534 -0.4127
18745TIP3    H177650   4.391   5.179  16.219  0.1108 -0.0743  2.1134
18745TIP3    H277651   4.503   5.081  16.247 -0.5371 -1.4963 -0.0385
18746TIP3   OH277652   0.849   3.945   2.987 -0.0382  0.3641  0.4451
18746TIP3    H177653   0.777   3.894   3.024 -0.0626  0.2228  0.2095
18746TIP3    H277654   0.927   3.892   3.003  0.2168  1.1261  1.8890
18747TIP3   OH277655   4.747   5.924   0.368 -0.9563  0.0658 -0.1141
18747TIP3    H177656   4.807   5.884   0.305 -0.1377  2.1345 -0.7388
18747TIP3    H277657   4.768   6.018   0.365 -3.3460  0.7002  0.6041
18748TIP3   OH277658   5.522   4.896  15.721  0.3163 -0.1479 -0.5573
18748TIP3    H177659   5.564   4.812  15.740  1.6548  0.7146  0.4494
18748TIP3    H277660   5.590   4.948  15.680  0.1142  1.1068  0.6385
18749TIP3   OH277661   2.346   4.953   1.871 -0.2537  0.2460  0.1211
18749TIP3    H177662   2.347   5.035   1.919 -1.1078  0.4528 -0.2004
18749TIP3    H277663   2.316   4.977   1.783 -0.6469 -0.4270  0.0654
18750TIP3   OH277664   1.654   2.237  13.321  0.4278 -0.3108  0.1483
18750TIP3    H177665   1.649   2.146  13.349 -1.4578 -1.1125 -2.4755
18750TIP3    H277666   1.588   2.282  13.375  1.0051 -0.5695  1.0915
18751TIP3   OH277667   6.444   0.441  14.818 -0.0388  0.1912 -0.7602
18751TIP3    H177668   6.435   0.444  14.914  0.9148  1.3013 -0.6727
18751TIP3    H277669   6.457   0.349  14.798  2.2291  0.1615  0.4769
18752TIP3   OH277670   1.337   3.193  14.280 -0.3658 -0.6959 -0.5009
18752TIP3    H177671   1.346   3.153  14.193 -0.7303  0.6339 -1.1842
18752TIP3    H277672   1.280   3.133  14.328 -1.6596 -0.5628 -1.7900
18753TIP3   OH277673   4.156   1.618  11.122 -0.4349  0.4955  0.7818
18753TIP3    H177674   4.232   1.593  11.070 -0.4823 -1.8254  1.7109
18753TIP3    H277675   4.086   1.627  11.058  0.3838  1.7202  0.0215
18754TIP3   OH277676   5.706   4.513  11.720  0.0562  0.7909  0.3801
18754TIP3    H177677   5.739   4.542  11.805 -3.0604 -2.3670  3.0169
18754TIP3    H277678   5.750   4.429  11.704 -1.2292  0.0968  0.2879
18755TIP3   OH277679   4.981   0.633   2.128  0.5639  0.0735  0.0049
18755TIP3    H177680   5.005   0.720   2.098 -0.4409  0.0128 -1.0296
18755TIP3    H277681   4.940   0.647   2.213 -2.1357  0.9741 -1.3366
18756TIP3   OH277682   1.188   6.156   0.318 -0.0720 -0.5842  0.2674
18756TIP3    H177683   1.208   6.225   0.254 -2.2721  0.1371  0.2488
18756TIP3    H277684   1.161   6.204   0.396  1.0988 -1.4715  1.2517
18757TIP3   OH277685   2.341   5.914   2.952 -0.8104 -0.3946  0.4526
18757TIP3    H177686   2.361   5.993   3.003  0.4332  0.5234 -1.3481
18757TIP3    H277687   2.352   5.842   3.014 -0.8799  0.7521  1.8566
18758TIP3   OH277688   3.176   4.296   6.386  0.1764  0.2492 -0.2829
18758TIP3    H177689   3.187   4.390   6.400  0.1407  0.1398  0.5020
18758TIP3    H277690   3.164   4.288   6.291 -0.7441  1.1381 -0.2729
18759TIP3   OH277691   3.114   5.358  11.477 -0.2054  0.3190  0.4292
18759TIP3    H177692   3.052   5.361  11.550 -0.9459  1.8428 -0.2366
18759TIP3    H277693   3.094   5.435  11.424  0.9470 -0.2359 -0.8871
18760TIP3   OH277694   0.280   5.247  10.688  0.7718  0.2671  0.2070
18760TIP3    H177695   0.237   5.210  10.765  1.2439 -0.8140 -0.0275
18760TIP3    H277696   0.211   5.251  10.622  0.5588  0.4289  0.4372
18761TIP3   OH277697   1.617   0.379   5.359  0.3236 -0.0488 -0.6165
18761TIP3    H177698   1.621   0.472   5.379  1.2665 -0.3110  0.5490
18761TIP3    H277699   1.709   0.353   5.350  0.1572 -1.1834  0.6910
18762TIP3   OH277700   2.378   3.415   0.235 -0.1815  0.6137  0.3733
18762TIP3    H177701   2.459   3.463   0.250  0.1518  0.0151  0.5180
18762TIP3    H277702   2.342   3.401   0.322 -0.2452  0.5429  0.3357
18763TIP3   OH277703   3.812   6.559   2.956  0.0981 -0.5235  0.3153
18763TIP3    H177704   3.883   6.551   2.892  1.0834 -1.5973  1.4923
18763TIP3    H277705   3.819   6.649   2.989 -0.8296  0.2627 -1.4971
18764TIP3   OH277706   3.919   2.109   3.384  0.3609 -0.0281 -0.1875
18764TIP3    H177707   3.884   2.026   3.416  0.5216 -0.4195 -1.0021
18764TIP3    H277708   3.866   2.130   3.308  0.5056  0.4717 -0.1524
18765TIP3   OH277709   6.174   3.010  14.613  0.3085  0.0183  0.5147
18765TIP3    H177710   6.160   3.105  14.614  1.3005  0.2697  4.4195
18765TIP3    H277711   6.254   2.999  14.561  0.2163  1.3293  0.0475
18766TIP3   OH277712   3.995   6.699   4.948  0.2596  0.4340  0.3495
18766TIP3    H177713   3.986   6.776   5.005  0.3825  1.1764 -0.5959
18766TIP3    H277714   3.973   6.732   4.861 -1.6002 -1.0739  0.1868
18767TIP3   OH277715   3.719   3.413  11.101 -0.3358 -0.0608 -0.1484
18767TIP3    H177716   3.657   3.362  11.049 -1.3305  0.6644  0.3024
18767TIP3    H277717   3.761   3.471  11.038  0.2586 -0.8904 -0.5370
18768TIP3   OH277718   2.192   5.341   0.193 -0.0412 -0.3998  0.5479
18768TIP3    H177719   2.136   5.266   0.171 -1.2174  0.1972  1.3730
18768TIP3    H277720   2.231   5.317   0.277  0.7144 -0.6889  0.1162
18769TIP3   OH277721   4.250   0.887  14.574  0.1590 -0.3656 -0.3336
18769TIP3    H177722   4.218   0.956  14.516  1.4196  1.8830  1.4608
18769TIP3    H277723   4.198   0.898  14.654  0.1447 -1.7592 -0.1336
18770TIP3   OH277724   4.450   4.173  14.705 -0.0191 -0.9285  0.0927
18770TIP3    H177725   4.462   4.156  14.611 -0.7373 -0.5866 -0.0671
18770TIP3    H277726   4.394   4.251  14.708 -1.0385 -1.6709  0.7954
18771TIP3   OH277727   5.900   2.525   5.684  0.1826  0.4300  0.5280
18771TIP3    H177728   5.904   2.445   5.736  1.1957 -0.1471 -0.3960
18771TIP3    H277729   5.951   2.589   5.733 -0.3793  0.4402  1.1206
18772TIP3   OH277730   4.752   4.091   2.696 -0.0649 -0.3953 -0.1482
18772TIP3    H177731   4.662   4.057   2.697 -0.8351  1.4892  1.0767
18772TIP3    H277732   4.764   4.122   2.606 -1.5347  1.3463  0.1784
18773TIP3   OH277733   0.048   2.296  16.497 -0.1979  0.2008  0.0807
18773TIP3    H177734   0.037   2.247  16.579 -0.8098 -2.3971 -1.4298
18773TIP3    H277735  -0.038   2.293  16.455  0.4801  0.0707 -1.3709
18774TIP3   OH277736   0.979   1.767   1.107 -0.4666 -0.5092 -0.1396
18774TIP3    H177737   0.977   1.722   1.192 -0.6881  1.2039  0.8129
18774TIP3    H277738   1.071   1.763   1.080 -0.2422 -0.3861  0.5775
18775TIP3   OH277739   0.411   2.993  13.362 -0.1818  0.2500  0.1545
18775TIP3    H177740   0.425   2.981  13.268  0.6613  2.4975 -0.0536
18775TIP3    H277741   0.323   3.031  13.369 -1.6460 -2.8231  0.6124
18776TIP3   OH277742   1.244   1.914   3.186 -0.6694  0.2323 -0.6838
18776TIP3    H177743   1.310   1.881   3.126 -0.8058  0.4387 -0.9484
18776TIP3    H277744   1.228   2.004   3.158 -1.1940  0.1292 -0.7390
18777TIP3   OH277745   5.218   0.477   4.558  0.3273  0.2580 -0.0813
18777TIP3    H177746   5.188   0.514   4.641  0.6060  0.3811 -0.0333
18777TIP3    H277747   5.262   0.550   4.514  2.0163 -0.3010  0.5662
18778TIP3   OH277748   5.272   3.636  10.398  0.5218 -0.5088 -0.3082
18778TIP3    H177749   5.240   3.565  10.455  1.2746 -0.7086 -0.1261
18778TIP3    H277750   5.303   3.591  10.320 -0.3132 -0.2510 -0.8027
18779TIP3   OH277751   5.599   6.127   1.335  0.0954 -0.5431 -0.1080
18779TIP3    H177752   5.590   6.083   1.251 -1.6838 -1.7534  0.6537
18779TIP3    H277753   5.580   6.059   1.400 -1.7726  1.0768  1.1570
18780TIP3   OH277754   3.699   1.547   5.667  0.2361 -0.2443 -0.2310
18780TIP3    H177755   3.623   1.550   5.609 -0.1044  1.3208  0.2500
18780TIP3    H277756   3.724   1.639   5.679  1.8900 -0.6882  0.0436
18781TIP3   OH277757   2.553   6.023   2.415  0.6794 -0.2713 -0.0309
18781TIP3    H177758   2.620   5.991   2.474 -0.1676  0.1998  1.2206
18781TIP3    H277759   2.566   5.972   2.334  1.3467 -1.4969  0.8185
18782TIP3   OH277760   5.165   0.901  16.248 -0.4763 -0.3516 -0.3496
18782TIP3    H177761   5.109   0.838  16.294  1.6462 -2.0822  0.0117
18782TIP3    H277762   5.153   0.983  16.296 -0.2745 -1.4883  1.7707
18783TIP3   OH277763   3.763   3.978   3.093  0.1884 -0.1251  0.3542
18783TIP3    H177764   3.751   3.980   2.998 -0.3689  1.0787  0.4332
18783TIP3    H277765   3.858   3.979   3.105  0.2546  1.0163 -0.1832
18784TIP3   OH277766   6.643   3.967   3.365  0.3044 -0.4817 -0.2535
18784TIP3    H177767   6.657   3.902   3.296  1.4078  0.4482 -0.9536
18784TIP3    H277768   6.731   4.000   3.385 -0.0703 -0.2547  1.1379
18785TIP3   OH277769   6.317   6.703  15.438 -0.3900 -0.0985 -0.3001
18785TIP3    H177770   6.318   6.706  15.342 -0.5481 -1.5807 -0.3780
18785TIP3    H277771   6.242   6.647  15.459 -0.4840  0.3887  0.7014
18786TIP3   OH277772   3.763   5.117  15.643  0.0510  0.2339  0.6286
18786TIP3    H177773   3.760   5.194  15.699  1.1319  0.2597  0.6633
18786TIP3    H277774   3.811   5.052  15.694  0.6767  0.1166 -0.0890
18787TIP3   OH277775   5.832   3.622  12.392  0.3114 -0.0132 -0.0542
18787TIP3    H177776   5.877   3.541  12.417 -0.0396 -0.1054  0.2807
18787TIP3    H277777   5.890   3.692  12.420  1.0580 -0.1576 -1.1797
18788TIP3   OH277778   5.088   1.333  13.562  0.1348 -0.3503 -0.5397
18788TIP3    H177779   5.069   1.363  13.472  0.4664 -1.2594 -0.9226
18788TIP3    H277780   5.013   1.362  13.613  0.1017  0.4928 -1.0399
18789TIP3   OH277781   4.336   1.960  16.156  0.1109  0.2207 -0.0339
18789TIP3    H177782   4.383   1.916  16.227  0.6702  0.9997  0.0861
18789TIP3    H277783   4.352   2.053  16.170 -0.0249  0.4050 -0.9998
18790TIP3   OH277784   1.946   2.867  14.810  0.4735 -0.2518 -0.8038
18790TIP3    H177785   1.881   2.809  14.849  0.2370  1.3508  1.3581
18790TIP3    H277786   1.912   2.955  14.826  2.9792  0.6358  0.1252
18791TIP3   OH277787   6.062   6.695   3.993 -0.3769  0.0134 -0.5135
18791TIP3    H177788   5.980   6.728   3.958 -0.2502  0.5518 -0.3262
18791TIP3    H277789   6.062   6.602   3.972  0.8674  0.6884 -4.3166
18792TIP3   OH277790   5.470   5.057  16.509 -0.6599 -0.6138  0.2582
18792TIP3    H177791   5.394   5.000  16.495 -1.5368  0.4842  0.3418
18792TIP3    H277792   5.543   5.010  16.470 -1.8422 -0.5819 -2.2301
18793TIP3   OH277793   0.212   1.444  14.473 -0.9819  0.4693  0.1681
18793TIP3    H177794   0.216   1.380  14.544  0.5065 -0.1491 -0.4148
18793TIP3    H277795   0.123   1.437  14.439 -0.8945 -1.2711  0.1739
18794TIP3   OH277796   6.280   2.999  12.828  0.3351 -0.2876  0.3247
18794TIP3    H177797   6.239   2.955  12.754 -1.5885  1.0859  0.4993
18794TIP3    H277798   6.321   3.077  12.789  2.8807 -1.6002  0.1611
18795TIP3   OH277799   0.222   2.853  15.862  0.6911  0.7109  0.3725
18795TIP3    H177800   0.137   2.840  15.821  1.8347  1.1818 -2.4004
18795TIP3    H277801   0.254   2.765  15.881  0.0544  0.4885  0.4395
18796TIP3   OH277802   5.091   0.749   5.495  0.1545 -0.2253 -0.4927
18796TIP3    H177803   5.093   0.664   5.453 -0.1974 -1.3365  1.6188
18796TIP3    H277804   5.002   0.759   5.528  0.1461  1.0422 -0.8095
18797TIP3   OH277805   4.109   4.673   1.169  0.1959  0.5247 -0.5724
18797TIP3    H177806   4.051   4.624   1.110 -1.9960 -1.1414  2.6544
18797TIP3    H277807   4.170   4.607   1.202  0.2952  1.0319  0.2730
18798TIP3   OH277808   2.369   1.080   4.306 -0.3441  0.1934 -0.8465
18798TIP3    H177809   2.330   1.118   4.385  1.0496  0.1809 -0.1245
18798TIP3    H277810   2.455   1.122   4.299 -0.0179 -0.5870 -1.7639
18799TIP3   OH277811   2.849   2.093   6.033 -0.2162  0.2492 -0.2020
18799TIP3    H177812   2.846   2.114   6.126 -0.2525  1.6131 -0.4865
18799TIP3    H277813   2.939   2.066   6.017  0.0512  0.9551  0.0564
18800TIP3   OH277814   3.529   5.000   0.931 -0.0707 -0.3503  0.0082
18800TIP3    H177815   3.548   5.084   0.888  0.3899  0.1480  1.1660
18800TIP3    H277816   3.476   4.952   0.867  0.3598  0.4863 -1.0028
18801TIP3   OH277817   4.940   3.055   0.823 -0.8097  0.2348 -0.1557
18801TIP3    H177818   4.959   3.148   0.834  0.5899  0.2774 -2.2654
18801TIP3    H277819   4.877   3.052   0.750  0.3378 -0.4959 -1.1538
18802TIP3   OH277820   5.513   5.348  15.441  0.2033  0.1399 -0.1124
18802TIP3    H177821   5.593   5.400  15.446 -0.1838  0.6895  0.6675
18802TIP3    H277822   5.538   5.263  15.478  0.0810  0.7797  1.5192
18803TIP3   OH277823   2.632   4.699   2.121  0.4052  0.2511  0.4776
18803TIP3    H177824   2.695   4.729   2.057  0.8652 -2.0203 -0.2163
18803TIP3    H277825   2.578   4.635   2.074  0.9616 -1.7264  2.3817
18804TIP3   OH277826   1.715   6.588   3.419 -0.3904  0.3955  0.0670
18804TIP3    H177827   1.698   6.495   3.437  1.4895 -0.0700 -0.3364
18804TIP3    H277828   1.740   6.624   3.504  0.8794  0.0171 -0.1192
18805TIP3   OH277829   1.611   1.675   0.331  0.0891 -0.3143  0.2629
18805TIP3    H177830   1.620   1.642   0.242  0.9487 -0.5382  0.4216
18805TIP3    H277831   1.564   1.606   0.377 -0.3981 -0.1776 -0.0204
18806TIP3   OH277832   4.055   2.083   5.927  0.1695  0.0575  0.0898
18806TIP3    H177833   4.136   2.042   5.899  0.1058 -0.4093  0.5653
18806TIP3    H277834   4.019   2.023   5.993 -1.0656 -0.2598 -0.8303
18807TIP3   OH277835   3.939   5.972  13.070  0.1955 -0.2214 -0.3007
18807TIP3    H177836   3.904   6.061  13.069  0.7161 -0.0062 -0.0391
18807TIP3    H277837   3.873   5.919  13.025 -0.2604  0.2433 -0.1883
18808TIP3   OH277838   5.206   5.434   1.398  0.5128 -0.7080 -0.7509
18808TIP3    H177839   5.216   5.528   1.414 -1.2895  0.0366 -3.3996
18808TIP3    H277840   5.258   5.417   1.319  0.4636 -1.8512 -0.5565
18809TIP3   OH277841   5.612   3.938  16.360 -0.2149 -0.2948 -0.0134
18809TIP3    H177842   5.556   3.938  16.282  0.2443  0.8176 -0.3619
18809TIP3    H277843   5.568   3.997  16.421  0.1045 -0.1425  0.0681
18810TIP3   OH277844   4.917   3.416  15.454 -0.1666  0.0295  0.1996
18810TIP3    H177845   4.821   3.411  15.452 -0.1549 -0.6080 -1.9114
18810TIP3    H277846   4.936   3.510  15.443 -0.6109 -0.0524 -1.7351
18811TIP3   OH277847   4.398   6.538  14.487  0.5076  0.3994 -0.8628
18811TIP3    H177848   4.444   6.502  14.563 -1.5724 -1.4429 -0.3630
18811TIP3    H277849   4.339   6.604  14.524 -2.1532 -2.0311 -0.3628
18812TIP3   OH277850   6.062   5.038   5.774 -0.4071  0.7882  0.5077
18812TIP3    H177851   6.090   5.129   5.765  0.6024  0.7882  2.9860
18812TIP3    H277852   6.135   4.986   5.741 -0.5208  0.8574  0.1449
18813TIP3   OH277853   2.451   2.819   2.281 -0.2660 -1.1394  0.8350
18813TIP3    H177854   2.545   2.808   2.267 -0.5043  0.0272 -2.6535
18813TIP3    H277855   2.443   2.896   2.338  0.9419  0.6224 -1.2480
18814TIP3   OH277856   2.665   3.439  11.833  0.3346 -0.1452  0.0007
18814TIP3    H177857   2.643   3.351  11.864  2.2768 -0.7948 -0.3764
18814TIP3    H277858   2.613   3.450  11.753  1.8319 -1.9358 -1.2920
18815TIP3   OH277859   0.306   2.060   0.976  0.0201 -0.1854  0.1527
18815TIP3    H177860   0.389   2.052   1.024  0.4521  0.3703 -0.4766
18815TIP3    H277861   0.259   2.129   1.022  0.8591  1.0526 -0.7836
18816TIP3   OH277862   0.631   0.080   1.358  0.0949 -0.5218  0.7056
18816TIP3    H177863   0.678   0.160   1.333  0.4071 -0.4974  1.3562
18816TIP3    H277864   0.621   0.032   1.276  0.9516 -0.3666  0.4947
18817TIP3   OH277865   0.636   0.723   5.719 -0.4113 -0.4201 -0.7970
18817TIP3    H177866   0.592   0.713   5.803  1.2656 -1.3534  0.0232
18817TIP3    H277867   0.589   0.666   5.659 -0.1595 -1.6260  0.1332
18818TIP3   OH277868   3.587   1.691   0.102 -0.5250  0.1453 -0.3667
18818TIP3    H177869   3.523   1.649   0.160 -0.7997  0.8572 -0.1439
18818TIP3    H277870   3.655   1.624   0.089 -2.2081 -1.3596 -2.1338
18819TIP3   OH277871   2.620   4.926   4.470  0.0226 -0.1320 -0.0498
18819TIP3    H177872   2.617   4.831   4.459 -2.2905 -0.3910  2.0267
18819TIP3    H277873   2.711   4.949   4.449  0.8786 -2.8815  0.1477
18820TIP3   OH277874   3.674   2.208  15.159  0.0241  0.2663 -0.0919
18820TIP3    H177875   3.725   2.167  15.090 -0.1126 -0.6521  0.3419
18820TIP3    H277876   3.735   2.216  15.232 -0.6219 -1.5697  0.7024
18821TIP3   OH277877   3.064   3.589   4.231 -0.1473 -0.5196 -0.4247
18821TIP3    H177878   2.975   3.594   4.197  0.6396  0.5759 -2.5310
18821TIP3    H277879   3.092   3.499   4.211 -0.0425 -0.1894 -1.8326
18822TIP3   OH277880   4.602   2.119  13.410  0.2597 -0.0566 -0.5052
18822TIP3    H177881   4.622   2.099  13.501  0.5891  1.5442 -0.2069
18822TIP3    H277882   4.511   2.091  13.399 -0.0982  0.6105  0.6051
18823TIP3   OH277883   1.788   5.378  16.343 -0.5497 -0.1428  0.3198
18823TIP3    H177884   1.833   5.294  16.333  2.2723  1.4338 -1.5923
18823TIP3    H277885   1.730   5.384  16.267 -0.0171  0.0241 -0.0792
18824TIP3   OH277886   1.834   0.841   3.938  1.2406 -0.1947  0.1804
18824TIP3    H177887   1.914   0.882   3.904  2.1338 -0.6279  1.6397
18824TIP3    H277888   1.807   0.898   4.010 -0.5943  0.6970 -1.1540
18825TIP3   OH277889   1.647   2.896   2.659 -0.0030 -0.0248 -0.7248
18825TIP3    H177890   1.721   2.836   2.654  0.7673  0.8100  0.1544
18825TIP3    H277891   1.678   2.968   2.713 -1.2806  0.6234 -0.8040
18826TIP3   OH277892   6.167   1.666   0.646 -0.3667 -0.7916  0.1395
18826TIP3    H177893   6.110   1.726   0.598  4.7228  2.7022 -2.5379
18826TIP3    H277894   6.190   1.598   0.583 -0.5053 -1.3777  0.7084
18827TIP3   OH277895   2.091   5.218  15.691  0.6074 -0.1876 -0.0354
18827TIP3    H177896   2.027   5.159  15.652  0.4080  0.4457 -0.6882
18827TIP3    H277897   2.135   5.258  15.616  0.3436  0.9225  0.3859
18828TIP3   OH277898   1.766   4.756   4.146  0.3491  0.1045  0.8912
18828TIP3    H177899   1.775   4.669   4.108 -1.1829 -0.1652  1.0771
18828TIP3    H277900   1.713   4.743   4.224 -0.0913  1.2248  0.7992
18829TIP3   OH277901   6.275   6.134   0.332  0.3628  0.2335 -0.0790
18829TIP3    H177902   6.338   6.065   0.356 -0.8072 -0.3507  1.4874
18829TIP3    H277903   6.307   6.212   0.379  0.3008  0.1074  0.1763
18830TIP3   OH277904   6.390   1.922   3.205  0.4995  0.2589  0.1627
18830TIP3    H177905   6.313   1.909   3.150  1.5442  0.0132 -1.2914
18830TIP3    H277906   6.414   1.833   3.234  1.3134  0.1088 -0.9253
18831TIP3   OH277907   1.189   6.703  15.625 -0.2653 -0.0988 -0.0884
18831TIP3    H177908   1.186   6.615  15.663  0.3612  0.0477  0.3078
18831TIP3    H277909   1.240   6.693  15.545  3.4232  0.5822  1.9409
18832TIP3   OH277910   3.110   2.992  11.883 -0.2860  0.1519  0.0650
18832TIP3    H177911   3.150   3.025  11.963  1.3654 -0.8855 -0.2916
18832TIP3    H277912   3.106   2.897  11.896  0.5443 -0.0956 -1.2889
18833TIP3   OH277913   4.960   3.034   2.945  0.0110  0.1472 -0.0552
18833TIP3    H177914   4.967   3.120   2.903 -0.7135  0.1902 -0.1108
18833TIP3    H277915   5.024   2.979   2.899 -1.0025  0.1052 -1.4780
18834TIP3   OH277916   3.291   4.538  14.934  0.1333  0.3994  0.3781
18834TIP3    H177917   3.341   4.609  14.895  1.1769  0.1473  1.2279
18834TIP3    H277918   3.211   4.580  14.966 -0.2860  0.7807 -1.0819
18835TIP3   OH277919   4.421   2.086  15.543 -0.5482  0.3681  0.1132
18835TIP3    H177920   4.476   2.103  15.467  0.4554 -1.7432  0.2929
18835TIP3    H277921   4.336   2.061  15.508 -0.1326 -0.4495 -0.3301
18836TIP3   OH277922   5.773   1.874  12.892  0.1776  0.0763  0.5500
18836TIP3    H177923   5.848   1.861  12.834 -0.2021  0.2479  0.0119
18836TIP3    H277924   5.714   1.932  12.843 -0.8717 -1.0469  0.4262
18837TIP3   OH277925   2.248   2.859  11.974 -0.0704  0.2268  0.2109
18837TIP3    H177926   2.304   2.802  12.026  0.0187 -0.3245 -0.4756
18837TIP3    H277927   2.244   2.817  11.888 -2.3058 -0.2993  0.4949
18838TIP3   OH277928   3.049   4.454   2.899 -0.2470  0.3990 -0.3978
18838TIP3    H177929   3.018   4.514   2.831 -1.1049  1.1882  0.6483
18838TIP3    H277930   2.969   4.423   2.942  0.3038  0.6513  0.8517
18839TIP3   OH277931   5.169   2.315  13.776  0.0613  0.1778  0.5629
18839TIP3    H177932   5.165   2.269  13.860 -3.2358  0.4554  0.7034
18839TIP3    H277933   5.097   2.277  13.725  1.5891  0.4478 -1.9465
18840TIP3   OH277934   5.296   0.015   1.313 -0.1212 -0.2248  0.1913
18840TIP3    H177935   5.387   0.045   1.322 -0.2573 -0.0724  1.1777
18840TIP3    H277936   5.296  -0.073   1.351  0.1696 -1.3415 -2.2501
18841TIP3   OH277937   6.040   4.605   2.021  0.1393  0.6041 -0.0839
18841TIP3    H177938   5.983   4.681   2.030 -1.7843 -0.9204  1.4328
18841TIP3    H277939   6.009   4.561   1.942  0.2170  0.5774 -0.0993
18842TIP3   OH277940   5.647   2.165  14.637 -0.2850  0.0723  0.7701
18842TIP3    H177941   5.682   2.209  14.715  0.9564  0.0463  0.2390
18842TIP3    H277942   5.643   2.234  14.571  0.3537 -0.2894  0.3436
18843TIP3   OH277943   2.750   1.178   4.605  0.7554  0.3464  0.5540
18843TIP3    H177944   2.756   1.098   4.552 -2.5928 -1.6373  2.8303
18843TIP3    H277945   2.717   1.244   4.544 -4.0060 -2.1058 -0.0227
18844TIP3   OH277946   0.854   3.525  16.897 -0.2746 -0.7275  0.2061
18844TIP3    H177947   0.921   3.463  16.866 -1.9129 -1.7228 -1.5909
18844TIP3    H277948   0.830   3.574  16.818 -0.2008  1.0825  1.2692
18845TIP3   OH277949   2.199   2.723   2.317 -0.0597  0.0493 -0.2735
18845TIP3    H177950   2.289   2.752   2.303  0.8814 -0.5494  3.5463
18845TIP3    H277951   2.151   2.801   2.342 -0.1840  0.0676 -0.5619
18846TIP3   OH277952   0.424   4.739  10.678  0.2312  0.4363 -0.5126
18846TIP3    H177953   0.509   4.782  10.684  1.3484 -1.8234  1.2026
18846TIP3    H277954   0.420   4.708  10.588  0.2484  2.2967 -1.2119
18847TIP3   OH277955   4.728   1.795  16.746 -0.2574  0.2350 -0.4792
18847TIP3    H177956   4.653   1.759  16.793  1.4115 -1.7924  0.8391
18847TIP3    H277957   4.785   1.830  16.814  1.3931 -1.1311 -1.0814
18848TIP3   OH277958   0.724   5.175   0.788  0.5008 -0.8543  0.1679
18848TIP3    H177959   0.693   5.214   0.706  0.1656 -0.3758  0.5173
18848TIP3    H277960   0.792   5.235   0.819  1.1228 -1.4017 -0.1094
18849TIP3   OH277961   5.389   4.317   3.921 -1.0289  0.1441  0.3662
18849TIP3    H177962   5.391   4.388   3.985  0.5620  0.6294 -0.1912
18849TIP3    H277963   5.339   4.353   3.848 -0.0002  0.8065 -0.0251
18850TIP3   OH277964   2.372   1.859   3.176 -0.5422 -0.3017 -0.4363
18850TIP3    H177965   2.389   1.767   3.194 -1.7138 -0.6421 -0.9138
18850TIP3    H277966   2.351   1.861   3.082  0.7468  0.6633 -0.7299
18851TIP3   OH277967   3.497   5.114   0.617  0.8105 -0.7057 -0.6500
18851TIP3    H177968   3.460   5.027   0.631  0.4226 -0.6876 -1.4935
18851TIP3    H277969   3.590   5.097   0.603  0.7771 -0.9599 -0.5858
18852TIP3   OH277970   3.012   3.222   5.652 -0.4109  0.1763 -0.0422
18852TIP3    H177971   2.934   3.173   5.678 -0.2077 -0.3357 -0.3678
18852TIP3    H277972   3.083   3.159   5.660 -0.0903  0.5251 -0.1224
18853TIP3   OH277973   2.691   3.174   1.338  0.5838  0.0798 -0.2651
18853TIP3    H177974   2.626   3.119   1.295  1.0754  1.6389 -3.2522
18853TIP3    H277975   2.649   3.260   1.346  1.0028  0.1728  1.1790
18854TIP3   OH277976   2.082   2.300  14.176  0.8362  0.0988  0.0386
18854TIP3    H177977   2.034   2.218  14.172  0.4771  0.3048  0.1052
18854TIP3    H277978   2.067   2.333  14.264  1.5749 -0.1159  0.2574
18855TIP3   OH277979   4.558   3.447   4.469 -0.3868 -0.4716  0.4489
18855TIP3    H177980   4.652   3.458   4.485 -0.4938 -0.4947  1.1479
18855TIP3    H277981   4.532   3.376   4.528 -0.9895  0.0536  0.8359
18856TIP3   OH277982   6.570   0.745  16.310 -0.3834  0.5984  0.0745
18856TIP3    H177983   6.525   0.755  16.393  0.2796  2.4591  0.2540
18856TIP3    H277984   6.500   0.747  16.244 -0.7901  0.4320  0.4940
18857TIP3   OH277985   1.905   6.709   3.938 -0.1023  0.2385  0.0679
18857TIP3    H177986   1.845   6.648   3.980  1.2871 -0.9070  0.4818
18857TIP3    H277987   1.965   6.737   4.008  0.7196  0.2251 -0.6066
18858TIP3   OH277988   5.243   3.368   2.729 -0.3925 -0.5498  0.0397
18858TIP3    H177989   5.222   3.388   2.820  0.6406  1.8511 -0.1553
18858TIP3    H277990   5.324   3.317   2.733 -0.8188 -1.2021  0.4751
18859TIP3   OH277991   4.196   5.736  12.430  0.4855 -0.4914 -0.0720
18859TIP3    H177992   4.231   5.722  12.519  0.1456 -0.3881  0.0784
18859TIP3    H277993   4.241   5.814  12.399  1.2202 -0.9989 -0.3076
18860TIP3   OH277994   0.007   2.972  11.844 -0.0240 -0.2346 -0.3283
18860TIP3    H177995   0.066   3.045  11.862 -1.2813  0.5096  0.9351
18860TIP3    H277996  -0.014   2.980  11.751  1.9232 -0.5920 -0.8460
18861TIP3   OH277997   0.134   1.543  11.349 -0.0916  0.3531 -0.3922
18861TIP3    H177998   0.212   1.547  11.293 -0.4272  1.2003 -0.8102
18861TIP3    H277999   0.124   1.631  11.383 -0.2310 -0.0201  0.5556
18862TIP3   OH278000   2.669   0.546   1.374 -0.4844  0.0659  0.6013
18862TIP3    H178001   2.720   0.598   1.436  0.5592 -2.1635  1.7424
18862TIP3    H278002   2.624   0.482   1.429 -1.0802 -0.7553 -0.7992
18863TIP3   OH278003   3.441   3.755  14.951 -0.1636 -0.8774 -0.1505
18863TIP3    H178004   3.485   3.816  14.892 -2.5399  0.4879 -0.6204
18863TIP3    H278005   3.468   3.782  15.039 -0.4627  0.3002 -0.4041
18864TIP3   OH278006   2.283   4.060   5.934  0.0406 -0.3508  0.0577
18864TIP3    H178007   2.296   4.143   5.889  2.6494 -0.1964  0.8804
18864TIP3    H278008   2.298   4.080   6.027  0.8424 -1.7208  0.2659
18865TIP3   OH278009   3.071   5.636  12.655  0.6540  0.1144  0.0964
18865TIP3    H178010   3.022   5.718  12.647  0.0605 -0.2930 -0.6627
18865TIP3    H278011   3.006   5.573  12.687  0.0453 -0.9396 -2.9052
18866TIP3   OH278012   5.676   3.202   0.906 -0.0855 -0.2029 -0.8503
18866TIP3    H178013   5.590   3.168   0.931  0.4710 -1.6261 -0.7815
18866TIP3    H278014   5.675   3.203   0.811  0.3089 -1.6148 -0.8932
18867TIP3   OH278015   2.414   6.192   1.196  0.0732 -0.2768 -0.1306
18867TIP3    H178016   2.501   6.167   1.228  0.5749  2.0511  0.5213
18867TIP3    H278017   2.393   6.272   1.243 -0.7217  1.3880 -3.0406
18868TIP3   OH278018   6.748   6.144   1.274 -0.5749  0.1610 -0.0883
18868TIP3    H178019   6.809   6.160   1.345  0.6902  3.8634 -1.7629
18868TIP3    H278020   6.748   6.049   1.263  4.8366 -0.1524  0.1576
18869TIP3   OH278021   4.803   1.397   4.492 -0.4299  0.2860 -0.7463
18869TIP3    H178022   4.853   1.338   4.548  0.3298  0.5525 -1.1355
18869TIP3    H278023   4.800   1.479   4.541  0.0312  0.4480 -0.9851
18870TIP3   OH278024   0.330   6.051   5.387  0.2344  0.3275 -0.6066
18870TIP3    H178025   0.318   6.021   5.477  0.3446 -0.3580 -0.8141
18870TIP3    H278026   0.425   6.059   5.377  0.2976 -0.6776 -0.9889
18871TIP3   OH278027   1.848   4.249   3.425  0.0594 -0.3751 -0.4831
18871TIP3    H178028   1.876   4.209   3.507 -1.4744 -0.3458  0.0740
18871TIP3    H278029   1.777   4.309   3.450  0.0931  0.2162 -1.7297
18872TIP3   OH278030   2.427   0.697   1.883 -0.5722  0.2104 -0.0577
18872TIP3    H178031   2.441   0.768   1.820 -1.4094  2.3813  2.0675
18872TIP3    H278032   2.507   0.694   1.934  0.5319 -2.2557 -1.7340
18873TIP3   OH278033   6.329   3.948  14.488  0.2507 -0.0657 -0.5050
18873TIP3    H178034   6.315   3.897  14.408 -1.0759  1.6651 -1.4333
18873TIP3    H278035   6.243   3.952  14.530  0.4095  1.0333 -0.2467
18874TIP3   OH278036   4.945   5.448  12.610  0.4419 -0.1921 -0.3448
18874TIP3    H178037   4.974   5.360  12.585 -0.3414 -0.3505 -0.7215
18874TIP3    H278038   4.926   5.492  12.527  0.5686  0.2378 -0.1465
18875TIP3   OH278039   3.525   3.952  11.968 -0.2871  0.0664 -0.4037
18875TIP3    H178040   3.576   4.033  11.979  0.4154 -0.4242  0.0167
18875TIP3    H278041   3.438   3.982  11.940  0.0536  0.9485 -0.5459
18876TIP3   OH278042   5.327   5.492   4.308 -0.3280  0.2497  0.0848
18876TIP3    H178043   5.337   5.445   4.391 -1.3444 -1.5408 -0.7355
18876TIP3    H278044   5.412   5.485   4.266 -0.4477 -0.9368 -0.0142
18877TIP3   OH278045   0.626   3.144   0.896  0.6507  0.2701 -0.0692
18877TIP3    H178046   0.589   3.218   0.945 -0.4459  0.4281 -1.0686
18877TIP3    H278047   0.596   3.066   0.945  2.5075  0.4512  1.4610
18878TIP3   OH278048   3.646   6.422  11.034 -0.1675 -0.3117 -0.4896
18878TIP3    H178049   3.661   6.459  10.947 -0.3107  0.1877 -0.3109
18878TIP3    H278050   3.561   6.378  11.027 -0.0117 -0.5791 -0.6980
18879TIP3   OH278051   3.641   4.636   1.588  0.6206  0.5049  0.3558
18879TIP3    H178052   3.563   4.586   1.564 -0.1194  0.3265  2.8443
18879TIP3    H278053   3.612   4.727   1.585  1.2354  0.6697 -1.6763
18880TIP3   OH278054   5.523   6.156   2.549 -0.5390 -0.0150  0.6788
18880TIP3    H178055   5.533   6.106   2.469 -0.5074  1.3780 -0.2210
18880TIP3    H278056   5.495   6.243   2.520  0.4138  0.8136  2.1005
18881TIP3   OH278057   5.773   0.112  12.963  0.1764 -0.8146 -0.6954
18881TIP3    H178058   5.700   0.127  12.902 -1.3556 -0.3230  1.1464
18881TIP3    H278059   5.733   0.119  13.050  2.4892 -0.3488  0.4054
18882TIP3   OH278060   6.449   4.224   2.267 -0.6307 -0.5797 -0.4240
18882TIP3    H178061   6.423   4.299   2.213 -0.7043  0.1573  0.6065
18882TIP3    H278062   6.376   4.211   2.328  0.1424 -0.3464  0.5771
18883TIP3   OH278063   5.513   1.721  13.464 -0.0783  0.5803 -0.1455
18883TIP3    H178064   5.591   1.671  13.437 -0.2089 -0.0645  0.6195
18883TIP3    H278065   5.465   1.736  13.383  1.4766  2.1481 -0.8553
18884TIP3   OH278066   3.605   4.532  13.419 -0.2469  0.2093 -0.5981
18884TIP3    H178067   3.627   4.474  13.346 -1.4703  0.4309 -1.1700
18884TIP3    H278068   3.522   4.500  13.452 -0.0257  0.5181  0.2830
18885TIP3   OH278069   0.935   2.764  14.122  0.1999  0.5627  0.2368
18885TIP3    H178070   0.867   2.825  14.094 -0.3289  0.2786  0.8561
18885TIP3    H278071   0.893   2.713  14.192  1.0042  0.2794  0.5175
18886TIP3   OH278072   1.884   3.767   2.663 -0.1616  0.2620  0.0226
18886TIP3    H178073   1.902   3.761   2.569 -0.4106  0.2759 -0.0269
18886TIP3    H278074   1.789   3.772   2.669 -0.1510  0.1890  0.2803
18887TIP3   OH278075   3.081   3.409   2.819 -0.3993  0.8681  0.0075
18887TIP3    H178076   3.172   3.423   2.846  0.6392 -4.9277  0.8143
18887TIP3    H278077   3.032   3.406   2.901 -0.5040 -0.0043 -0.0789
18888TIP3   OH278078   5.828   2.030   4.961 -0.6278  0.4913 -0.3652
18888TIP3    H178079   5.738   2.001   4.975 -0.3284 -0.0034  0.6164
18888TIP3    H278080   5.865   1.966   4.901 -0.5240 -0.1264  0.3398
18889TIP3   OH278081   0.503   2.887   4.855  0.2926 -0.0048 -0.6585
18889TIP3    H178082   0.547   2.943   4.919  0.5464  0.5030 -1.2749
18889TIP3    H278083   0.436   2.943   4.816 -0.6652 -0.6522 -0.0103
18890TIP3   OH278084   6.696   4.874   1.173 -0.0935 -0.6721  0.2110
18890TIP3    H178085   6.676   4.782   1.194  1.5111 -1.5054 -1.6165
18890TIP3    H278086   6.707   4.916   1.259  0.7892 -2.5934  1.0974
18891TIP3   OH278087   5.954   1.240  12.318 -0.4914  0.0919  0.2985
18891TIP3    H178088   5.920   1.190  12.244 -0.8373 -0.7529  1.0087
18891TIP3    H278089   5.980   1.173  12.382 -3.0810  0.7559  2.2257
18892TIP3   OH278090   6.637   0.481   4.311 -0.4211 -0.5686 -0.3855
18892TIP3    H178091   6.553   0.518   4.285 -0.2449 -0.8009 -1.3260
18892TIP3    H278092   6.678   0.454   4.229  0.1612 -1.3410  0.1396
18893TIP3   OH278093   5.773   6.708  12.231 -0.0311  0.4087 -0.7297
18893TIP3    H178094   5.749   6.800  12.221  1.4571  0.7953 -1.0175
18893TIP3    H278095   5.868   6.708  12.231  0.0015 -1.0055  0.5838
18894TIP3   OH278096   0.093   6.558   3.027 -0.3206  0.2986 -0.1260
18894TIP3    H178097   0.123   6.563   2.936 -0.2052 -0.4647 -0.1403
18894TIP3    H278098   0.125   6.638   3.068  1.5848 -0.3673 -0.2000
18895TIP3   OH278099   5.470   5.164   5.115  0.3045 -0.2608 -0.0973
18895TIP3    H178100   5.440   5.210   5.037 -0.5248 -0.1869  0.2505
18895TIP3    H278101   5.420   5.203   5.187  1.2647 -0.1344  0.5129
18896TIP3   OH278102   1.349   1.337  11.292  0.0213 -0.3671 -0.3830
18896TIP3    H178103   1.309   1.330  11.379 -0.9147 -0.4281 -0.8030
18896TIP3    H278104   1.312   1.264  11.243 -0.3368  0.3194 -1.1641
18897TIP3   OH278105   3.410   0.640  15.368  0.1758  0.1276 -0.0180
18897TIP3    H178106   3.446   0.663  15.454  1.2331  0.4439 -0.5343
18897TIP3    H278107   3.476   0.584  15.328 -0.1867  0.2035 -0.7335
18898TIP3   OH278108   3.858   1.491  15.902 -0.3957 -0.2981 -0.0410
18898TIP3    H178109   3.781   1.548  15.904  0.9948  1.6485  0.3286
18898TIP3    H278110   3.828   1.409  15.942 -1.9201  0.8819  1.3804
18899TIP3   OH278111   0.468   2.720   3.587  0.1744  0.2899  0.0978
18899TIP3    H178112   0.401   2.656   3.611  1.0070  0.7229  4.1546
18899TIP3    H278113   0.443   2.748   3.499 -4.1254 -0.6060  0.8282
18900TIP3   OH278114   0.919   3.123  11.131 -0.4419  0.4749 -0.2750
18900TIP3    H178115   0.908   3.030  11.154 -1.8018  0.5291 -0.6226
18900TIP3    H278116   0.848   3.167  11.178 -0.1184  1.2713 -0.5267
18901TIP3   OH278117   2.759   4.877  16.127 -0.1902 -0.1359  0.7395
18901TIP3    H178118   2.769   4.954  16.070 -1.7079 -1.3369 -1.2738
18901TIP3    H278119   2.818   4.812  16.089  1.7891  0.2209  2.9794
18902TIP3   OH278120   6.429   2.389  11.046  0.2301  0.5680  0.0924
18902TIP3    H178121   6.370   2.344  11.106  1.4258  0.6406  1.3917
18902TIP3    H278122   6.405   2.356  10.960 -3.2993  2.3882  0.2188
18903TIP3   OH278123   5.279   2.648   3.630 -0.0522 -0.0343  0.3662
18903TIP3    H178124   5.337   2.584   3.672  0.8884 -1.0354 -2.2812
18903TIP3    H278125   5.200   2.599   3.609 -0.4977  0.4526  0.8424
18904TIP3   OH278126   1.680   2.774  12.276 -0.5353 -0.2534 -0.0992
18904TIP3    H178127   1.716   2.692  12.310 -4.0145 -1.8058  0.2446
18904TIP3    H278128   1.682   2.834  12.350  1.0537 -0.2932 -0.0630
18905TIP3   OH278129   1.037   4.954  14.033  0.6662  0.3149 -0.1310
18905TIP3    H178130   0.998   4.907  13.959  1.4545 -0.4644 -0.0647
18905TIP3    H278131   0.980   4.934  14.107  0.4003  0.3444 -0.3242
18906TIP3   OH278132   0.231   5.803   0.729 -0.5614  0.2387 -0.1840
18906TIP3    H178133   0.145   5.765   0.749 -0.8876  0.0327 -1.8320
18906TIP3    H278134   0.249   5.774   0.640  1.7782 -0.7054  0.5425
18907TIP3   OH278135   0.482   4.195  11.332 -0.2143 -0.5502  0.2515
18907TIP3    H178136   0.556   4.248  11.361 -0.0916 -0.1700 -0.7430
18907TIP3    H278137   0.483   4.201  11.237 -0.3752 -2.1138  0.1300
18908TIP3   OH278138   3.806   6.512   4.941  0.4208 -0.0177 -0.1198
18908TIP3    H178139   3.885   6.565   4.950 -0.4753  1.3183  0.0916
18908TIP3    H278140   3.828   6.428   4.982  1.8390  0.2040 -0.3955
18909TIP3   OH278141   1.142   0.347   6.082 -0.2571 -0.4113  0.5635
18909TIP3    H178142   1.175   0.258   6.092 -2.3378 -0.9926  3.7434
18909TIP3    H278143   1.219   0.402   6.098  0.5225 -1.6288  1.2001
18910TIP3   OH278144   5.826   0.367  14.582 -1.0551 -0.2809  0.5611
18910TIP3    H178145   5.894   0.392  14.519  0.1548  1.9281  2.5886
18910TIP3    H278146   5.745   0.406  14.547 -0.2934  1.4058  0.5869
18911TIP3   OH278147   3.956   0.652  13.740 -0.4110 -0.7534 -0.2255
18911TIP3    H178148   3.889   0.718  13.753  0.0182  0.0028 -1.5666
18911TIP3    H278149   4.039   0.698  13.756 -0.1711 -1.5609  1.0044
18912TIP3   OH278150   5.279   5.681   1.504  0.3951 -0.7608  0.1689
18912TIP3    H178151   5.366   5.648   1.526 -0.2490 -2.1030  0.8539
18912TIP3    H278152   5.250   5.727   1.583  0.1910 -0.9664  0.2156
18913TIP3   OH278153   2.497   5.878   5.957  0.3424 -0.3853  0.4513
18913TIP3    H178154   2.504   5.786   5.982  0.1747 -0.3535  0.6159
18913TIP3    H278155   2.583   5.915   5.975  0.4824 -0.5629  0.1638
18914TIP3   OH278156   4.139   0.243   0.468  0.0774 -0.2026 -0.3890
18914TIP3    H178157   4.213   0.294   0.500  1.7656 -2.2909 -0.7295
18914TIP3    H278158   4.062   0.280   0.512  1.6628  0.2340  2.1606
18915TIP3   OH278159   4.582   0.089   0.503 -0.1090 -0.4419  0.2862
18915TIP3    H178160   4.615   0.102   0.592  0.0041  2.2066 -0.0657
18915TIP3    H278161   4.660   0.095   0.448 -0.3579 -0.6840 -0.0935
18916TIP3   OH278162   1.168   2.590   4.221 -0.2929  0.3146  0.4727
18916TIP3    H178163   1.227   2.655   4.182  0.7239 -1.9326 -2.0844
18916TIP3    H278164   1.198   2.581   4.311  0.0952  2.7044  0.6357
18917TIP3   OH278165   4.522   6.048  10.325  0.2006 -0.4508  0.0410
18917TIP3    H178166   4.597   6.027  10.381  2.0634 -0.2811 -2.2491
18917TIP3    H278167   4.488   5.963  10.298  0.4345 -0.5296 -0.0049
18918TIP3   OH278168   6.235   6.446   3.647  0.0970  0.6195 -0.9414
18918TIP3    H178169   6.241   6.456   3.552  2.2059 -2.0792 -1.1984
18918TIP3    H278170   6.325   6.435   3.676 -0.6131 -0.1036  1.1824
18919TIP3   OH278171   5.758   4.466   4.247 -0.2329  0.4413  0.0256
18919TIP3    H178172   5.792   4.502   4.165  0.9675 -1.8029 -0.5540
18919TIP3    H278173   5.664   4.477   4.241 -0.0731  1.2933 -1.1705
18920TIP3   OH278174   4.649   2.165   4.223  0.2038  0.0282 -0.2444
18920TIP3    H178175   4.555   2.148   4.229  0.3363 -0.7900 -0.2938
18920TIP3    H278176   4.688   2.078   4.213  0.9240  0.4029 -0.7969
18921TIP3   OH278177   2.256   4.913   3.144  0.7006  0.0460 -0.0521
18921TIP3    H178178   2.305   4.915   3.226  0.4151 -0.4722  0.1289
18921TIP3    H278179   2.320   4.885   3.079  0.8157  0.0274  0.0689
18922TIP3   OH278180   6.282   6.671  11.837  0.5934 -0.3091 -0.4829
18922TIP3    H178181   6.235   6.738  11.887  0.5625 -1.0241  0.4766
18922TIP3    H278182   6.220   6.646  11.768 -0.4675 -1.2097  0.7412
18923TIP3   OH278183   6.076   6.345  14.034  0.4175  0.3112 -0.0185
18923TIP3    H178184   6.123   6.276  14.081 -1.0455 -0.4738  0.3448
18923TIP3    H278185   6.076   6.316  13.943 -1.4113 -0.9396  0.3315
18924TIP3   OH278186   1.971   4.149  11.339 -0.2583  0.0327  0.4215
18924TIP3    H178187   2.056   4.191  11.355 -0.4935  0.3454  0.8535
18924TIP3    H278188   1.915   4.219  11.305 -0.0222 -0.4240 -0.9940
18925TIP3   OH278189   1.440   6.621   1.498 -0.6220 -0.5609  0.3256
18925TIP3    H178190   1.496   6.544   1.495  0.1630  0.0228 -0.4361
18925TIP3    H278191   1.449   6.661   1.411 -1.1991  0.2554  0.6265
18926TIP3   OH278192   5.173   2.883  15.875 -0.0399  0.0521  0.7711
18926TIP3    H178193   5.145   2.819  15.940  1.2691 -1.1720  0.1839
18926TIP3    H278194   5.134   2.852  15.793  0.3270  0.1973  0.5408
18927TIP3   OH278195   3.416   1.216   1.155  0.2879  0.2288  0.5526
18927TIP3    H178196   3.401   1.270   1.233 -0.5397  0.5771  0.1674
18927TIP3    H278197   3.470   1.144   1.186  1.4368  1.2737  1.0777
18928TIP3   OH278198   0.364   6.420   0.769  0.9045  0.6604 -0.0656
18928TIP3    H178199   0.319   6.390   0.690  2.2680 -1.8699  0.0062
18928TIP3    H278200   0.387   6.511   0.750  0.9741  0.2078 -2.5349
18929TIP3   OH278201   6.606   4.553   5.622 -0.0563  0.2679 -0.2505
18929TIP3    H178202   6.687   4.574   5.669 -1.4592 -0.5459  2.7652
18929TIP3    H278203   6.547   4.626   5.643 -0.5732  0.1529 -1.2489
18930TIP3   OH278204   0.575   4.722   1.300  0.5192  0.8562  0.0195
18930TIP3    H178205   0.567   4.631   1.331 -0.4258  0.7310 -0.5547
18930TIP3    H278206   0.596   4.772   1.379  0.3757  0.2316  0.4652
18931TIP3   OH278207   3.767   2.627   1.167  0.4564  0.0468  0.1971
18931TIP3    H178208   3.764   2.723   1.165 -2.3420  0.0394 -1.6042
18931TIP3    H278209   3.854   2.605   1.133  0.9275  1.9406  0.0579
18932TIP3   OH278210   5.416   1.548  13.701  0.3426  0.2295 -0.0565
18932TIP3    H178211   5.415   1.575  13.609 -0.1975  2.0853  0.4669
18932TIP3    H278212   5.339   1.589  13.739  0.8072 -0.1530  1.3407
18933TIP3   OH278213   1.641   4.103   1.940 -0.3082  0.3665  0.0876
18933TIP3    H178214   1.708   4.118   2.006 -0.7962  1.1228  0.4323
18933TIP3    H278215   1.602   4.189   1.925 -0.2217  0.2032 -1.1799
18934TIP3   OH278216   0.498   1.968   0.378 -0.4101 -0.3308  0.8010
18934TIP3    H178217   0.433   1.911   0.420  0.3815 -1.5868  0.3503
18934TIP3    H278218   0.553   1.999   0.450  0.9220 -2.4483  0.7662
18935TIP3   OH278219   5.633   3.828  11.402 -0.0298 -0.0133  0.2605
18935TIP3    H178220   5.631   3.875  11.319  1.1994  1.2635  0.9143
18935TIP3    H278221   5.691   3.753  11.386  2.2388  1.5704  0.5659
18936TIP3   OH278222   2.414   6.075   1.648 -0.3780 -0.3344  0.3603
18936TIP3    H178223   2.334   6.024   1.653 -0.2461 -0.5405  0.3779
18936TIP3    H278224   2.422   6.116   1.735 -0.4981 -0.2598  0.3362
18937TIP3   OH278225   3.052   3.141   0.695  0.0269  0.4638 -0.1145
18937TIP3    H178226   3.033   3.191   0.774  1.3346  2.4765 -0.9899
18937TIP3    H278227   2.989   3.173   0.630  0.2502  0.2836 -0.4239
18938TIP3   OH278228   2.923   6.284  16.754  0.1142 -0.3648 -0.1412
18938TIP3    H178229   3.008   6.327  16.755 -1.3268  2.7594  0.7826
18938TIP3    H278230   2.904   6.273  16.661  1.2449 -0.4968 -0.3700
18939TIP3   OH278231   3.013   1.238   3.290  0.1236  0.7754  0.3527
18939TIP3    H178232   2.997   1.215   3.382 -3.1487  0.1163 -0.2484
18939TIP3    H278233   2.946   1.304   3.270 -0.0835 -0.0278 -1.8510
18940TIP3   OH278234   1.833   0.844   3.059  0.6797  0.0090  0.3745
18940TIP3    H178235   1.813   0.856   3.152 -0.9568  0.3115  0.0161
18940TIP3    H278236   1.783   0.913   3.015  0.8012 -0.6290 -0.7955
18941TIP3   OH278237   4.864   2.689  15.874 -0.2421  0.0350  0.8310
18941TIP3    H178238   4.781   2.642  15.877  0.2541 -0.9964 -0.6313
18941TIP3    H278239   4.870   2.723  15.785  1.4170 -0.9374  0.5145
18942TIP3   OH278240   6.085   4.851   0.905  0.7127 -0.1499  0.0193
18942TIP3    H178241   6.035   4.909   0.849  3.2724  1.3337 -0.8856
18942TIP3    H278242   6.095   4.770   0.855 -0.0253 -0.1571 -0.1231
18943TIP3   OH278243   4.949   0.195   5.829 -0.1530 -0.1941  0.0681
18943TIP3    H178244   5.025   0.180   5.886 -0.1722  0.5916  0.3023
18943TIP3    H278245   4.902   0.267   5.870  0.8498  1.7020 -1.9430
18944TIP3   OH278246   4.145   3.751  10.428 -0.4184  0.4734 -0.5986
18944TIP3    H178247   4.234   3.770  10.399  0.5348 -1.1305  1.0572
18944TIP3    H278248   4.099   3.834  10.421  1.8850  1.9690  0.7959
18945TIP3   OH278249   1.753   5.301  15.733  0.1239 -0.5325  0.1453
18945TIP3    H178250   1.813   5.336  15.799  0.2494  0.0794 -0.2831
18945TIP3    H278251   1.802   5.229  15.693  0.2523 -0.5633  0.3546
18946TIP3   OH278252   4.977   0.266   0.502  0.2757 -0.0873 -0.3957
18946TIP3    H178253   5.004   0.357   0.492 -0.3515  0.3571  1.5526
18946TIP3    H278254   4.955   0.238   0.413 -0.3001  1.9150 -0.9486
18947TIP3   OH278255   3.704   5.522  15.244  0.5262  0.3318  0.3649
18947TIP3    H178256   3.626   5.550  15.292  0.0354  0.0488 -0.2465
18947TIP3    H278257   3.777   5.554  15.296  0.1061 -2.0154  2.6237
18948TIP3   OH278258   6.392   2.059  13.983 -0.2110  0.3514 -0.3969
18948TIP3    H178259   6.360   2.087  13.898 -0.0485 -0.1201 -0.6185
18948TIP3    H278260   6.398   1.963  13.977 -0.3982  0.2942  0.2127
18949TIP3   OH278261   1.887   2.188  12.712 -0.0555  0.2488 -0.1276
18949TIP3    H178262   1.805   2.229  12.739 -0.1450  0.5753 -0.8668
18949TIP3    H278263   1.942   2.261  12.682  0.6516  0.0773  0.7065
18950TIP3   OH278264   2.619   4.223   2.792  0.2144 -0.1955 -0.2079
18950TIP3    H178265   2.525   4.214   2.804  0.3046 -1.5345 -0.3811
18950TIP3    H278266   2.628   4.297   2.732 -0.6218  1.0382  1.1135
18951TIP3   OH278267   4.821   2.047  14.907  0.3229 -0.2613  0.0644
18951TIP3    H178268   4.756   2.055  14.837 -0.6141 -0.2281  0.9066
18951TIP3    H278269   4.899   2.012  14.865 -1.1633 -3.1934 -0.4678
18952TIP3   OH278270   5.343   5.311   6.317 -0.6241 -0.2288  0.3836
18952TIP3    H178271   5.376   5.388   6.272 -1.1266 -0.9538 -1.3257
18952TIP3    H278272   5.405   5.296   6.389  0.8467  0.3396 -0.7214
18953TIP3   OH278273   1.812   2.320  17.001 -0.3168 -0.5859 -0.6121
18953TIP3    H178274   1.830   2.315  17.095 -2.2378  0.0638 -0.1730
18953TIP3    H278275   1.721   2.346  16.995 -0.4024 -1.1804 -2.6835
18954TIP3   OH278276   2.085   0.740   4.987 -0.0471 -0.1533  0.6077
18954TIP3    H178277   2.155   0.759   5.048 -0.1544  1.8438  0.1876
18954TIP3    H278278   2.128   0.697   4.913  0.0714 -2.6416  2.0319
18955TIP3   OH278279   6.656   0.568   5.476 -0.3551 -0.3799 -0.6850
18955TIP3    H178280   6.571   0.612   5.477 -0.5915 -0.8369 -0.2416
18955TIP3    H278281   6.713   0.623   5.530 -0.5387 -0.3939 -0.4746
18956TIP3   OH278282   3.345   3.884   4.813  0.1631  0.1599 -0.0354
18956TIP3    H178283   3.437   3.888   4.785  0.1479 -1.8788 -0.4957
18956TIP3    H278284   3.319   3.793   4.797 -3.1521  1.4841 -3.7055
18957TIP3   OH278285   6.064   3.850  12.443 -0.9902 -0.2391 -0.3937
18957TIP3    H178286   6.039   3.907  12.370  0.4675  0.4060 -0.4275
18957TIP3    H278287   6.055   3.905  12.521 -0.0568 -0.0946 -0.3752
18958TIP3   OH278288   0.065   1.573   3.393  0.2971 -0.3546  0.1632
18958TIP3    H178289   0.026   1.623   3.321  0.4394 -0.1543  0.2248
18958TIP3    H278290   0.008   1.497   3.403  1.0879 -1.1667 -1.1500
18959TIP3   OH278291   6.434   3.691  14.758 -0.0495  0.3722  0.5218
18959TIP3    H178292   6.361   3.724  14.810  0.6165 -0.3128  1.9628
18959TIP3    H278293   6.393   3.646  14.684 -1.1824 -1.3455  2.1023
18960TIP3   OH278294   0.275   5.078   3.981 -0.1277 -0.1188 -0.2309
18960TIP3    H178295   0.280   5.079   4.076  2.0016 -3.0864 -0.1673
18960TIP3    H278296   0.194   5.031   3.961  0.1073 -0.6828  0.1454
18961TIP3   OH278297   6.728   6.337   0.425  0.1922 -0.1332 -0.5565
18961TIP3    H178298   6.729   6.428   0.396 -1.1033  0.0433 -0.1026
18961TIP3    H278299   6.682   6.290   0.356  0.1320 -0.2995 -0.4055
18962TIP3   OH278300   0.280   0.865   1.058  0.2498 -0.6110 -0.5218
18962TIP3    H178301   0.309   0.847   0.969  0.5044 -2.0620 -0.1588
18962TIP3    H278302   0.218   0.795   1.079 -1.2905  0.7680 -0.2163
18963TIP3   OH278303   5.387   0.588   0.588 -0.5605  0.2640  0.0057
18963TIP3    H178304   5.385   0.679   0.559 -0.1029  0.9078  1.8466
18963TIP3    H278305   5.451   0.587   0.659 -0.4316 -1.5461 -0.0937
18964TIP3   OH278306   2.135   5.519   3.061  0.2630 -0.5698 -0.2388
18964TIP3    H178307   2.196   5.583   3.097 -0.6918 -0.0099  0.4197
18964TIP3    H278308   2.170   5.434   3.088 -0.1225 -0.1809  1.5626
18965TIP3   OH278309   5.407   4.363  13.027 -0.2677  0.0011 -0.1071
18965TIP3    H178310   5.492   4.326  13.052 -1.7860 -3.3806  0.6055
18965TIP3    H278311   5.385   4.317  12.946 -1.8527  0.0533  0.2772
18966TIP3   OH278312   0.328   4.536  11.199 -0.2002  0.1622  0.3443
18966TIP3    H178313   0.322   4.561  11.107  0.4136  0.4819  0.3856
18966TIP3    H278314   0.250   4.482  11.214 -1.2059  1.4940  0.0892
18967TIP3   OH278315   0.507   0.115  11.752 -0.9181 -0.5604 -0.0804
18967TIP3    H178316   0.574   0.052  11.727  0.0645  1.2664 -2.5286
18967TIP3    H278317   0.554   0.180  11.804 -0.3627  1.2424 -2.5988
18968TIP3   OH278318   0.262   5.844   4.433  0.4356  0.1063 -0.0462
18968TIP3    H178319   0.227   5.767   4.390 -1.3686  0.5961  0.4397
18968TIP3    H278320   0.235   5.917   4.377  0.4216  0.5242  0.4945
18969TIP3   OH278321   3.780   1.511   3.616  0.5532  0.0894 -0.5209
18969TIP3    H178322   3.729   1.587   3.585  0.5807  0.1269 -0.4743
18969TIP3    H278323   3.869   1.545   3.626  0.8632 -0.2964 -1.8326
18970TIP3   OH278324   5.770   5.987   1.822  0.4133 -0.1061 -0.0802
18970TIP3    H178325   5.678   5.963   1.818  0.2991  0.3057 -0.0126
18970TIP3    H278326   5.793   6.009   1.732  0.7524 -1.2971 -0.2981
18971TIP3   OH278327   4.647   6.144  11.714 -0.4668  0.5813  0.3234
18971TIP3    H178328   4.697   6.084  11.658  0.7564  1.0593  0.8780
18971TIP3    H278329   4.556   6.133  11.685  0.0866  0.5976 -1.5537
18972TIP3   OH278330   5.891   1.101   2.843 -0.0702  0.4052 -0.3944
18972TIP3    H178331   5.841   1.082   2.923 -0.9724 -0.7025 -1.1866
18972TIP3    H278332   5.940   1.021   2.826  0.8605  0.9712 -0.4411
18973TIP3   OH278333   1.864   4.151   2.153 -0.1207 -0.0034  0.1544
18973TIP3    H178334   1.839   4.243   2.155 -2.1667 -0.5148  1.0418
18973TIP3    H278335   1.884   4.129   2.244 -2.8865 -1.1524  0.6014
18974TIP3   OH278336   5.556   3.751  14.537  0.6660 -0.4388 -0.0912
18974TIP3    H178337   5.613   3.766  14.461  0.7508  2.9628  0.4949
18974TIP3    H278338   5.473   3.791  14.512  0.2574 -0.5230  1.0974
18975TIP3   OH278339   4.882   0.031  11.160 -0.6290 -0.1199 -0.3353
18975TIP3    H178340   4.794   0.025  11.199  0.0785 -2.3062  1.1360
18975TIP3    H278341   4.924  -0.051  11.186  1.8564  0.8832 -0.9980
18976TIP3   OH278342   4.060   6.767  11.833 -0.3265 -0.5345 -0.0230
18976TIP3    H178343   4.041   6.706  11.761 -2.4446 -2.5341  2.0436
18976TIP3    H278344   3.996   6.837  11.823  0.4526  0.0589 -0.9701
18977TIP3   OH278345   6.160   2.086   4.479  0.2534 -0.3826 -0.1328
18977TIP3    H178346   6.070   2.058   4.466  0.4036 -0.9454  0.0120
18977TIP3    H278347   6.178   2.146   4.406  0.3402 -1.6760 -1.2189
18978TIP3   OH278348   6.037   4.514  12.641 -0.6440 -0.1671  0.5543
18978TIP3    H178349   5.959   4.537  12.589  0.4247  0.0413 -1.0518
18978TIP3    H278350   6.035   4.576  12.714 -0.4365  1.9049 -1.0775
18979TIP3   OH278351   1.556   6.146  15.168 -0.0211  0.2978  0.3690
18979TIP3    H178352   1.501   6.189  15.233 -0.1139 -1.0271  1.2057
18979TIP3    H278353   1.629   6.110  15.218  1.1256  1.1937 -0.5917
18980TIP3   OH278354   0.355   0.729   3.575 -0.4177 -0.0718  0.0038
18980TIP3    H178355   0.329   0.806   3.524 -2.3566 -0.7936 -0.2050
18980TIP3    H278356   0.321   0.746   3.663 -1.2105 -0.8484 -0.1455
18981TIP3   OH278357   6.335   5.612  11.277  0.2369 -0.0293  0.3144
18981TIP3    H178358   6.315   5.631  11.369  0.6103  1.0043  0.1965
18981TIP3    H278359   6.322   5.696  11.233  1.8733 -0.0555 -0.2694
18982TIP3   OH278360   5.465   6.811   4.246  0.3236  0.1480 -0.8398
18982TIP3    H178361   5.489   6.904   4.247 -0.5971  0.3969  0.6486
18982TIP3    H278362   5.549   6.764   4.251  0.6904  0.9600  1.9759
18983TIP3   OH278363   2.452   0.627  15.144 -0.3064  0.4298 -0.2813
18983TIP3    H178364   2.507   0.604  15.069 -0.7368 -1.1619 -0.1413
18983TIP3    H278365   2.486   0.712  15.174  2.9099 -1.0301  0.5857
18984TIP3   OH278366   4.938   2.070  12.176  0.7336 -0.0274 -0.4143
18984TIP3    H178367   4.879   2.016  12.229 -0.9872 -0.6898 -2.8326
18984TIP3    H278368   4.908   2.159  12.191  0.9405 -0.1022  0.4943
18985TIP3   OH278369   6.800   4.514   5.291  0.0338  0.6891  0.2102
18985TIP3    H178370   6.777   4.571   5.364  0.2978  1.5619 -0.3696
18985TIP3    H278371   6.885   4.548   5.260  0.2891 -0.1426 -0.0247
18986TIP3   OH278372   5.482   0.382  13.220 -0.3725  0.1808  0.0174
18986TIP3    H178373   5.543   0.331  13.274  0.9643  0.8011 -0.8428
18986TIP3    H278374   5.398   0.373  13.263  0.5510  0.2510  1.9361
18987TIP3   OH278375   6.370   0.571   3.651 -0.6078  0.1750 -0.0116
18987TIP3    H178376   6.361   0.484   3.613 -0.8437  0.1151  0.1816
18987TIP3    H278377   6.452   0.568   3.700 -0.9110 -0.1156  0.4762
18988TIP3   OH278378   1.617   5.359  12.604 -0.1172  0.8070 -0.7559
18988TIP3    H178379   1.639   5.318  12.521  1.1572 -0.7891  0.3137
18988TIP3    H278380   1.668   5.439  12.606 -0.0575  0.7898 -1.4459
18989TIP3   OH278381   2.216   3.355  12.487  0.2382 -0.5343 -0.8764
18989TIP3    H178382   2.258   3.441  12.490 -1.4542  0.3459 -0.9966
18989TIP3    H278383   2.288   3.294  12.475  1.3555  1.0092 -2.6102
18990TIP3   OH278384   5.383   5.934  16.913  0.1202 -0.2752 -0.3772
18990TIP3    H178385   5.310   5.980  16.955 -0.3666 -0.9791 -0.4454
18990TIP3    H278386   5.438   6.004  16.877  0.8779  0.4162  1.9179
18991TIP3   OH278387   3.207   3.790   2.759  0.3602  0.1494  0.1238
18991TIP3    H178388   3.175   3.845   2.830 -0.6762  0.4583 -0.5553
18991TIP3    H278389   3.170   3.829   2.680  3.0649  0.9872 -0.8276
18992TIP3   OH278390   0.305   5.422   0.355  0.3638  0.0543 -0.4973
18992TIP3    H178391   0.342   5.337   0.332 -0.5634 -0.2789 -0.8054
18992TIP3    H278392   0.330   5.480   0.282  0.0560 -0.2315 -0.8311
18993TIP3   OH278393   0.022   4.478   0.032  0.3157  0.8987  0.2744
18993TIP3    H178394   0.049   4.545  -0.031 -1.5808  1.6659  0.1909
18993TIP3    H278395   0.010   4.526   0.114  0.6121  0.3274  0.6555
18994TIP3   OH278396   3.854   3.002  14.383 -0.1581 -0.1733  0.2234
18994TIP3    H178397   3.797   3.071  14.349  0.8583  0.9788  0.7516
18994TIP3    H278398   3.839   3.001  14.477 -0.3903 -0.9060  0.1868
18995TIP3   OH278399   0.880   2.116  16.511 -0.4908 -0.7768  0.1339
18995TIP3    H178400   0.803   2.104  16.568  0.5273 -1.8771  1.3511
18995TIP3    H278401   0.880   2.038  16.455  0.2987 -1.3276  0.8687
18996TIP3   OH278402   5.610   3.375   0.348  0.0496  0.4499 -0.4731
18996TIP3    H178403   5.517   3.390   0.330 -0.2473 -0.0700  0.5586
18996TIP3    H278404   5.652   3.460   0.333 -0.3978  0.4191 -2.0517
18997TIP3   OH278405   4.017   6.785   4.386 -0.2319  0.4079  0.6213
18997TIP3    H178406   3.928   6.751   4.374 -0.7077  0.9379  2.3085
18997TIP3    H278407   4.071   6.708   4.399 -0.1750 -0.0028 -1.6261
18998TIP3   OH278408   0.782   2.396  15.872  0.3974 -0.5392 -0.0484
18998TIP3    H178409   0.838   2.409  15.795  1.1232 -0.2378  0.5179
18998TIP3    H278410   0.819   2.318  15.915 -2.2714 -3.0670 -1.9689
18999TIP3   OH278411   5.252   3.562   5.638 -0.7871  0.4091  0.0155
18999TIP3    H178412   5.248   3.486   5.580  1.0930  0.2614  0.0219
18999TIP3    H278413   5.197   3.539   5.713  0.3772 -1.3003  0.3884
19000TIP3   OH278414   3.439   4.591  13.930 -0.4901  0.0206  0.5472
19000TIP3    H178415   3.469   4.598  13.839  0.5581  0.2335  0.8955
19000TIP3    H278416   3.498   4.527  13.970 -0.3522  0.6070  1.3084
19001TIP3   OH278417   3.253   1.324   4.552  0.4146  0.1524 -0.0604
19001TIP3    H178418   3.328   1.265   4.559 -1.3859 -2.2865 -0.2724
19001TIP3    H278419   3.291   1.412   4.559  3.3776 -0.9323 -1.1040
19002TIP3   OH278420   2.571   3.044   4.575  0.7503 -0.3335  0.3588
19002TIP3    H178421   2.589   2.954   4.550  0.7335 -0.5386  1.0522
19002TIP3    H278422   2.492   3.039   4.630  0.1506  0.2251 -0.4215
19003TIP3   OH278423   3.407   5.903   4.009 -0.4304  0.0317 -0.4216
19003TIP3    H178424   3.329   5.853   3.987  0.0297 -0.1913 -1.6302
19003TIP3    H278425   3.469   5.837   4.042 -0.0929 -0.1043 -1.2911
19004TIP3   OH278426   0.942   6.572  11.348 -0.8023  0.4586  0.6082
19004TIP3    H178427   0.882   6.531  11.410  0.4320  0.9383  2.1876
19004TIP3    H278428   0.934   6.666  11.366 -0.5031  0.6066 -0.0189
19005TIP3   OH278429   2.812   3.168  12.708  0.5942  0.5226 -0.0452
19005TIP3    H178430   2.732   3.214  12.734 -0.1263 -0.8572  0.2754
19005TIP3    H278431   2.873   3.238  12.683 -0.3348  1.6547  0.7470
19006TIP3   OH278432   3.272   0.401   2.726  0.1666 -0.5317  0.1249
19006TIP3    H178433   3.308   0.349   2.653 -1.5907 -1.1491 -0.3523
19006TIP3    H278434   3.232   0.477   2.684 -0.1030 -0.4490  0.5295
19007TIP3   OH278435   0.822   3.871   2.724  0.0167 -0.1621  0.2565
19007TIP3    H178436   0.914   3.859   2.703  0.0265  1.5963 -0.9743
19007TIP3    H278437   0.822   3.930   2.799 -0.1076 -0.6947  0.6790
19008TIP3   OH278438   1.048   4.611  13.944  0.1083  0.0328  0.4786
19008TIP3    H178439   1.131   4.644  13.909  1.1616 -2.2679  0.6324
19008TIP3    H278440   0.983   4.634  13.878  1.4857 -1.2178 -1.4078
19009TIP3   OH278441   1.343   6.044  12.066  0.3505 -0.1887 -0.6213
19009TIP3    H178442   1.310   6.080  11.983 -0.7193 -0.2707 -0.2424
19009TIP3    H278443   1.317   6.108  12.132 -0.1631 -0.8809 -0.1463
19010TIP3   OH278444   3.222   3.192  13.606 -0.5595 -1.1100 -0.2823
19010TIP3    H178445   3.257   3.278  13.628 -0.0741 -1.3306 -0.1568
19010TIP3    H278446   3.204   3.151  13.691 -0.1321 -1.3877 -0.3207
19011TIP3   OH278447   3.354   0.904   4.801 -0.4990 -0.5168 -0.7327
19011TIP3    H178448   3.350   0.870   4.890  0.6261  0.6299 -0.2196
19011TIP3    H278449   3.263   0.902   4.770 -1.1092  0.3220  0.9135
19012TIP3   OH278450   5.918   2.308  13.757 -0.1380  0.1581  0.7870
19012TIP3    H178451   5.853   2.377  13.743 -2.2079 -1.2525  2.7519
19012TIP3    H278452   5.941   2.315  13.850 -0.5756 -1.8803  1.0973
19013TIP3   OH278453   0.127   2.135   0.486 -1.2862  0.0288 -0.1415
19013TIP3    H178454   0.079   2.098   0.560 -2.8426  0.6849 -0.7720
19013TIP3    H278455   0.059   2.158   0.422 -0.1277  1.0006 -1.0895
19014TIP3   OH278456   4.281   2.460   3.070 -0.7271 -0.5515 -0.0525
19014TIP3    H178457   4.306   2.479   2.980  4.0284 -0.3835  1.0856
19014TIP3    H278458   4.268   2.545   3.111  1.7960 -0.3466  0.4533
19015TIP3   OH278459   3.847   2.696   3.514 -0.7506  0.7214 -0.2616
19015TIP3    H178460   3.775   2.687   3.577 -1.1423 -0.9006 -0.9034
19015TIP3    H278461   3.921   2.652   3.556 -0.6614  0.7137 -0.4272
19016TIP3   OH278462   5.362   0.355   2.868  0.5903 -0.2000  0.2864
19016TIP3    H178463   5.388   0.439   2.831 -1.5930  0.5628  0.3477
19016TIP3    H278464   5.430   0.335   2.932  0.9746  1.6880  0.5123
19017TIP3   OH278465   5.246   0.562  16.247 -0.0201 -0.6742 -0.1741
19017TIP3    H178466   5.209   0.555  16.159  1.1524 -3.3421 -0.5479
19017TIP3    H278467   5.337   0.535  16.237  0.4029 -0.0875  1.7056
19018TIP3   OH278468   6.043   5.417   0.217  0.3166 -0.0997  0.0683
19018TIP3    H178469   6.011   5.506   0.200 -1.3933 -0.7470 -0.3473
19018TIP3    H278470   6.079   5.388   0.133  1.2626  0.3330  0.3142
19019TIP3   OH278471   2.486   5.402  11.251 -0.3833 -0.0566  0.2716
19019TIP3    H178472   2.464   5.425  11.341  0.4185 -1.5391  0.8844
19019TIP3    H278473   2.434   5.462  11.198  0.0354  1.6912  1.6980
19020TIP3   OH278474   2.092   5.000  12.828  0.3073 -0.0107  0.0406
19020TIP3    H178475   2.091   5.076  12.770  1.7272 -0.1218 -0.1771
19020TIP3    H278476   2.014   4.951  12.805 -0.7196  1.4380  0.2816
19021TIP3   OH278477   5.304   5.828  15.007  0.9038  0.1241 -0.5521
19021TIP3    H178478   5.386   5.876  15.020 -0.1503  1.5494  1.5116
19021TIP3    H278479   5.241   5.874  15.063 -1.2777 -1.0196 -1.9386
19022TIP3   OH278480   2.218   4.657  14.415  0.4723 -0.5336 -0.2292
19022TIP3    H178481   2.145   4.709  14.449  1.5355  2.0150 -1.5384
19022TIP3    H278482   2.240   4.698  14.332  3.8043 -0.7203  0.4140
19023TIP3   OH278483   6.640   6.467  14.679  0.3651 -0.1150  0.5145
19023TIP3    H178484   6.612   6.399  14.618 -0.1636 -1.0228  1.7309
19023TIP3    H278485   6.736   6.468  14.671  0.3345 -0.5690  0.0344
19024TIP3   OH278486   4.798   4.652   0.376 -0.4002 -0.4483 -0.7394
19024TIP3    H178487   4.852   4.703   0.436 -0.0132 -0.4567 -1.0778
19024TIP3    H278488   4.754   4.717   0.322 -1.2484 -0.4114 -0.0412
19025TIP3   OH278489   4.510   0.923  16.273 -0.0977  0.2914 -0.5646
19025TIP3    H178490   4.428   0.941  16.320 -0.5720 -0.8598 -0.9293
19025TIP3    H278491   4.506   0.830  16.253  0.5169  0.5783 -2.1092
19026TIP3   OH278492   0.455   3.301   0.005 -0.2515  0.0107  0.7568
19026TIP3    H178493   0.383   3.358   0.032  0.3117  1.6470 -0.9626
19026TIP3    H278494   0.519   3.361  -0.035  1.2742 -1.6044  0.6422
19027TIP3   OH278495   2.201   6.765  14.723 -0.1804 -0.3270 -0.0320
19027TIP3    H178496   2.129   6.744  14.783 -1.1719  3.5211  0.3740
19027TIP3    H278497   2.276   6.780  14.781 -0.1721 -0.1718 -0.0838
19028TIP3   OH278498   6.366   3.159  17.088  0.5566  0.1362  0.9930
19028TIP3    H178499   6.449   3.143  17.044  0.4874  1.2557  0.4263
19028TIP3    H278500   6.367   3.252  17.109 -1.0087  0.4079  0.0130
19029TIP3   OH278501   2.052   1.334  16.511 -0.4700 -0.5079  0.2544
19029TIP3    H178502   2.050   1.419  16.468 -0.7944 -1.5420 -1.8969
19029TIP3    H278503   2.130   1.291  16.476 -0.1808 -1.0314  1.4871
19030TIP3   OH278504   1.138   1.938   1.661  0.5243  0.6291  0.5732
19030TIP3    H178505   1.178   2.018   1.694 -2.3441  1.9484  1.1116
19030TIP3    H278506   1.115   1.958   1.570 -0.0433  0.3716  0.6541
19031TIP3   OH278507   0.302   1.830  15.236  0.2182  0.3369 -0.4553
19031TIP3    H178508   0.214   1.844  15.270  0.9166 -0.1380  1.7239
19031TIP3    H278509   0.317   1.736  15.247  0.3120  0.0492 -2.6640
19032TIP3   OH278510   6.351   3.607  11.130  0.0529  0.3874  0.1006
19032TIP3    H178511   6.380   3.518  11.112 -1.6905 -0.2530  0.2270
19032TIP3    H278512   6.403   3.635  11.205  1.6106  0.0206 -0.8033
19033TIP3   OH278513   1.857   2.708   2.669 -0.2269 -0.0566  0.2039
19033TIP3    H178514   1.940   2.680   2.629 -0.2464 -1.9116  1.3473
19033TIP3    H278515   1.802   2.630   2.666 -2.3654  1.3975 -1.4317
19034TIP3   OH278516   5.848   3.658  12.102  0.2506  0.5813 -0.0779
19034TIP3    H178517   5.832   3.674  12.195  1.4910  0.3781  0.1833
19034TIP3    H278518   5.938   3.685  12.088  0.8698 -1.6029 -0.6817
19035TIP3   OH278519   6.089   1.339   1.931 -0.2284  0.0157 -0.3580
19035TIP3    H178520   6.052   1.336   2.019 -0.6949 -0.4916 -0.5639
19035TIP3    H278521   6.103   1.247   1.908 -0.2978  0.1333 -0.8847
19036TIP3   OH278522   4.156   5.330  15.374  0.1186  0.6890 -0.4999
19036TIP3    H178523   4.070   5.315  15.413  0.8655 -2.0036  0.3285
19036TIP3    H278524   4.138   5.353  15.283 -1.4736 -0.6124 -0.5437
19037TIP3   OH278525   3.015   0.885   2.371  0.2739  0.0546 -0.3681
19037TIP3    H178526   3.072   0.903   2.446 -1.1412 -2.5649  1.4930
19037TIP3    H278527   2.939   0.942   2.386  0.0072 -0.4384  0.2114
19038TIP3   OH278528   1.451   2.397   3.372  1.0488  0.5029  0.4397
19038TIP3    H178529   1.498   2.366   3.294  0.8113  0.1436  0.4363
19038TIP3    H278530   1.365   2.355   3.366  0.5470  1.5499  0.1861
19039TIP3   OH278531   6.756   0.292   5.454 -0.3773  0.1383 -0.4611
19039TIP3    H178532   6.819   0.287   5.526 -0.3881  0.0517 -0.4573
19039TIP3    H278533   6.714   0.377   5.464 -1.1757 -0.3320  0.3017
19040TIP3   OH278534   4.591   5.641  12.769 -0.5556  0.3617 -0.2100
19040TIP3    H178535   4.682   5.665  12.752  0.5623 -1.1523  2.8925
19040TIP3    H278536   4.549   5.724  12.793  1.0889  0.6433  2.1084
19041TIP3   OH278537   5.590   4.915  10.889 -0.0737 -0.3220  0.0578
19041TIP3    H178538   5.604   4.999  10.845 -1.7057 -0.3589 -0.6214
19041TIP3    H278539   5.540   4.938  10.968 -0.7585 -0.6536 -0.2650
19042TIP3   OH278540   2.346   3.974   4.281  0.3105  0.1696 -0.3650
19042TIP3    H178541   2.415   3.984   4.216  1.0106  0.8307  0.4576
19042TIP3    H278542   2.366   3.892   4.326 -0.0488 -0.1752 -0.8220
19043TIP3   OH278543   6.661   5.729   5.820  0.7253  0.4163 -0.7660
19043TIP3    H178544   6.660   5.634   5.808 -1.6623  0.3883 -0.7805
19043TIP3    H278545   6.648   5.742   5.914 -0.1883  0.7143 -0.9241
19044TIP3   OH278546   6.687   4.317  15.417  0.0373 -0.1465  0.3292
19044TIP3    H178547   6.768   4.274  15.446  2.0248  3.1461  0.2759
19044TIP3    H278548   6.643   4.252  15.363  2.2586 -2.3593  0.9785
19045TIP3   OH278549   1.684   0.097   2.210 -0.0616 -0.6665 -0.1819
19045TIP3    H178550   1.691   0.089   2.305 -1.1367 -1.0454 -0.1258
19045TIP3    H278551   1.593   0.075   2.190  0.1405 -0.5610 -1.2993
19046TIP3   OH278552   0.496   4.943   1.953  0.7815  0.4968  0.1944
19046TIP3    H178553   0.575   4.992   1.932  0.5881  2.1929  2.9269
19046TIP3    H278554   0.424   5.002   1.932  0.5192  1.2130  2.6954
19047TIP3   OH278555   1.680   5.664   4.015  0.2472  0.5851 -0.2598
19047TIP3    H178556   1.770   5.692   4.033  0.2357  0.7955 -0.5375
19047TIP3    H278557   1.653   5.619   4.096  1.1387 -0.8493 -0.7094
19048TIP3   OH278558   5.049   6.726   1.831  0.1017  0.2924  0.3419
19048TIP3    H178559   4.995   6.765   1.900 -1.4245 -0.8274 -0.1653
19048TIP3    H278560   5.116   6.676   1.878 -1.0188 -0.5953  1.0399
19049TIP3   OH278561   4.912   5.140   0.426  0.0875 -0.1329  0.0718
19049TIP3    H178562   4.954   5.092   0.497  1.0348 -0.4197 -0.6574
19049TIP3    H278563   4.822   5.155   0.456  0.4261 -0.4003  1.2407
19050TIP3   OH278564   5.351   2.452  14.508 -0.5103 -0.0983  0.1277
19050TIP3    H178565   5.430   2.440  14.561 -0.2836 -1.1729 -0.4157
19050TIP3    H278566   5.383   2.488  14.425 -0.5819 -0.5328 -0.0919
19051TIP3   OH278567   3.245   6.349   4.368  0.4697 -0.0506 -0.2319
19051TIP3    H178568   3.275   6.300   4.291  2.9093  0.6888  0.1451
19051TIP3    H278569   3.182   6.291   4.410  1.8802 -2.1308 -0.7954
19052TIP3   OH278570   3.920   3.883  16.934  0.0172  0.2248 -0.0682
19052TIP3    H178571   3.957   3.851  17.016  0.5320 -0.3577 -0.5122
19052TIP3    H278572   3.842   3.829  16.920  0.0868  0.1286 -0.0939
19053TIP3   OH278573   1.722   4.214  15.397  0.6970 -0.1708 -0.1673
19053TIP3    H178574   1.671   4.243  15.473  0.5875 -0.6665 -0.0490
19053TIP3    H278575   1.789   4.156  15.434  1.4474  0.5864 -0.3050
19054TIP3   OH278576   2.137   4.071  11.681 -0.5547 -0.6280 -0.2026
19054TIP3    H178577   2.224   4.032  11.689 -0.8163 -1.2074 -0.1494
19054TIP3    H278578   2.078   3.997  11.673 -1.0662 -0.2398 -0.0848
19055TIP3   OH278579   3.373   4.934   3.898 -0.3906 -0.6503 -0.2052
19055TIP3    H178580   3.364   4.844   3.868  0.6075 -0.6322 -0.6049
19055TIP3    H278581   3.317   4.940   3.975 -0.8655 -1.4651 -0.4771
19056TIP3   OH278582   0.890   2.256  14.314  0.6002  0.0438  0.1097
19056TIP3    H178583   0.868   2.349  14.304 -2.2292 -0.7109 -2.1446
19056TIP3    H278584   0.980   2.256  14.345  0.3540  3.5304  1.2483
19057TIP3   OH278585   0.327   3.097  11.641 -0.3063 -0.4228 -0.1880
19057TIP3    H178586   0.365   3.183  11.659 -3.2826  1.2740 -1.3877
19057TIP3    H278587   0.338   3.048  11.722  1.0787  1.2152  0.6689
19058TIP3   OH278588   0.610   4.862  12.717 -0.1175 -0.3507  0.3463
19058TIP3    H178589   0.584   4.834  12.805 -0.1437 -2.1112 -0.1725
19058TIP3    H278590   0.555   4.938  12.699 -0.6628 -0.4348  1.5434
19059TIP3   OH278591   2.312   2.771   3.010 -0.1664 -0.1811  0.0015
19059TIP3    H178592   2.296   2.736   2.922  1.6495  1.4098 -1.0550
19059TIP3    H278593   2.248   2.728   3.066 -0.4902 -2.2513 -1.8577
19060TIP3   OH278594   1.496   3.165   5.262 -0.0310  0.7644 -0.2645
19060TIP3    H178595   1.477   3.153   5.169 -0.1652  0.6647 -0.2241
19060TIP3    H278596   1.532   3.081   5.290 -0.8771  0.4770 -0.0042
19061TIP3   OH278597   5.247   4.271  13.851 -0.1766 -0.0328  0.5693
19061TIP3    H178598   5.290   4.265  13.766 -1.8354 -2.0553 -0.2188
19061TIP3    H278599   5.207   4.357  13.852 -1.3298 -0.4867 -1.3623
19062TIP3   OH278600   1.429   6.208  15.668 -0.1743 -0.1156 -0.0449
19062TIP3    H178601   1.340   6.173  15.664  0.3074 -1.2750 -1.3425
19062TIP3    H278602   1.454   6.200  15.760 -0.7209 -1.6318 -0.0013
19063TIP3   OH278603   0.732   2.355  15.193  0.2291  0.0395  0.3394
19063TIP3    H178604   0.747   2.448  15.205 -0.8994  0.2151  0.4821
19063TIP3    H278605   0.801   2.326  15.134 -0.5375  1.3411 -1.2417
19064TIP3   OH278606   1.520   3.815   0.482 -0.0496 -0.0718 -0.4620
19064TIP3    H178607   1.464   3.875   0.530  1.0189  0.1340  0.5629
19064TIP3    H278608   1.584   3.871   0.438  1.5635 -0.4413  1.2899
19065TIP3   OH278609   1.157   6.665   1.445 -0.1905 -0.0547 -0.5000
19065TIP3    H178610   1.248   6.641   1.463 -0.8855 -0.8972  2.3673
19065TIP3    H278611   1.105   6.599   1.490 -2.2254  1.8053  0.0613
19066TIP3   OH278612   2.234   3.364   1.160  0.1467 -0.2006  0.3474
19066TIP3    H178613   2.148   3.405   1.147  0.5746  0.2705 -1.2174
19066TIP3    H278614   2.296   3.437   1.159  0.5644 -0.5054  1.7832
19067TIP3   OH278615   6.805   2.608  14.807  0.1068  0.2249  0.3616
19067TIP3    H178616   6.879   2.659  14.840  0.7378 -1.0121  0.9433
19067TIP3    H278617   6.846   2.532  14.765 -0.8411 -0.8651  1.3362
19068TIP3   OH278618   5.485   2.939  11.470  0.1241 -0.0037  0.3251
19068TIP3    H178619   5.456   2.874  11.407 -0.7090 -0.6067  1.2907
19068TIP3    H278620   5.535   2.889  11.534 -0.5008  0.2839  1.0605
19069TIP3   OH278621   4.697   1.911   4.110 -0.2271 -0.0699  0.1282
19069TIP3    H178622   4.715   1.819   4.132 -1.1151 -0.2525  0.0994
19069TIP3    H278623   4.754   1.928   4.035  0.5660 -0.3391  0.6462
19070TIP3   OH278624   4.074   6.148  15.030  0.3143  0.4220  0.8390
19070TIP3    H178625   4.000   6.145  15.090 -1.1495 -1.7022 -0.9151
19070TIP3    H278626   4.147   6.112  15.080 -0.6661 -0.5376  1.6170
19071TIP3   OH278627   2.097   5.968   4.833 -0.0454  0.1518  0.0178
19071TIP3    H178628   2.171   5.958   4.892  0.7381  0.5556 -0.8756
19071TIP3    H278629   2.096   5.888   4.782 -0.4508 -0.0053  0.2659
19072TIP3   OH278630   1.428   1.162  12.377 -0.2349  0.0609 -0.7245
19072TIP3    H178631   1.517   1.129  12.365 -0.2293  0.2298 -1.1439
19072TIP3    H278632   1.432   1.211  12.459  0.1285  0.3008 -0.8830
19073TIP3   OH278633   4.543   0.114  12.478  0.2044 -0.1267  0.3543
19073TIP3    H178634   4.626   0.158  12.466  0.0062  0.3260  0.6424
19073TIP3    H278635   4.520   0.129  12.570  1.2210 -2.7087  1.1199
19074TIP3   OH278636   2.690   5.171  13.847  0.5796 -0.0963 -0.0713
19074TIP3    H178637   2.760   5.113  13.878  0.2300 -0.6263 -0.2443
19074TIP3    H278638   2.675   5.231  13.920  3.0928  1.8447 -1.0486
19075TIP3   OH278639   5.034   0.862  16.014  0.0331 -0.5774  0.6853
19075TIP3    H178640   5.079   0.869  16.098  0.2818  0.3159  0.4863
19075TIP3    H278641   4.944   0.887  16.032 -0.3685 -2.1612  1.0408
19076TIP3   OH278642   3.087   6.745   1.303 -0.3233  0.2363  0.6239
19076TIP3    H178643   2.993   6.761   1.311 -0.4707 -0.5239  0.5695
19076TIP3    H278644   3.122   6.761   1.391 -0.5040  0.5220  0.6440
19077TIP3   OH278645   1.310   4.982  12.943  0.2579  0.8752  0.6278
19077TIP3    H178646   1.350   5.068  12.934  0.0828  1.0653  1.5635
19077TIP3    H278647   1.248   4.992  13.015  0.6148 -0.1757  1.0948
19078TIP3   OH278648   6.588   0.546   1.033 -0.3250  0.1214  1.0960
19078TIP3    H178649   6.526   0.547   0.961 -1.6236 -1.7822  2.0970
19078TIP3    H278650   6.652   0.479   1.009 -0.6058 -0.3249  1.5777
19079TIP3   OH278651   3.385   0.985  16.939  0.1593 -0.3486 -0.6855
19079TIP3    H178652   3.313   0.925  16.961 -0.4803  0.8635  0.6899
19079TIP3    H278653   3.343   1.071  16.931  1.3674  0.2845 -0.4434
19080TIP3   OH278654   4.677   0.585  12.822 -0.2911  0.6743  0.2527
19080TIP3    H178655   4.700   0.492  12.814  1.6132  1.1916 -0.7025
19080TIP3    H278656   4.717   0.613  12.904 -0.1360  0.8573  0.1153
19081TIP3   OH278657   3.288   3.027   1.295 -0.1250  0.0443 -0.3693
19081TIP3    H178658   3.259   2.946   1.336 -1.0023  0.4724 -0.1177
19081TIP3    H278659   3.230   3.038   1.219 -2.6796  2.3694  1.7185
19082TIP3   OH278660   0.060   2.703  15.100 -0.2317  0.0399  0.2943
19082TIP3    H178661   0.055   2.748  15.185 -1.4085  1.7124 -0.6178
19082TIP3    H278662   0.135   2.744  15.057  0.1709 -0.5892  0.3862
19083TIP3   OH278663   0.735   3.529   2.170  0.6385 -0.1053  0.0759
19083TIP3    H178664   0.794   3.479   2.113  1.9111 -1.2200  2.2193
19083TIP3    H278665   0.759   3.620   2.156  1.7612 -0.4414 -0.2870
19084TIP3   OH278666   6.781   0.139  14.762 -0.4770 -0.3040 -0.4508
19084TIP3    H178667   6.686   0.146  14.753 -0.4047  0.2040 -0.8414
19084TIP3    H278668   6.794   0.071  14.828 -1.0859 -1.3898 -1.4186
19085TIP3   OH278669   4.564   6.794  15.084  0.2765 -0.5495 -0.2844
19085TIP3    H178670   4.554   6.880  15.043 -0.1056 -0.1930  0.5428
19085TIP3    H278671   4.656   6.771  15.069  0.1957 -0.3431 -1.1628
19086TIP3   OH278672   3.711   1.351   2.677 -0.1842 -0.0277  0.0404
19086TIP3    H178673   3.621   1.325   2.657  0.1730 -1.3814  0.0792
19086TIP3    H278674   3.713   1.361   2.772 -0.0608 -1.0218  0.1543
19087TIP3   OH278675   5.734   6.173  14.032 -0.4036  0.1111  0.2073
19087TIP3    H178676   5.808   6.129  14.074 -0.1723  2.0646  1.9541
19087TIP3    H278677   5.772   6.216  13.955  0.0212  0.0555  0.3851
19088TIP3   OH278678   2.593   2.005  16.501  0.3938 -0.6906 -0.3824
19088TIP3    H178679   2.575   2.077  16.561 -2.4362 -1.2369 -0.4323
19088TIP3    H278680   2.683   1.980  16.519  1.2089  2.2922  0.1983
19089TIP3   OH278681   4.335   1.880   4.739 -0.0158  0.3171 -0.6568
19089TIP3    H178682   4.371   1.919   4.659 -1.8455  1.3477 -1.0386
19089TIP3    H278683   4.290   1.801   4.709 -2.4280  1.7334 -1.0591
19090TIP3   OH278684   5.721   3.778  11.126 -0.1846 -0.4821 -0.2580
19090TIP3    H178685   5.798   3.820  11.086  0.4667 -0.0482  1.3750
19090TIP3    H278686   5.749   3.688  11.143 -0.5821 -0.7685 -1.0648
19091TIP3   OH278687   2.891   1.245  16.214  0.5910  0.1023  0.0512
19091TIP3    H178688   2.828   1.312  16.188  0.0623 -0.5632 -0.3784
19091TIP3    H278689   2.967   1.261  16.158  0.9404  1.1055  0.7888
19092TIP3   OH278690   1.814   2.787   0.229  0.2937 -0.0679 -0.4704
19092TIP3    H178691   1.821   2.722   0.159 -0.0820 -0.5567 -0.0659
19092TIP3    H278692   1.747   2.751   0.288  0.8668  0.1602  0.3274
19093TIP3   OH278693   5.809   0.434   0.255  0.3413  0.7278 -0.0404
19093TIP3    H178694   5.716   0.454   0.245  0.6050  2.3663  0.4979
19093TIP3    H278695   5.838   0.406   0.168 -0.5952  0.3891 -0.2543
19094TIP3   OH278696   4.122   5.529   1.202  0.5758 -0.1533  0.2603
19094TIP3    H178697   4.166   5.573   1.275  1.0514 -0.2802  0.0546
19094TIP3    H278698   4.112   5.597   1.135 -0.9006  0.2623  0.8721
19095TIP3   OH278699   5.667   1.221  12.554  0.5172  0.0101 -0.2233
19095TIP3    H178700   5.744   1.262  12.514  0.1019 -0.0452 -1.0894
19095TIP3    H278701   5.703   1.148  12.606  1.3415  1.8272  1.9231
19096TIP3   OH278702   4.974   5.675   5.885  0.1939  0.2151 -0.4479
19096TIP3    H178703   5.051   5.730   5.868 -0.8271  1.1193 -2.3707
19096TIP3    H278704   5.008   5.586   5.882  1.6782  0.6092  1.6614
19097TIP3   OH278705   5.589   0.377  15.460  0.4490 -0.4116 -0.1974
19097TIP3    H178706   5.581   0.462  15.417  0.4191 -0.3374 -0.0480
19097TIP3    H278707   5.681   0.372  15.487  0.4013 -0.3318 -0.0158
19098TIP3   OH278708   5.924   4.183  15.395 -0.2715  0.2934  0.1218
19098TIP3    H178709   5.989   4.187  15.325 -0.1533 -0.4997  0.1812
19098TIP3    H278710   5.847   4.143  15.354 -0.1463 -0.3256  0.4829
19099TIP3   OH278711   3.920   3.677   3.082 -0.3752 -0.2693 -0.2539
19099TIP3    H178712   3.923   3.756   3.027 -1.7372 -0.3726 -0.5206
19099TIP3    H278713   3.989   3.690   3.147  0.5575  0.3521 -1.3298
19100TIP3   OH278714   6.216   0.933   0.081  0.0677  0.0118  0.0147
19100TIP3    H178715   6.244   1.006   0.136 -1.6338  1.3713 -0.7983
19100TIP3    H278716   6.256   0.950  -0.004  2.5847 -2.0111  0.6672
19101TIP3   OH278717   1.030   6.291  11.508  0.2928  0.4955  0.4190
19101TIP3    H178718   1.002   6.221  11.449 -2.1974  0.8501  1.0930
19101TIP3    H278719   0.965   6.359  11.498  1.0042  1.4783  2.0020
19102TIP3   OH278720   2.733   2.899  13.916  0.6669 -0.0737 -0.1351
19102TIP3    H178721   2.777   2.823  13.878  2.5488  0.4563  0.8830
19102TIP3    H278722   2.642   2.872  13.925  1.0088 -1.6845 -1.1149
19103TIP3   OH278723   4.885   6.084   4.218  0.1204  0.1077  0.6725
19103TIP3    H178724   4.899   6.052   4.307 -1.1103  1.1310  1.2581
19103TIP3    H278725   4.811   6.034   4.185 -0.2011  0.5760  0.6735
19104TIP3   OH278726   4.279   2.314  13.269  0.5472  0.3957  0.1520
19104TIP3    H178727   4.291   2.398  13.224  0.1808 -0.2563 -1.2065
19104TIP3    H278728   4.185   2.307  13.284  0.6087  0.3560  0.5507
19105TIP3   OH278729   5.020   0.352   3.740 -0.2317  0.6296  0.5170
19105TIP3    H178730   5.051   0.265   3.765  0.8118  0.7727 -0.2093
19105TIP3    H278731   5.094   0.410   3.761 -0.1230  1.0383 -0.8959
19106TIP3   OH278732   4.834   5.122  15.447  0.0437 -0.0779  0.4355
19106TIP3    H178733   4.773   5.194  15.464  1.1939  0.5666  2.1649
19106TIP3    H278734   4.905   5.161  15.396  0.1712 -0.2396  0.4862
19107TIP3   OH278735   0.751   6.594  16.022 -0.5401  0.0963  0.5808
19107TIP3    H178736   0.742   6.515  16.075 -2.1486  0.2705  0.6184
19107TIP3    H278737   0.685   6.654  16.058 -1.5347  0.2951 -1.4699
19108TIP3   OH278738   0.428   5.193   0.001 -0.2574  0.0763 -0.1661
19108TIP3    H178739   0.346   5.176  -0.046 -0.9616  0.1732  0.9782
19108TIP3    H278740   0.442   5.114   0.053  0.8221 -0.2664 -0.9432
19109TIP3   OH278741   1.220   6.022  14.152 -0.2506 -0.2368  0.5017
19109TIP3    H178742   1.197   5.991  14.064  0.7067 -0.0899  0.1863
19109TIP3    H278743   1.296   6.078  14.138 -0.9995  0.9995  1.2661
19110TIP3   OH278744   2.030   0.807   4.642 -0.2571  0.1605  0.2226
19110TIP3    H178745   2.088   0.737   4.673  0.1808  0.2525 -0.3749
19110TIP3    H278746   1.943   0.778   4.668 -0.0207 -0.3495  0.4661
19111TIP3   OH278747   3.223   6.244   0.448 -0.1633  0.2957  0.3070
19111TIP3    H178748   3.292   6.198   0.401 -0.9173 -2.8161  2.0202
19111TIP3    H278749   3.269   6.295   0.515  0.5637  0.0425  0.0081
19112TIP3   OH278750   6.505   5.620  12.858  0.3459 -0.4623  0.0160
19112TIP3    H178751   6.462   5.548  12.813  1.7348 -1.2211 -0.1704
19112TIP3    H278752   6.598   5.597  12.856  1.2830  2.8515 -2.8928
19113TIP3   OH278753   3.109   6.224  12.472 -0.1195 -0.2075  0.3967
19113TIP3    H178754   3.028   6.273  12.479  0.4447  0.6609  0.9764
19113TIP3    H278755   3.176   6.283  12.505  1.0891 -0.0633 -2.0864
19114TIP3   OH278756   0.138   2.659   3.114  0.4497 -0.4911  0.4216
19114TIP3    H178757   0.057   2.618   3.144  0.3003 -0.4815  0.0316
19114TIP3    H278758   0.207   2.601   3.146  0.3348 -0.1403  1.3545
19115TIP3   OH278759   4.090   3.519  12.658 -0.4832  0.3470  0.4711
19115TIP3    H178760   4.139   3.436  12.660 -1.9919 -0.6071 -0.3653
19115TIP3    H278761   4.125   3.565  12.581  1.1729  1.0504  1.5940
19116TIP3   OH278762   0.573   5.969  11.951  0.4163 -0.4218  0.8245
19116TIP3    H178763   0.627   5.987  12.028  0.4315 -0.5113  0.8346
19116TIP3    H278764   0.488   5.943  11.988 -0.0848  1.0916  0.8156
19117TIP3   OH278765   0.039   0.028   1.192 -0.2453 -0.7136 -0.3921
19117TIP3    H178766   0.003   0.025   1.281  0.7709  1.5456  0.1709
19117TIP3    H278767   0.092   0.107   1.190  2.0746 -2.1832 -2.1898
19118TIP3   OH278768   3.687   5.408   4.596  0.5467  0.4613  0.2157
19118TIP3    H178769   3.603   5.382   4.559  0.1080  2.3263 -0.2057
19118TIP3    H278770   3.749   5.401   4.524  1.1567 -2.3265  0.8675
19119TIP3   OH278771   2.083   3.508  11.165  0.3060  0.2896 -0.4500
19119TIP3    H178772   2.134   3.565  11.224 -1.2326  3.0606 -1.5948
19119TIP3    H278773   2.134   3.504  11.085  1.1097 -1.2586  0.0964
19120TIP3   OH278774   3.268   6.187   4.144  0.0889 -0.2796  0.1858
19120TIP3    H178775   3.300   6.125   4.078  0.6884  0.3884 -0.1671
19120TIP3    H278776   3.177   6.161   4.160  0.4476 -1.5203  0.3675
19121TIP3   OH278777   4.195   5.519   4.352 -0.4207 -0.0019 -0.0459
19121TIP3    H178778   4.271   5.542   4.406 -1.9568 -0.8646  2.6874
19121TIP3    H278779   4.129   5.585   4.374 -1.7426 -1.5127  0.7351
19122TIP3   OH278780   0.829   1.259   5.931  0.1918 -0.2760 -0.4613
19122TIP3    H178781   0.804   1.228   6.018 -0.9596 -0.1127 -0.7214
19122TIP3    H278782   0.914   1.218   5.914  0.5105 -0.1669  0.8055
19123TIP3   OH278783   3.719   0.411  16.047  0.1332  0.2413 -0.1900
19123TIP3    H178784   3.638   0.361  16.034  0.3772 -0.3037  0.3343
19123TIP3    H278785   3.697   0.474  16.115  1.2302 -2.6637  3.1986
19124TIP3   OH278786   3.036   2.161  14.962 -0.1218 -0.2794 -0.1116
19124TIP3    H178787   2.967   2.223  14.982  0.3509  0.8636 -1.7571
19124TIP3    H278788   3.022   2.088  15.023 -2.0439  0.4256  0.3640
19125TIP3   OH278789   5.955   6.498   1.761  0.3208 -0.3844  0.1431
19125TIP3    H178790   5.875   6.448   1.749  0.2417  0.0486 -1.3168
19125TIP3    H278791   6.005   6.448   1.826  0.0737 -2.1864 -0.9573
19126TIP3   OH278792   3.382   5.302  11.530  0.3301  0.1687 -0.1950
19126TIP3    H178793   3.426   5.364  11.472 -0.2572 -1.2481 -2.2915
19126TIP3    H278794   3.288   5.322  11.520  0.2561  0.3428  0.8046
19127TIP3   OH278795   4.222   2.892  17.022  0.6114 -0.8036  0.0791
19127TIP3    H178796   4.297   2.921  16.970  1.8036 -2.0645  1.0286
19127TIP3    H278797   4.261   2.848  17.098 -1.0555  0.6210  1.8790
19128TIP3   OH278798   2.435   1.604  14.596 -0.2410 -0.3801  0.0565
19128TIP3    H178799   2.435   1.651  14.679 -0.7807 -0.3606  0.0504
19128TIP3    H278800   2.501   1.648  14.543  0.1979 -0.4758  0.5208
19129TIP3   OH278801   4.325   0.950  13.917  0.4651 -0.0289 -0.1298
19129TIP3    H178802   4.350   1.009  13.988  0.9113 -2.0196  1.4504
19129TIP3    H278803   4.405   0.943  13.864  0.5411  0.4250 -0.0830
19130TIP3   OH278804   1.422   5.104   2.594 -0.8355 -0.4598  0.0666
19130TIP3    H178805   1.474   5.045   2.648 -1.2685 -1.1731 -0.2910
19130TIP3    H278806   1.473   5.115   2.514 -0.8783 -0.5464  0.0283
19131TIP3   OH278807   3.306   6.740  12.195 -0.1808 -0.1715  0.8186
19131TIP3    H178808   3.298   6.833  12.216  0.2363  0.3813 -1.2210
19131TIP3    H278809   3.400   6.725  12.187 -0.2959 -0.0983 -1.3403
19132TIP3   OH278810   1.004   6.515  15.500 -0.6868  0.1935  0.1976
19132TIP3    H178811   1.028   6.505  15.593 -1.8753  4.3491  1.1586
19132TIP3    H278812   1.088   6.519  15.454  0.0324  0.5610  1.4881
19133TIP3   OH278813   6.426   1.253  13.238  0.6006 -0.0997  0.1152
19133TIP3    H178814   6.428   1.159  13.217  0.7382  0.1439 -1.0193
19133TIP3    H278815   6.432   1.256  13.333 -1.9331 -1.3399  0.4216
19134TIP3   OH278816   0.348   1.651   0.083  0.1802 -0.0120  0.0617
19134TIP3    H178817   0.353   1.733   0.032 -1.5421 -0.1192 -0.3604
19134TIP3    H278818   0.262   1.615   0.060  0.2142 -1.0931  1.5430
19135TIP3   OH278819   0.167   1.696  16.872 -0.1760 -0.0541  1.0730
19135TIP3    H178820   0.129   1.744  16.798  1.8453  1.6872  1.0515
19135TIP3    H278821   0.094   1.645  16.908 -1.5458  0.1007 -1.2484
19136TIP3   OH278822   4.253   6.193  11.239 -0.0940 -0.4110  0.0305
19136TIP3    H178823   4.172   6.177  11.191 -0.7917 -3.3616  1.9507
19136TIP3    H278824   4.227   6.245  11.314 -0.3886 -1.7199  0.8807
19137TIP3   OH278825   4.538   3.916  11.443  0.1747  0.5463 -0.1252
19137TIP3    H178826   4.590   3.996  11.453 -0.8845  1.0705  1.5498
19137TIP3    H278827   4.602   3.848  11.421  1.6250  1.1177  2.1092
19138TIP3   OH278828   5.430   4.848  14.958  0.0014 -0.6943  0.0020
19138TIP3    H178829   5.369   4.919  14.939  0.3762 -0.3898 -0.0799
19138TIP3    H278830   5.503   4.863  14.898  0.1109 -1.1153  0.0275
19139TIP3   OH278831   3.457   5.101  12.448  0.1835  0.3529 -0.4083
19139TIP3    H178832   3.416   5.159  12.384 -1.6978 -0.4192  0.0321
19139TIP3    H278833   3.540   5.077  12.409 -0.3942  0.8566 -2.0080
19140TIP3   OH278834   5.912   1.994   0.999 -0.6956 -0.1075  1.2380
19140TIP3    H178835   5.969   2.060   0.959 -0.1832 -1.0335  0.4037
19140TIP3    H278836   5.828   2.040   1.011 -0.2043  0.8411  1.1398
19141TIP3   OH278837   4.505   3.847  13.441  0.2320  0.2429  0.2841
19141TIP3    H178838   4.586   3.842  13.391  0.4962 -0.0947  0.7415
19141TIP3    H278839   4.483   3.757  13.462 -0.0241  0.3620  0.5406
19142TIP3   OH278840   2.311   1.175   0.106  0.2524 -0.1891  0.2872
19142TIP3    H178841   2.224   1.155   0.070  0.3574 -0.5499  0.2236
19142TIP3    H278842   2.370   1.167   0.031  0.2800  0.5518  0.2228
19143TIP3   OH278843   5.845   1.333  11.944  0.2438 -0.1712  0.1284
19143TIP3    H178844   5.850   1.345  11.849 -2.0087  0.0172 -0.0282
19143TIP3    H278845   5.872   1.242  11.958 -0.5038 -0.5550 -0.8385
19144TIP3   OH278846   5.747   4.890   2.491  0.2156  0.1832 -0.3824
19144TIP3    H178847   5.812   4.879   2.421 -2.3766  0.3175 -2.9950
19144TIP3    H278848   5.727   4.983   2.490 -0.3419  0.0711  0.0760
19145TIP3   OH278849   1.714   0.519  14.836  0.7204 -0.0561  0.1148
19145TIP3    H178850   1.632   0.501  14.790  1.3768 -1.3983 -0.5950
19145TIP3    H278851   1.705   0.610  14.866 -1.1991 -0.3167  0.4779
19146TIP3   OH278852   0.117   2.266   4.113  0.0357 -0.0404 -0.3736
19146TIP3    H178853   0.206   2.232   4.109 -0.1029 -0.6844  1.1696
19146TIP3    H278854   0.124   2.346   4.165 -0.2657 -0.0200 -0.3620
19147TIP3   OH278855   0.787   4.581  14.998 -0.3630  0.4177  0.8745
19147TIP3    H178856   0.717   4.590  14.934 -0.9111  0.5401  1.4761
19147TIP3    H278857   0.765   4.502  15.047  0.3065  0.0564  0.6138
19148TIP3   OH278858   4.521   4.550   3.671 -0.4664 -0.0905 -0.3606
19148TIP3    H178859   4.458   4.556   3.743 -0.0900  1.3496 -0.1298
19148TIP3    H278860   4.585   4.485   3.700  0.3311  1.3195  1.1410
19149TIP3   OH278861   0.159   1.364  14.758  0.4238 -0.5637  0.0180
19149TIP3    H178862   0.161   1.307  14.834  0.6463 -1.5304 -0.7006
19149TIP3    H278863   0.202   1.445  14.787 -0.5879 -0.4479  1.2697
19150TIP3   OH278864   0.223   3.783   4.596  0.0992  0.4051  0.2620
19150TIP3    H178865   0.280   3.793   4.519  0.9248  1.1870  0.9436
19150TIP3    H278866   0.275   3.819   4.668 -1.3946  1.4750  0.8578
19151TIP3   OH278867   1.317   4.018   6.133 -0.1462 -0.3349 -0.0507
19151TIP3    H178868   1.367   4.094   6.105  0.6034 -0.7536  0.1384
19151TIP3    H278869   1.372   3.974   6.197 -0.4635 -1.1686 -0.3273
19152TIP3   OH278870   3.465   0.225  11.247 -0.3972  0.2395 -0.4809
19152TIP3    H178871   3.508   0.147  11.283 -1.6728  0.2858  1.2717
19152TIP3    H278872   3.525   0.296  11.267 -1.0602  0.2633  1.7000
19153TIP3   OH278873   3.492   5.646   4.089 -1.1645 -0.1426  0.7109
19153TIP3    H178874   3.531   5.561   4.068  0.6123  1.4490 -3.5058
19153TIP3    H278875   3.505   5.656   4.184  1.4423 -3.2023  0.8268
19154TIP3   OH278876   4.856   6.331   1.274 -0.2148  0.2525  0.4749
19154TIP3    H178877   4.820   6.242   1.268 -0.4894  0.2789  1.5279
19154TIP3    H278878   4.779   6.386   1.289 -0.3964  1.0332 -2.5876
19155TIP3   OH278879   2.801   5.655   5.156  0.1993  0.1325  0.3798
19155TIP3    H178880   2.861   5.617   5.091 -1.7350 -2.3356 -0.0754
19155TIP3    H278881   2.828   5.616   5.239 -0.6452 -0.8911  0.1918
19156TIP3   OH278882   3.823   3.217  14.899  0.3617  0.0275  0.0849
19156TIP3    H178883   3.915   3.191  14.901  0.3081 -0.5206 -2.3153
19156TIP3    H278884   3.774   3.135  14.907  0.0961  0.1806  0.0399
19157TIP3   OH278885   0.505   4.099  15.454  0.3245 -0.1383 -0.1362
19157TIP3    H178886   0.511   4.003  15.462 -2.9876 -0.4834 -0.2785
19157TIP3    H278887   0.502   4.114  15.360 -1.3477 -0.1621 -0.1101
19158TIP3   OH278888   4.133   5.554   2.439 -0.2841  0.0814 -0.1308
19158TIP3    H178889   4.088   5.496   2.500 -1.6345  0.1466 -1.0023
19158TIP3    H278890   4.076   5.631   2.434  0.1833  0.3919 -0.8899
19159TIP3   OH278891   6.304   2.181  15.723  0.3181  0.3526  0.1983
19159TIP3    H178892   6.395   2.154  15.725  0.8211  1.9314 -0.3692
19159TIP3    H278893   6.298   2.243  15.650 -1.5294 -0.7944 -0.7283
19160TIP3   OH278894   5.229   5.560   4.599  0.4362  0.0013 -0.4050
19160TIP3    H178895   5.233   5.598   4.511 -0.9787 -2.1820 -1.5171
19160TIP3    H278896   5.147   5.510   4.599  1.6319 -2.1122  1.2818
19161TIP3   OH278897   2.953   6.398   3.604  0.0774  0.3583 -0.1404
19161TIP3    H178898   3.029   6.373   3.550  0.1110  0.9501 -0.3756
19161TIP3    H278899   2.969   6.356   3.688  0.3656 -0.0211 -0.3798
19162TIP3   OH278900   0.408   0.287  14.525  0.2816 -0.4381  0.0743
19162TIP3    H178901   0.389   0.313  14.615  1.7070 -0.9082  0.5463
19162TIP3    H278902   0.371   0.199  14.518  0.6949 -0.6438  0.4078
19163TIP3   OH278903   0.499   4.616   2.495  0.1739 -0.3509 -0.6710
19163TIP3    H178904   0.575   4.674   2.489  0.1995 -0.2663  0.2972
19163TIP3    H278905   0.448   4.651   2.567 -0.7205 -0.4994 -1.2113
19164TIP3   OH278906   6.202   3.669  13.054 -0.7094 -0.2896  0.1097
19164TIP3    H178907   6.201   3.740  13.118 -1.9478 -0.5248  0.3831
19164TIP3    H278908   6.286   3.625  13.068 -0.3698  0.4994  0.6197
19165TIP3   OH278909   4.033   4.701   5.612  0.5701 -0.0283  0.4318
19165TIP3    H178910   4.075   4.669   5.692 -0.7512 -0.7031  0.8859
19165TIP3    H278911   4.002   4.789   5.635  0.1857 -0.2241  0.6697
19166TIP3   OH278912   0.298   4.421   5.584  0.1352 -0.8698  0.1028
19166TIP3    H178913   0.253   4.482   5.526  2.4937  0.1422 -0.7966
19166TIP3    H278914   0.288   4.459   5.671  1.7966  1.0826 -0.4672
19167TIP3   OH278915   0.109   4.483   3.563 -0.0243 -0.2577 -0.2264
19167TIP3    H178916   0.125   4.433   3.643  0.0767 -1.9529 -1.2545
19167TIP3    H278917   0.158   4.564   3.576  1.6073 -1.3150  0.6388
19168TIP3   OH278918   2.788   1.027   3.228 -0.3790 -0.1340 -0.2257
19168TIP3    H178919   2.854   1.095   3.216  1.0615 -1.0741  1.7203
19168TIP3    H278920   2.709   1.073   3.254 -0.2508  0.9524 -1.6453
19169TIP3   OH278921   2.436   6.575  15.955  0.1423 -0.0053 -0.1604
19169TIP3    H178922   2.365   6.627  15.993 -0.6162  0.4534 -2.0728
19169TIP3    H278923   2.430   6.490  16.000 -0.4675  0.6049  0.9540
19170TIP3   OH278924   4.706   2.008   3.824 -0.3164  0.5407 -0.4405
19170TIP3    H178925   4.699   1.913   3.810  0.6335  0.4235 -0.2117
19170TIP3    H278926   4.616   2.037   3.839 -0.4992 -0.5076  0.6635
19171TIP3   OH278927   5.065   6.160  12.328 -0.0003  0.0699 -0.4464
19171TIP3    H178928   4.995   6.188  12.268 -1.1032  1.4512  1.3827
19171TIP3    H278929   5.105   6.241  12.359  2.0384 -0.6869 -0.9465
19172TIP3   OH278930   0.353   3.673  16.416  0.0584 -0.1476 -0.0663
19172TIP3    H178931   0.318   3.761  16.405 -0.0129  0.0532  1.4595
19172TIP3    H278932   0.280   3.614  16.396 -0.6933  0.2259  1.4447
19173TIP3   OH278933   1.428   5.163  13.166 -0.0837 -0.0752  0.2680
19173TIP3    H178934   1.458   5.072  13.164 -0.1549 -0.0882 -1.1138
19173TIP3    H278935   1.448   5.197  13.079 -0.8278  0.9807  0.4871
19174TIP3   OH278936   3.577   4.107  16.295  0.1936 -0.4430 -0.9852
19174TIP3    H178937   3.659   4.142  16.329  0.2092  0.7882 -2.1903
19174TIP3    H278938   3.520   4.102  16.371  1.0294 -0.2313 -0.3278
19175TIP3   OH278939   1.829   6.350  13.912 -0.1192 -0.2848  0.3240
19175TIP3    H178940   1.886   6.273  13.911 -1.5946 -1.4311 -0.2418
19175TIP3    H278941   1.853   6.398  13.833  0.5803 -0.3436  0.4955
19176TIP3   OH278942   3.143   1.909  15.388  0.0469  0.5479  0.1371
19176TIP3    H178943   3.143   1.859  15.307  0.8323  1.2673 -0.3208
19176TIP3    H278944   3.216   1.873  15.439  1.0716  1.6469 -0.4902
19177TIP3   OH278945   6.600   1.653  15.357  0.1395 -0.5619 -0.5305
19177TIP3    H178946   6.617   1.732  15.408 -1.3159 -0.7580  0.3232
19177TIP3    H278947   6.569   1.589  15.422 -0.4372 -1.2518 -1.4605
19178TIP3   OH278948   2.606   3.989   0.018  0.7084 -0.0237  0.1120
19178TIP3    H178949   2.661   4.067   0.020 -0.3600  0.7647 -0.1109
19178TIP3    H278950   2.617   3.954  -0.071  0.2583  0.5902 -0.1963
19179TIP3   OH278951   2.729   5.995  13.946 -0.0106  0.0962 -0.3995
19179TIP3    H178952   2.652   6.036  13.985 -0.2266 -2.2011  1.8087
19179TIP3    H278953   2.800   6.057  13.963 -1.1723  1.9675 -1.9410
19180TIP3   OH278954   0.098   0.588  12.331  0.5581 -0.1160 -0.0670
19180TIP3    H178955   0.117   0.504  12.374  1.5489  0.3343  0.4280
19180TIP3    H278956   0.181   0.612  12.288 -0.5038 -0.7547 -2.6554
19181TIP3   OH278957   5.709   2.386   0.904 -0.3837 -0.3333  0.2437
19181TIP3    H178958   5.684   2.321   0.839 -3.2397  0.6929  0.1765
19181TIP3    H278959   5.741   2.460   0.852  0.2696 -0.6451  0.1905
19182TIP3   OH278960   6.239   2.455  12.657 -0.5851  0.3833  0.1398
19182TIP3    H178961   6.264   2.469  12.749 -0.4066 -0.9660  0.3099
19182TIP3    H278962   6.144   2.445  12.659 -0.4062 -1.6953  0.4951
19183TIP3   OH278963   0.403   1.951   3.122 -0.2188  1.0746  0.2052
19183TIP3    H178964   0.492   1.967   3.092 -0.2419 -1.2689 -1.4228
19183TIP3    H278965   0.409   1.953   3.217  1.3747  1.8448  0.1188
19184TIP3   OH278966   2.660   1.058  16.222  0.1930 -0.0214 -0.0217
19184TIP3    H178967   2.750   1.087  16.211 -0.2896  1.1861 -1.1760
19184TIP3    H278968   2.648   1.051  16.317  1.2063  0.7966  0.1811
19185TIP3   OH278969   0.225   0.143   4.699  0.9369 -0.6396  0.0635
19185TIP3    H178970   0.228   0.105   4.786  0.5246  0.0323  0.3796
19185TIP3    H278971   0.138   0.182   4.693  1.9226  1.8190  0.4398
19186TIP3   OH278972   3.048   6.689   6.011 -0.8188 -0.2002 -0.6162
19186TIP3    H178973   3.114   6.718   6.074  0.4101  0.1077 -2.0001
19186TIP3    H278974   3.060   6.594   6.006  0.9238  0.0466 -2.3047
19187TIP3   OH278975   6.159   4.305   2.950 -0.1478 -0.0273 -0.2857
19187TIP3    H178976   6.137   4.385   2.997  0.1884  0.0611 -0.2755
19187TIP3    H278977   6.238   4.273   2.993  1.1236  0.9234 -1.8199
19188TIP3   OH278978   3.970   1.657   5.915 -0.0054  0.2227 -0.0995
19188TIP3    H178979   3.923   1.710   5.851  0.6311  0.8451 -0.0618
19188TIP3    H278980   3.902   1.604   5.956 -0.2048 -1.3795 -2.3793
19189TIP3   OH278981   4.297   6.523  17.020 -0.4638  0.1336 -0.0131
19189TIP3    H178982   4.365   6.541  17.084 -1.2797 -0.7074  1.1202
19189TIP3    H278983   4.257   6.608  17.003  0.7065  0.6095 -0.5483
19190TIP3   OH278984   0.676   0.991  16.774 -0.3909  0.7038  0.1269
19190TIP3    H178985   0.759   1.017  16.734 -0.5450  2.6707  0.9491
19190TIP3    H278986   0.687   1.011  16.867 -1.6249  0.5554  0.3196
19191TIP3   OH278987   4.158   3.279  11.954  0.0349 -0.3698 -0.0203
19191TIP3    H178988   4.239   3.275  11.904  0.3749 -0.9092  0.5578
19191TIP3    H278989   4.093   3.311  11.891  0.5277 -0.6782 -0.7051
19192TIP3   OH278990   5.813   2.706   6.184 -0.2224  0.5017  0.4791
19192TIP3    H178991   5.789   2.715   6.276 -1.3248 -2.7260  0.6324
19192TIP3    H278992   5.874   2.632   6.182 -0.3196  0.4135 -1.3950
19193TIP3   OH278993   4.004   4.368  12.648  0.0412 -0.1540 -0.2021
19193TIP3    H178994   3.974   4.277  12.637 -1.6086  0.4351 -0.9638
19193TIP3    H278995   4.078   4.375  12.588 -0.1421 -0.8579 -0.5340
19194TIP3   OH278996   3.159   5.226  16.965  0.0786  0.1833 -0.6400
19194TIP3    H178997   3.117   5.144  16.943  1.2719 -0.6961  0.2092
19194TIP3    H278998   3.193   5.260  16.882  1.6273 -1.3882 -0.6977
19195TIP3   OH278999   4.085   5.953   4.835 -0.3442  0.2656  0.1143
19195TIP3    H179000   4.079   5.998   4.919 -1.1489  2.5495 -1.0940
19195TIP3    H279001   3.996   5.919   4.820 -0.3568  0.3957 -0.1001
19196TIP3   OH279002   1.758   4.911  11.919  0.1620  0.6196 -0.3601
19196TIP3    H179003   1.828   4.869  11.969 -0.1275  0.6904  0.1209
19196TIP3    H279004   1.799   4.937  11.837  0.7849  0.9450  0.0408
19197TIP3   OH279005   1.427   0.189   5.614 -0.1022  0.0173 -0.3554
19197TIP3    H179006   1.459   0.266   5.567 -0.7158  1.3947  1.3696
19197TIP3    H279007   1.345   0.217   5.653 -0.4850 -1.6186  0.1015
19198TIP3   OH279008   4.019   4.084   5.591  0.1054  0.5769  0.6064
19198TIP3    H179009   4.100   4.108   5.546  0.0677 -0.7703 -0.2273
19198TIP3    H279010   3.992   4.165   5.636 -0.8689  2.6786 -3.2700
19199TIP3   OH279011   3.309   4.801  11.373  0.4546  0.1151  0.0868
19199TIP3    H179012   3.241   4.864  11.397 -1.3112 -2.6265  3.0100
19199TIP3    H279013   3.291   4.780  11.281 -1.1911  1.1495  0.1386
19200TIP3   OH279014   4.790   4.936   2.532 -0.3212 -0.4006 -0.2761
19200TIP3    H179015   4.760   5.020   2.566  0.3066  0.7900 -2.4478
19200TIP3    H279016   4.883   4.932   2.555 -0.2599 -0.3052 -0.5008
19201TIP3   OH279017   0.515   5.419  13.097  0.5168 -0.0771  0.7025
19201TIP3    H179018   0.608   5.440  13.109  0.2740  0.3077  2.0207
19201TIP3    H279019   0.471   5.458  13.173 -0.5848 -1.1891  0.6650
19202TIP3   OH279020   1.861   5.409   0.920  0.3776  0.1646 -0.0655
19202TIP3    H179021   1.866   5.400   1.015  0.2247  0.5876 -0.0166
19202TIP3    H279022   1.947   5.379   0.889  0.9328  1.2955  0.3058
19203TIP3   OH279023   3.664   5.071   5.604  0.0543  0.3736  0.0278
19203TIP3    H179024   3.595   5.060   5.670  0.3864 -1.3379  0.1337
19203TIP3    H279025   3.652   4.996   5.545  1.1648  0.6464 -0.5656
19204TIP3   OH279026   6.785   5.369   3.874  0.2882  0.7158  0.3366
19204TIP3    H179027   6.818   5.442   3.926 -1.0487  0.3579  1.7552
19204TIP3    H279028   6.742   5.312   3.937 -0.0257 -0.5398 -0.9613
19205TIP3   OH279029   6.270   6.419   0.968 -0.1705  0.2151  0.3288
19205TIP3    H179030   6.339   6.482   0.990  0.6626 -0.7194  0.4608
19205TIP3    H279031   6.189   6.464   0.989  0.4521  0.8991  1.3277
19206TIP3   OH279032   5.284   4.055  13.623 -0.2231  0.3572 -0.0984
19206TIP3    H179033   5.282   4.004  13.704 -1.8843  0.3269 -0.1292
19206TIP3    H279034   5.231   4.004  13.561  1.3464  0.1720 -1.3608
19207TIP3   OH279035   1.597   0.256   4.868  0.5372 -0.0063  0.0367
19207TIP3    H179036   1.649   0.188   4.826  0.3801  0.1609 -0.4306
19207TIP3    H279037   1.569   0.217   4.951  0.3665 -0.5448 -0.2729
19208TIP3   OH279038   0.231   5.581   5.333  0.3900 -0.3729  0.4768
19208TIP3    H179039   0.254   5.601   5.424 -2.3860  0.3076  1.1075
19208TIP3    H279040   0.159   5.640   5.312  1.1318 -0.3097 -2.3008
19209TIP3   OH279041   4.324   0.941  11.825 -0.4760 -0.0692 -0.4230
19209TIP3    H179042   4.401   0.996  11.842 -0.0661 -1.1134  1.4002
19209TIP3    H279043   4.361   0.856  11.802 -1.1029 -0.0408 -1.5713
19210TIP3   OH279044   3.582   1.834  14.833  0.2717  0.0820 -0.0092
19210TIP3    H179045   3.603   1.801  14.746  0.9893 -0.3276  0.3051
19210TIP3    H279046   3.489   1.816  14.844 -0.8942  3.7138 -2.2271
19211TIP3   OH279047   3.235   1.527  14.139 -0.0969 -0.3227  0.1921
19211TIP3    H179048   3.297   1.469  14.094  0.7231  1.2849 -0.8634
19211TIP3    H279049   3.260   1.615  14.110 -0.8086  0.6351  2.3078
19212TIP3   OH279050   2.752   1.185  11.537 -0.5010 -0.7983 -0.3570
19212TIP3    H179051   2.684   1.195  11.604 -1.3323  0.2493 -1.2910
19212TIP3    H279052   2.722   1.112  11.483 -0.9910 -0.2699 -0.8321
19213TIP3   OH279053   5.336   0.826  15.382 -0.3615  0.8825 -0.1515
19213TIP3    H179054   5.369   0.820  15.292 -0.5708 -0.5046 -0.1577
19213TIP3    H279055   5.414   0.821  15.437 -0.3812 -0.1905 -0.2160
19214TIP3   OH279056   6.345   2.874   5.210 -0.7346  0.0350  0.0145
19214TIP3    H179057   6.327   2.959   5.250  1.2140  0.3521  0.3386
19214TIP3    H279058   6.361   2.815   5.283 -1.5681 -0.5029 -0.2239
19215TIP3   OH279059   0.582   6.385  11.017 -0.4461 -0.3088 -0.2975
19215TIP3    H179060   0.511   6.439  10.983 -0.4383  1.2702  1.9474
19215TIP3    H279061   0.657   6.444  11.021  0.1140 -1.0371  0.3561
19216TIP3   OH279062   4.995   1.309   2.080 -1.2009 -0.7490 -0.4768
19216TIP3    H179063   4.966   1.218   2.081 -0.3552 -1.0231 -0.3013
19216TIP3    H279064   4.922   1.357   2.042 -1.5646 -1.5341 -0.7836
19217TIP3   OH279065   4.324   3.104  16.264  0.1704  0.1857  0.1347
19217TIP3    H179066   4.401   3.093  16.209  0.2742 -0.8638  0.4503
19217TIP3    H279067   4.293   3.014  16.279 -1.4529  0.6182 -0.4657
19218TIP3   OH279068   5.316   1.063   0.721 -0.4671  0.0031 -0.9806
19218TIP3    H179069   5.299   1.114   0.801 -0.9465 -0.1768 -0.9692
19218TIP3    H279070   5.412   1.062   0.714 -0.4575  1.2374 -1.1954
19219TIP3   OH279071   1.088   3.889   2.132  0.2740  0.6409 -0.9023
19219TIP3    H179072   1.125   3.940   2.060  0.6616  0.3618 -0.9042
19219TIP3    H279073   1.037   3.952   2.183  1.2197  1.1520 -0.5695
19220TIP3   OH279074   1.729   2.195  16.661  0.1567 -0.3003 -0.4012
19220TIP3    H179075   1.725   2.290  16.668  0.2744 -0.2071 -1.4887
19220TIP3    H279076   1.821   2.175  16.648  0.1592 -0.5844  0.0269
19221TIP3   OH279077   2.417   2.281   1.153 -0.0783  0.0420  0.3969
19221TIP3    H179078   2.347   2.217   1.138  0.2217 -0.9837  2.9095
19221TIP3    H279079   2.492   2.246   1.104 -0.1683 -1.0775  1.0333
19222TIP3   OH279080   1.431   6.676   2.579  0.2022 -0.0067 -0.1775
19222TIP3    H179081   1.450   6.675   2.485  0.1569  0.4441 -0.1910
19222TIP3    H279082   1.363   6.742   2.589  1.5186  1.2987  0.4206
19223TIP3   OH279083   3.810   2.215  16.473 -0.4078 -0.4378 -0.1078
19223TIP3    H179084   3.721   2.211  16.437  0.6444  0.3908 -3.0781
19223TIP3    H279085   3.827   2.309  16.484  0.1946 -0.5703  0.1177
19224TIP3   OH279086   5.092   4.364  15.295 -0.4966 -0.2338 -0.2678
19224TIP3    H179087   5.047   4.418  15.230  2.4808 -0.5600 -2.8352
19224TIP3    H279088   5.040   4.283  15.299 -1.0343 -0.0079 -1.9381
19225TIP3   OH279089   3.614   3.929   4.755  0.2533  0.1449  0.2627
19225TIP3    H179090   3.703   3.935   4.790  0.0882 -1.1437  0.9684
19225TIP3    H279091   3.622   3.878   4.675 -0.1429 -2.4950  1.7743
19226TIP3   OH279092   3.490   4.041  11.608  0.8097  0.2959  0.5922
19226TIP3    H179093   3.418   3.979  11.622  0.4637  0.8600  1.3886
19226TIP3    H279094   3.568   3.986  11.606  0.2215 -0.6124 -2.6196
19227TIP3   OH279095   3.138   0.545  15.288 -0.0995 -0.9880 -0.0899
19227TIP3    H179096   3.227   0.571  15.314  0.3850 -2.0226 -0.6880
19227TIP3    H279097   3.136   0.450  15.298 -2.1945 -0.7821  3.1174
19228TIP3   OH279098   1.403   4.531  13.182  0.5295  0.5623 -0.2950
19228TIP3    H179099   1.464   4.459  13.166 -0.0485 -0.3838  1.5253
19228TIP3    H279100   1.397   4.575  13.097  4.2676  1.1752 -0.4340
19229TIP3   OH279101   4.802   2.358   1.587  0.0963 -0.3432  0.3610
19229TIP3    H179102   4.766   2.446   1.576  1.1935  0.0605 -0.1820
19229TIP3    H279103   4.735   2.301   1.550 -0.0154  0.3819 -0.6119
19230TIP3   OH279104   1.242   4.036   4.231  0.6695  0.1539  0.3655
19230TIP3    H179105   1.222   4.128   4.212 -1.4367 -0.0839  1.1823
19230TIP3    H279106   1.251   3.995   4.145 -0.2925  0.7454 -0.0287
19231TIP3   OH279107   0.710   1.199  16.424  0.9186 -0.1391  0.2514
19231TIP3    H179108   0.620   1.216  16.395  1.9262  2.3859 -1.7360
19231TIP3    H279109   0.733   1.116  16.380  0.0873  0.0226 -0.5347
19232TIP3   OH279110   3.746   0.719  12.959  0.1215 -0.0534 -0.0866
19232TIP3    H179111   3.767   0.646  12.902 -3.0951  0.5062 -2.2295
19232TIP3    H279112   3.703   0.783  12.902 -1.0963  1.5970  2.4868
19233TIP3   OH279113   2.193   3.437  15.294 -0.2379 -0.0796  0.2235
19233TIP3    H179114   2.182   3.384  15.373  2.1366 -1.1362 -0.0355
19233TIP3    H279115   2.108   3.435  15.251 -0.6834 -2.3303  1.0801
19234TIP3   OH279116   3.433   0.292   2.513 -0.1184  0.6522  0.0931
19234TIP3    H179117   3.417   0.198   2.519  0.2944  0.5784  0.1053
19234TIP3    H279118   3.519   0.304   2.553  0.0741  0.9597 -0.3978
19235TIP3   OH279119   1.352   2.856   5.068 -0.2993  1.1782  0.3709
19235TIP3    H179120   1.301   2.805   5.004 -0.4165  1.7429  0.0086
19235TIP3    H279121   1.413   2.792   5.106  0.3460  1.0033 -0.9014
19236TIP3   OH279122   3.511   0.491  11.315 -1.1176 -0.6174  0.0393
19236TIP3    H179123   3.599   0.496  11.352 -0.6637 -0.1001 -1.0861
19236TIP3    H279124   3.454   0.482  11.392 -0.1175 -0.6617  0.7966
19237TIP3   OH279125   0.243   1.950   0.212  0.0901 -0.6933 -0.0160
19237TIP3    H179126   0.253   1.897   0.290  1.9487  1.2811  1.2016
19237TIP3    H279127   0.328   1.944   0.168 -0.4763 -0.6686 -1.1514
19238TIP3   OH279128   2.711   1.706  16.483 -0.5874  0.6813  0.2189
19238TIP3    H179129   2.744   1.641  16.545 -2.1145  1.5301  2.0325
19238TIP3    H279130   2.787   1.762  16.464  0.5581 -1.1268 -0.7976
19239TIP3   OH279131   0.929   5.503  14.396  0.2838  0.1014  0.2476
19239TIP3    H179132   0.862   5.436  14.389 -0.3210  0.6410  0.6999
19239TIP3    H279133   1.004   5.458  14.435  0.2054 -0.5158 -0.3005
19240TIP3   OH279134   4.504   5.281   2.129  0.2250  0.3486  0.4094
19240TIP3    H179135   4.478   5.371   2.149 -0.9137 -0.3673  2.4346
19240TIP3    H279136   4.596   5.276   2.156  0.1976  0.8015  0.5982
19241TIP3   OH279137   3.762   5.755  11.910  0.4556  0.3770 -0.0447
19241TIP3    H179138   3.855   5.769  11.926  0.4941  0.1579 -0.0829
19241TIP3    H279139   3.730   5.714  11.990  0.2798  0.9483  0.1862
19242TIP3   OH279140   4.680   1.536   2.349 -0.4457 -0.0062  0.4858
19242TIP3    H179141   4.767   1.500   2.363 -0.1643  1.0361  1.4713
19242TIP3    H279142   4.630   1.509   2.426 -1.7747 -2.7743 -1.2041
19243TIP3   OH279143   3.572   4.590  14.318 -0.0559 -0.3582  0.2147
19243TIP3    H179144   3.530   4.646  14.252 -0.6121 -0.8700  0.1248
19243TIP3    H279145   3.534   4.503  14.304 -1.5314 -0.1380  2.3165
19244TIP3   OH279146   0.597   6.756   1.108  0.0800 -0.2763 -0.2355
19244TIP3    H179147   0.559   6.806   1.036 -0.5127 -1.4146 -0.7455
19244TIP3    H279148   0.523   6.709   1.147  0.6487 -0.9829  0.0227
19245TIP3   OH279149   4.562   0.119  11.569 -0.2375 -0.2289  0.1538
19245TIP3    H179150   4.566   0.024  11.570  1.0313 -0.2700 -2.6257
19245TIP3    H279151   4.479   0.139  11.613 -1.7137 -2.7216 -1.2647
19246TIP3   OH279152   3.607   1.131   1.377  0.0945  0.1340  0.1806
19246TIP3    H179153   3.550   1.097   1.446  2.5791 -0.1454  2.2609
19246TIP3    H279154   3.602   1.226   1.387 -0.0511  0.1137  0.3150
19247TIP3   OH279155   5.375   0.127   3.761 -0.6315 -0.4069 -0.3714
19247TIP3    H179156   5.341   0.187   3.827  0.6721  0.0023 -0.0485
19247TIP3    H279157   5.432   0.067   3.809 -2.9370 -2.8240 -0.4508
19248TIP3   OH279158   1.017   4.283   1.799 -0.2965  0.4582 -0.4098
19248TIP3    H179159   0.991   4.192   1.813  0.9829  0.0527 -0.5630
19248TIP3    H279160   0.938   4.334   1.819 -1.1595 -0.7024 -0.7558
19249TIP3   OH279161   4.954   4.650  12.523 -0.4646 -0.0279 -0.0180
19249TIP3    H179162   4.999   4.669  12.606 -1.0572 -0.4856  0.4079
19249TIP3    H279163   4.973   4.727  12.468  0.6091 -0.0890  0.2479
19250TIP3   OH279164   3.043   5.234   2.572 -0.1384 -0.3275  0.3307
19250TIP3    H179165   3.050   5.140   2.556 -0.0695 -0.2825  0.0966
19250TIP3    H279166   3.081   5.246   2.659 -1.3595 -0.7014  0.9330
19251TIP3   OH279167   0.778   1.980   0.636  0.3020  0.0479  0.0666
19251TIP3    H179168   0.816   2.066   0.652 -0.2090  0.2601  0.1601
19251TIP3    H279169   0.754   1.947   0.723  0.5473 -0.2120  0.0372
19252TIP3   OH279170   2.635   0.516   0.988 -0.0818  0.3125  0.2744
19252TIP3    H179171   2.698   0.484   0.923 -1.4854  0.0244 -0.9948
19252TIP3    H279172   2.618   0.607   0.962 -0.2276  0.3725  0.5799
19253TIP3   OH279173   6.475   3.186  15.249  0.0876 -0.0407 -0.0524
19253TIP3    H179174   6.414   3.259  15.250 -1.6182 -1.3877 -0.8001
19253TIP3    H279175   6.550   3.216  15.301  0.6541  3.1799 -2.4541
19254TIP3   OH279176   2.737   4.643  11.348 -0.0930 -0.8185 -0.0108
19254TIP3    H179177   2.743   4.708  11.418 -1.2715  0.0375 -0.6649
19254TIP3    H279178   2.710   4.563  11.393  0.5469 -0.6547  0.6956
19255TIP3   OH279179   6.275   6.040   4.884  0.2837 -0.1120 -0.6946
19255TIP3    H179180   6.197   6.083   4.919  1.0954  1.4046 -0.6667
19255TIP3    H279181   6.348   6.094   4.915  1.3376 -1.3772 -0.8981
19256TIP3   OH279182   1.200   6.396  12.667 -0.4994 -0.1679 -0.0619
19256TIP3    H179183   1.200   6.421  12.575 -1.4227 -1.9907 -0.6092
19256TIP3    H279184   1.265   6.326  12.673  0.0549  0.3903  0.8477
19257TIP3   OH279185   5.706   2.163  15.098 -0.5095 -0.3575 -0.3122
19257TIP3    H179186   5.742   2.157  15.187  1.9175 -0.1665 -1.2017
19257TIP3    H279187   5.612   2.154  15.109 -0.2900 -0.1033  2.3049
19258TIP3   OH279188   1.816   6.163  12.100  0.3537  0.1197 -0.1735
19258TIP3    H179189   1.743   6.206  12.142  1.9694  0.0831  2.9591
19258TIP3    H279190   1.853   6.229  12.042 -0.6469  0.9537  0.1132
19259TIP3   OH279191   1.903   2.774   4.394  0.2966  0.0293 -0.1968
19259TIP3    H179192   1.963   2.713   4.438  0.4418  0.7429  0.6093
19259TIP3    H279193   1.894   2.738   4.306  1.9760 -0.0503 -0.3711
19260TIP3   OH279194   2.382   5.093   0.344 -0.0253  0.1195  0.8408
19260TIP3    H179195   2.387   5.094   0.249  0.5773  1.3015  0.8637
19260TIP3    H279196   2.291   5.071   0.363 -0.6453  1.7471 -0.0568
19261TIP3   OH279197   4.791   5.292  15.744 -0.4002 -0.5128  0.3035
19261TIP3    H179198   4.715   5.343  15.716 -1.3013 -0.8276  1.9946
19261TIP3    H279199   4.810   5.323  15.832  1.6376 -0.2669 -0.1776
19262TIP3   OH279200   3.071   5.570   1.116 -0.1495  0.1108  0.2055
19262TIP3    H179201   3.113   5.601   1.196 -0.2625  0.1072  0.2662
19262TIP3    H279202   3.110   5.622   1.046  1.1096 -0.9453  0.0719
19263TIP3   OH279203   6.626   5.159  15.999  0.1229  0.0033  0.6168
19263TIP3    H179204   6.627   5.176  16.094  0.7286 -3.5097  1.3731
19263TIP3    H279205   6.535   5.174  15.973 -0.6013 -1.1777  2.2757
19264TIP3   OH279206   3.744   5.216   0.157  0.2504 -0.0173  0.6472
19264TIP3    H179207   3.750   5.211   0.253  0.7853 -0.5659  0.5919
19264TIP3    H279208   3.829   5.184   0.126 -0.6437 -1.8313 -0.0660
19265TIP3   OH279209   5.468   3.893   1.677 -0.1493  0.2782  0.7362
19265TIP3    H179210   5.376   3.880   1.655  0.3658 -0.0576 -1.4063
19265TIP3    H279211   5.503   3.944   1.604  1.4440  0.1660  1.3878
19266TIP3   OH279212   1.524   3.042  15.732  0.2526 -1.1255 -0.2587
19266TIP3    H179213   1.579   2.986  15.677  2.0901  0.2014  0.1189
19266TIP3    H279214   1.569   3.126  15.732 -2.2919  0.3263 -0.6258
19267TIP3   OH279215   1.933   1.356   1.549  0.1971 -0.1409  0.2542
19267TIP3    H179216   1.908   1.265   1.565  1.5656 -0.6495 -0.2796
19267TIP3    H279217   2.022   1.363   1.584  0.4674  0.7224 -0.5316
19268TIP3   OH279218   1.047   5.749   3.288 -0.1031 -0.7977 -0.2615
19268TIP3    H179219   0.972   5.719   3.237 -1.4300  1.5640  0.1632
19268TIP3    H279220   1.087   5.669   3.320 -1.5710 -2.1950 -1.6982
19269TIP3   OH279221   4.275   6.163  13.401  0.2514 -1.2144  0.2309
19269TIP3    H179222   4.320   6.248  13.403 -0.5336 -0.7948  0.5193
19269TIP3    H279223   4.332   6.104  13.450  0.3103 -0.6075  0.8975
19270TIP3   OH279224   6.244   1.534   1.810  0.1257  0.8552  0.1909
19270TIP3    H179225   6.226   1.443   1.835 -0.3855  1.1704  1.0120
19270TIP3    H279226   6.198   1.545   1.726 -1.9010  1.0507  1.2618
19271TIP3   OH279227   0.934   6.290   3.781  0.0350 -0.2378 -0.0649
19271TIP3    H179228   1.028   6.304   3.796 -0.1520  1.2935 -0.0796
19271TIP3    H279229   0.926   6.284   3.686  0.0922 -0.0855 -0.0802
19272TIP3   OH279230   2.375   2.217   2.114 -0.9152 -0.9513 -0.1229
19272TIP3    H179231   2.301   2.157   2.102 -2.3617  0.5672  0.7177
19272TIP3    H279232   2.435   2.170   2.171 -1.3847 -2.1067 -0.5569
19273TIP3   OH279233   4.344   1.238   5.683 -0.5854 -0.0796  0.4061
19273TIP3    H179234   4.275   1.305   5.688 -2.0744 -1.5164 -0.0901
19273TIP3    H279235   4.303   1.158   5.716  1.6767 -0.4359  2.6510
19274TIP3   OH279236   3.535   4.341   2.369  0.0669 -0.7346  0.2120
19274TIP3    H179237   3.576   4.419   2.406 -0.6091 -0.6862  0.8810
19274TIP3    H279238   3.525   4.281   2.444 -0.7096 -0.8954 -0.0077
19275TIP3   OH279239   1.227   2.619   6.235  0.2497  0.0820 -0.4068
19275TIP3    H179240   1.303   2.592   6.287 -0.2965  0.7141  0.7721
19275TIP3    H279241   1.157   2.560   6.264  0.1139 -0.0562 -0.9988
19276TIP3   OH279242   2.368   1.287   6.583  0.4742  0.3401 -0.4449
19276TIP3    H179243   2.426   1.336   6.524  1.0847 -0.3586 -0.4309
19276TIP3    H279244   2.380   1.196   6.558  0.2046  0.1007  0.2886
19277TIP3   OH279245   2.748   1.540   3.446  0.1156 -0.3214  0.1033
19277TIP3    H179246   2.704   1.606   3.499 -0.2039 -1.7038  1.6544
19277TIP3    H279247   2.712   1.551   3.358  0.0814  1.5259  0.3113
19278TIP3   OH279248   3.938   4.819  14.318 -0.0759  0.1164  0.5895
19278TIP3    H179249   3.929   4.785  14.229  1.7661 -2.0898  1.1439
19278TIP3    H279250   3.994   4.896  14.309 -0.0044 -0.0187 -0.1708
19279TIP3   OH279251   3.224   2.838   6.583  0.1984  0.0130 -0.5188
19279TIP3    H179252   3.187   2.883   6.659  1.4963 -0.2947  0.3276
19279TIP3    H279253   3.173   2.871   6.509 -0.8236  0.6366  0.4231
19280TIP3   OH279254   6.232   2.967  15.901  0.1917 -0.4595 -0.2445
19280TIP3    H179255   6.202   2.959  15.992  0.1508 -0.3266 -0.2464
19280TIP3    H279256   6.313   3.017  15.907  0.3634 -0.7344 -0.2489
19281TIP3   OH279257   6.671   5.458  16.906 -0.1020 -0.1942  0.2084
19281TIP3    H179258   6.763   5.453  16.930  0.1058  0.3560 -0.4611
19281TIP3    H279259   6.667   5.421  16.818 -0.7685 -1.6525  0.8144
19282TIP3   OH279260   1.815   4.712   5.574 -0.2245  0.1338 -0.1544
19282TIP3    H179261   1.817   4.619   5.550  0.2576  0.0335  0.2680
19282TIP3    H279262   1.906   4.739   5.571 -0.1760  0.1889  1.2877
19283TIP3   OH279263   0.704   2.848   4.237 -0.1327 -0.2118  0.1079
19283TIP3    H179264   0.745   2.930   4.265  0.9370 -1.2988  1.9643
19283TIP3    H279265   0.775   2.783   4.242 -1.4662 -1.6775  0.9452
19284TIP3   OH279266   0.084   3.361  15.989 -0.3040  0.0364 -0.2677
19284TIP3    H179267   0.002   3.311  15.988 -0.1382 -0.2393 -0.1198
19284TIP3    H279268   0.120   3.351  15.901 -0.4220  0.1467 -0.3286
19285TIP3   OH279269   1.633   0.369   4.229  0.2350 -0.8697  0.2068
19285TIP3    H179270   1.638   0.463   4.247  0.7297 -1.0389  1.0384
19285TIP3    H279271   1.597   0.363   4.141  0.6961  0.1170 -0.0641
19286TIP3   OH279272   5.073   4.306   4.142  0.7477 -0.4283  0.0879
19286TIP3    H179273   5.015   4.269   4.208  1.7207  0.4664  1.4786
19286TIP3    H279274   5.149   4.338   4.190  0.9980  1.2643 -1.3136
19287TIP3   OH279275   2.913   5.268  14.911  0.1510 -0.0038  0.3271
19287TIP3    H179276   2.999   5.306  14.933 -0.6600  1.8342  0.5556
19287TIP3    H279277   2.932   5.202  14.845  1.8336 -0.2651  1.0186
19288TIP3   OH279278   5.377   2.908  15.122  0.2380 -0.4187 -0.1855
19288TIP3    H179279   5.347   2.993  15.155  0.7618 -0.4618  0.4317
19288TIP3    H279280   5.309   2.846  15.148 -0.5597 -0.0726 -1.3703
19289TIP3   OH279281   0.995   6.750  12.155  0.3355 -0.1438 -1.0186
19289TIP3    H179282   0.961   6.663  12.176  1.7603 -0.4402  0.2727
19289TIP3    H279283   0.920   6.808  12.163 -0.2954 -1.0338 -0.2270
19290TIP3   OH279284   2.836   3.699  16.975  0.1119  0.6703  0.4767
19290TIP3    H179285   2.767   3.719  16.911  1.6289 -0.2213 -1.5243
19290TIP3    H279286   2.792   3.648  17.043 -1.5413  1.6154  0.1788
19291TIP3   OH279287   1.862   4.825  13.127  0.0228  0.6649  0.2174
19291TIP3    H179288   1.820   4.879  13.060  0.0319 -0.3639 -0.6443
19291TIP3    H279289   1.826   4.857  13.209 -2.5393 -0.2403 -0.4765
19292TIP3   OH279290   5.251   1.841  11.171 -0.4554 -0.1858 -0.3175
19292TIP3    H179291   5.212   1.767  11.217 -0.7709 -0.0118 -0.3005
19292TIP3    H279292   5.216   1.918  11.215  0.9769 -0.0198  0.5889
19293TIP3   OH279293   1.402   4.790   1.949 -0.2587 -0.5799  0.5863
19293TIP3    H179294   1.486   4.802   1.904 -0.4586 -1.2157  0.0148
19293TIP3    H279295   1.369   4.706   1.916 -0.7361 -0.7335  1.4216
19294TIP3   OH279296   1.006   2.754  15.476 -0.0629  0.2187  0.0862
19294TIP3    H179297   0.961   2.726  15.396  0.5326 -0.9899  0.1488
19294TIP3    H279298   1.022   2.847  15.464 -2.1418  0.5972 -0.1450
19295TIP3   OH279299   4.736   5.905  16.762  0.3637 -0.3763  0.0078
19295TIP3    H179300   4.766   5.880  16.850  2.5996  0.0478 -0.5673
19295TIP3    H279301   4.762   5.996  16.753 -4.0481  1.1905  0.5665
19296TIP3   OH279302   4.595   3.790   2.905 -0.4035 -0.0976 -0.8795
19296TIP3    H179303   4.650   3.817   2.832  1.1943  0.5484  0.5025
19296TIP3    H279304   4.613   3.696   2.916  1.7091  0.4189  0.5428
19297TIP3   OH279305   5.699   6.652   4.228 -0.2125 -0.2087 -0.4218
19297TIP3    H179306   5.764   6.596   4.184  0.9233  0.3219  0.5258
19297TIP3    H279307   5.632   6.591   4.259 -0.3484 -0.7380 -1.6770
19298TIP3   OH279308   0.995   4.010   5.281  0.2352 -0.1082  0.3594
19298TIP3    H179309   1.003   3.915   5.272 -0.1099  0.0057 -1.7318
19298TIP3    H279310   0.920   4.033   5.227  0.3870  1.3756  0.7352
19299TIP3   OH279311   4.082   0.462  16.741  0.0755  0.3357  0.0783
19299TIP3    H179312   4.090   0.518  16.664  0.1914  0.0636 -0.1081
19299TIP3    H279313   4.005   0.407  16.723  1.1529 -0.9989 -0.6681
19300TIP3   OH279314   2.695   6.451   3.465 -0.0414 -0.9109  0.1741
19300TIP3    H179315   2.777   6.402   3.475 -0.2229 -1.4177 -0.6890
19300TIP3    H279316   2.700   6.520   3.530  1.0967 -0.9088  0.1026
19301TIP3   OH279317   6.495   5.784   0.143  0.2635  0.0147  0.6330
19301TIP3    H179318   6.500   5.820   0.054 -1.1898  0.5076  0.7213
19301TIP3    H279319   6.568   5.723   0.148 -0.3181 -0.9343 -1.3149
19302TIP3   OH279320   5.308   4.699   4.436 -0.2665  0.6093  0.0660
19302TIP3    H179321   5.396   4.689   4.401  0.1911  2.9211  0.3893
19302TIP3    H279322   5.251   4.700   4.360  0.0316 -0.3492 -0.1793
19303TIP3   OH279323   4.212   4.248  14.483 -0.0088 -0.4386 -0.6161
19303TIP3    H179324   4.247   4.218  14.399  1.8083 -1.5230  0.4678
19303TIP3    H279325   4.137   4.192  14.500 -0.7702  0.1953 -1.7673
19304TIP3   OH279326   5.226   0.364   1.305  0.2109 -0.5441 -0.2995
19304TIP3    H179327   5.309   0.332   1.270  0.3066  0.6362 -1.1843
19304TIP3    H279328   5.239   0.457   1.319 -0.8162 -0.4284  0.0127
19305TIP3   OH279329   0.777   3.111   1.482 -0.0233 -0.8139  0.0400
19305TIP3    H179330   0.853   3.055   1.468  0.0719 -0.6120 -0.2441
19305TIP3    H279331   0.732   3.072   1.557  2.6066  1.3754  3.0559
19306TIP3   OH279332   0.663   0.034   5.872 -0.5045  0.4832  0.1182
19306TIP3    H179333   0.634  -0.039   5.926 -0.9982 -0.6033 -1.5170
19306TIP3    H279334   0.744   0.064   5.913 -0.7869 -0.3685  1.3565
19307TIP3   OH279335   4.319   6.616   1.913 -0.2774 -0.0699 -0.3309
19307TIP3    H179336   4.329   6.540   1.970 -1.0985  0.1344  0.0986
19307TIP3    H279337   4.409   6.646   1.897  0.1204 -1.6038 -1.1881
19308TIP3   OH279338   1.261   4.831  13.637  0.3706 -0.3479  0.0476
19308TIP3    H179339   1.303   4.914  13.615 -0.6371 -0.5978 -3.3320
19308TIP3    H279340   1.333   4.774  13.664  1.1779  1.2985  1.6313
19309TIP3   OH279341   1.466   1.519   3.634  0.2208 -1.0440 -0.3521
19309TIP3    H179342   1.491   1.594   3.689  1.4301 -0.3670 -1.7455
19309TIP3    H279343   1.491   1.546   3.546 -2.7274 -1.6183 -1.4457
19310TIP3   OH279344   5.139   3.901   4.380  0.2915 -0.0154 -0.2678
19310TIP3    H179345   5.081   3.962   4.425 -0.9065 -1.0380 -0.3814
19310TIP3    H279346   5.170   3.842   4.449 -0.7673 -0.9720 -0.5727
19311TIP3   OH279347   5.419   5.513   6.134  0.7159  0.2527  0.4328
19311TIP3    H179348   5.457   5.592   6.096  0.4436  0.9375  1.5357
19311TIP3    H279349   5.492   5.450   6.136  0.7775  0.2519 -1.0155
19312TIP3   OH279350   1.362   3.113  16.870  0.2449 -0.1319  0.3164
19312TIP3    H179351   1.273   3.109  16.906  0.3873 -0.7315  0.6168
19312TIP3    H279352   1.368   3.036  16.814  1.0530 -0.8964  1.4226
19313TIP3   OH279353   6.671   3.225   2.608  0.7691 -0.3140 -0.4380
19313TIP3    H179354   6.680   3.142   2.654  0.2333 -0.6085 -0.8529
19313TIP3    H279355   6.655   3.200   2.517 -1.9327  0.1807 -0.1739
19314TIP3   OH279356   2.154   6.588   0.866 -0.2743 -0.5100  0.6582
19314TIP3    H179357   2.159   6.573   0.772 -0.9599 -2.6915  0.9085
19314TIP3    H279358   2.199   6.514   0.905 -0.4427  0.0914  2.0744
19315TIP3   OH279359   6.085   6.217  16.356  0.0494 -0.3132  0.4318
19315TIP3    H179360   6.027   6.289  16.329  0.3141  0.2652  1.3363
19315TIP3    H279361   6.172   6.256  16.359  0.8024 -1.5421 -2.3585
19316TIP3   OH279362   2.632   3.247   3.835  0.0272 -0.1403  0.1184
19316TIP3    H179363   2.570   3.285   3.773  1.2983 -0.0770 -1.1552
19316TIP3    H279364   2.671   3.173   3.789 -0.4036 -1.3368  1.5768
19317TIP3   OH279365   4.859   6.503  13.608 -0.5203 -0.3262  0.1676
19317TIP3    H179366   4.813   6.499  13.524 -1.1777 -1.5033  0.5567
19317TIP3    H279367   4.813   6.440  13.663 -0.9333  1.3494  1.8424
19318TIP3   OH279368   2.842   1.737   5.295 -0.6084 -0.0369  0.2042
19318TIP3    H179369   2.936   1.751   5.290 -0.5353 -0.7626 -0.5256
19318TIP3    H279370   2.821   1.683   5.219 -1.7817  1.0094 -0.2463
19319TIP3   OH279371   3.101   5.239  12.863 -0.7327  0.0763 -0.4443
19319TIP3    H179372   3.167   5.270  12.925  0.2542  1.7730 -2.2269
19319TIP3    H279373   3.150   5.186  12.800 -1.2328  0.5331 -1.2371
19320TIP3   OH279374   1.923   0.553  13.570 -0.7930 -0.4515  0.2610
19320TIP3    H179375   1.897   0.616  13.503 -1.0353 -0.3023  0.4928
19320TIP3    H279376   2.009   0.584  13.599 -1.0700 -0.0057  0.6342
19321TIP3   OH279377   3.563   3.087   4.326 -0.5071  0.4125  0.1592
19321TIP3    H179378   3.579   3.181   4.336  2.4009 -0.2296  3.7178
19321TIP3    H279379   3.549   3.075   4.232 -0.9656  4.3500 -0.4464
19322TIP3   OH279380   2.026   2.881  10.889 -0.4107 -0.1299  0.0264
19322TIP3    H179381   2.093   2.816  10.871 -1.8546 -1.3235 -1.3744
19322TIP3    H279382   2.007   2.920  10.803  0.1382  1.8859  0.7702
19323TIP3   OH279383   5.972   3.641  16.990  0.2733 -0.4036  0.4269
19323TIP3    H179384   5.981   3.657  16.896  2.6480 -1.2497  0.4540
19323TIP3    H279385   5.934   3.554  16.995 -0.2811 -0.1767  0.2665
19324TIP3   OH279386   5.522   1.076   5.703 -0.0528 -0.5792  0.2156
19324TIP3    H179387   5.599   1.054   5.650 -0.1612  1.6852 -0.9782
19324TIP3    H279388   5.448   1.068   5.644 -0.1615  2.1024 -0.1341
19325TIP3   OH279389   6.695   3.283   4.281  0.4941  0.0311 -0.0294
19325TIP3    H179390   6.727   3.299   4.370 -1.0390  0.1273  0.5288
19325TIP3    H279391   6.769   3.307   4.225  1.6979 -0.5848  1.2243
19326TIP3   OH279392   2.666   4.035  16.154  0.1327  0.1410  0.5952
19326TIP3    H179393   2.727   4.080  16.212 -0.9044  1.2838  0.8397
19326TIP3    H279394   2.633   3.961  16.205  0.0583  0.4921  1.0555
19327TIP3   OH279395   0.066   5.551   0.402 -0.1384  0.2358  0.3613
19327TIP3    H179396   0.146   5.508   0.374 -0.1332  0.7358 -0.4001
19327TIP3    H279397  -0.004   5.498   0.364 -0.1185  1.6072 -1.6864
19328TIP3   OH279398   4.473   1.058  15.723 -0.3362 -0.7258  0.2744
19328TIP3    H179399   4.413   1.073  15.796  0.3680  0.9941  0.5447
19328TIP3    H279400   4.517   0.975  15.744 -0.7441 -0.6809  1.3731
19329TIP3   OH279401   3.144   5.786   2.563 -0.2774  0.0144 -0.5762
19329TIP3    H179402   3.055   5.810   2.535 -0.0146  1.1270 -0.4837
19329TIP3    H279403   3.137   5.773   2.657  0.1668  2.7618 -0.0813
19330TIP3   OH279404   3.044   4.633  15.040 -0.1419  0.6841  0.2419
19330TIP3    H179405   2.976   4.574  15.006  0.2534 -0.8278  1.9066
19330TIP3    H279406   3.008   4.665  15.123  0.2583  1.6722  0.0369
19331TIP3   OH279407   1.817   4.650  11.309  0.7347 -0.2017  0.0037
19331TIP3    H179408   1.836   4.666  11.217  4.2879 -0.6992  0.5122
19331TIP3    H279409   1.836   4.734  11.352 -1.7830  0.3147  0.3087
19332TIP3   OH279410   0.129   3.487  15.032  1.0106  0.5008 -0.1558
19332TIP3    H179411   0.056   3.432  15.004  2.0346 -0.4916 -1.0135
19332TIP3    H279412   0.130   3.560  14.970  0.2442  0.9898  0.3880
19333TIP3   OH279413   1.772   2.116   2.144  0.6407  0.0719 -0.3408
19333TIP3    H179414   1.837   2.177   2.109  0.0868  0.5681 -0.5213
19333TIP3    H279415   1.743   2.156   2.227  1.9124 -1.0692  0.7075
19334TIP3   OH279416   5.256   0.809   3.940 -0.3430 -0.3911  0.2347
19334TIP3    H179417   5.351   0.800   3.936 -0.1443  0.4079  1.9269
19334TIP3    H279418   5.239   0.898   3.912 -0.5380 -0.3737  0.4026
19335TIP3   OH279419   5.246   2.953   3.169 -0.2783 -0.4871  0.0986
19335TIP3    H179420   5.292   2.905   3.238 -2.1768  0.0043  1.8133
19335TIP3    H279421   5.155   2.924   3.176 -1.0050  1.4690 -0.4690
19336TIP3   OH279422   2.775   0.435  11.674 -0.2483 -0.6063 -0.1110
19336TIP3    H179423   2.724   0.385  11.739  2.8136 -1.4096  1.8765
19336TIP3    H279424   2.783   0.376  11.599 -1.7476 -0.6585 -0.2594
19337TIP3   OH279425   1.281   5.495  12.980 -0.0822 -0.2439 -0.0739
19337TIP3    H179426   1.268   5.590  12.980  2.0949  0.0976 -0.1991
19337TIP3    H279427   1.321   5.477  12.895  5.4111 -0.2547  2.1394
19338TIP3   OH279428   5.292   2.566   2.850  0.2555  0.3215 -0.0348
19338TIP3    H179429   5.271   2.610   2.768 -0.1909 -0.5385 -0.3957
19338TIP3    H279430   5.326   2.481   2.824  4.8085  1.7116  0.4632
19339TIP3   OH279431   4.348   4.504  14.108  0.0402  0.5007  0.2251
19339TIP3    H179432   4.269   4.494  14.161 -0.3768 -2.1143 -0.7431
19339TIP3    H279433   4.331   4.452  14.029  1.8275  1.8015 -1.1057
19340TIP3   OH279434   6.608   5.096   3.645  0.5709  0.2994  0.3860
19340TIP3    H179435   6.658   5.019   3.674  2.2592  1.4098  0.5414
19340TIP3    H279436   6.674   5.161   3.625 -0.8270  1.6628  0.0531
19341TIP3   OH279437   3.697   4.762   6.106 -0.1182  0.1301 -0.2579
19341TIP3    H179438   3.616   4.770   6.156  1.2251  0.4274  2.0184
19341TIP3    H279439   3.731   4.852   6.101  0.2249 -0.0291 -0.9307
19342TIP3   OH279440   0.615   0.522   2.528  0.2001  0.1449  0.4583
19342TIP3    H179441   0.580   0.598   2.482 -1.3053 -0.1608  1.0117
19342TIP3    H279442   0.695   0.553   2.570  0.8437  0.7939 -1.1833
19343TIP3   OH279443   5.375   3.837  15.870 -0.7869  0.5979 -0.7540
19343TIP3    H179444   5.289   3.808  15.841 -0.1757  1.1810 -3.4078
19343TIP3    H279445   5.383   3.927  15.837  0.6071  0.7487 -0.0882
19344TIP3   OH279446   2.162   6.809   4.055 -0.9965 -0.0686 -0.6774
19344TIP3    H179447   2.159   6.868   4.130 -1.5087  1.0344 -1.5333
19344TIP3    H279448   2.252   6.777   4.054 -0.9627 -0.0358  0.3523
19345TIP3   OH279449   3.003   2.435   0.707  0.4024  0.8628  0.2038
19345TIP3    H179450   3.034   2.347   0.731 -1.7579 -0.4883 -1.5358
19345TIP3    H279451   3.081   2.483   0.682  1.5685 -0.8213  0.4723
19346TIP3   OH279452   0.276   4.471   0.434 -0.4193  0.5444 -0.0188
19346TIP3    H179453   0.297   4.528   0.508 -0.4294 -0.6157  0.9096
19346TIP3    H279454   0.339   4.495   0.366  2.3562 -1.0921  1.7851
19347TIP3   OH279455   6.500   2.568  15.869  0.0021  0.8200  0.3685
19347TIP3    H179456   6.576   2.551  15.813 -0.2466 -0.3011  0.3562
19347TIP3    H279457   6.538   2.602  15.950  0.5123  0.4044  0.3121
19348TIP3   OH279458   5.901   3.157  15.311  0.0962 -0.0759  0.3228
19348TIP3    H179459   5.988   3.198  15.312  0.1336  0.0435 -2.1750
19348TIP3    H279460   5.918   3.065  15.334  0.6389  0.2713  1.3905
19349TIP3   OH279461   0.864   6.331   2.337  0.1941 -0.1103 -0.2887
19349TIP3    H179462   0.845   6.361   2.248 -0.1288  1.9428  0.4132
19349TIP3    H279463   0.786   6.283   2.364 -0.2499  0.4209 -0.6336
19350TIP3   OH279464   1.142   2.224   4.532 -0.0053 -0.0216  0.0419
19350TIP3    H179465   1.231   2.248   4.507 -0.0130  0.2002  0.2219
19350TIP3    H279466   1.107   2.302   4.574  0.4839 -0.7846  2.0017
19351TIP3   OH279467   3.108   0.843  13.110  0.2537  0.2058 -0.6384
19351TIP3    H179468   3.166   0.821  13.183 -3.6871 -1.9175  2.2581
19351TIP3    H279469   3.092   0.759  13.066 -0.9675  0.6218 -1.0317
19352TIP3   OH279470   1.592   5.157  15.428 -0.3857  0.2459  0.1023
19352TIP3    H179471   1.593   5.100  15.351  0.3500 -0.8124  0.8627
19352TIP3    H279472   1.501   5.157  15.456 -0.7846  1.1271 -1.0875
19353TIP3   OH279473   3.845   1.643   6.338  0.2953 -0.1555  0.5264
19353TIP3    H179474   3.766   1.649   6.284 -0.8985 -1.9423  1.9604
19353TIP3    H279475   3.895   1.570   6.301  1.2436  0.8569 -0.2676
19354TIP3   OH279476   4.248   3.641   3.862  0.2387  0.1809  0.5179
19354TIP3    H179477   4.173   3.699   3.849  0.7261  0.7100  0.0334
19354TIP3    H279478   4.221   3.558   3.822  0.7290  1.0224 -1.6916
19355TIP3   OH279479   2.946   2.047  13.747  0.0699 -0.0716 -0.6964
19355TIP3    H179480   2.953   1.955  13.775 -1.1276 -0.4314 -1.5121
19355TIP3    H279481   2.885   2.045  13.674  0.2954  1.3476 -0.9460
19356TIP3   OH279482   5.065   1.321  14.052  0.3492 -0.1302 -0.4669
19356TIP3    H179483   5.064   1.258  13.980  0.0510  0.3244 -0.8674
19356TIP3    H279484   4.998   1.385  14.029  0.8743  0.5131 -0.2272
19357TIP3   OH279485   5.203   5.922   3.905 -1.0491  0.0704  0.3785
19357TIP3    H179486   5.278   5.863   3.913 -0.6807  0.5498  0.4742
19357TIP3    H279487   5.229   6.001   3.950 -1.4978  0.3597  0.1435
19358TIP3   OH279488   2.744   6.061   4.787 -0.0881  0.2154 -0.1683
19358TIP3    H179489   2.665   6.058   4.733  0.8340  1.7403 -1.6700
19358TIP3    H279490   2.750   5.974   4.826 -2.0572 -0.1749 -0.6523
19359TIP3   OH279491   1.092   0.122   2.074 -0.5623  0.3491  0.5139
19359TIP3    H179492   1.132   0.036   2.063  1.7338  1.0437  2.7188
19359TIP3    H279493   1.096   0.140   2.168 -0.5485  3.0557  0.0836
19360TIP3   OH279494   4.762   6.676  16.299  0.2793 -0.0842 -0.1604
19360TIP3    H179495   4.819   6.752  16.298 -0.8869  0.8181 -0.6218
19360TIP3    H279496   4.716   6.682  16.384 -0.2214  0.0527 -0.4360
19361TIP3   OH279497   2.903   3.068  13.768  0.3018  0.1958  0.8334
19361TIP3    H179498   2.992   3.041  13.747  0.4249  2.0187 -1.4460
19361TIP3    H279499   2.856   2.987  13.788  2.0299 -0.9808  0.2695
19362TIP3   OH279500   0.826   6.032   1.936  0.0556  0.6325  0.4166
19362TIP3    H179501   0.877   6.090   1.879  2.1063  0.7147  2.1706
19362TIP3    H279502   0.814   5.952   1.886 -1.2673  1.8888 -1.3849
19363TIP3   OH279503   0.902   5.436   0.403 -0.6763 -0.4817  0.1374
19363TIP3    H179504   0.852   5.415   0.324  0.4845 -0.1395 -0.7130
19363TIP3    H279505   0.930   5.351   0.436 -1.5453 -0.6582  0.4552
19364TIP3   OH279506   3.813   6.273  13.733 -0.3276 -0.1312 -0.0490
19364TIP3    H179507   3.846   6.292  13.645 -0.7349 -1.3217 -0.4745
19364TIP3    H279508   3.875   6.316  13.792  1.3913 -1.3852 -0.8558
19365TIP3   OH279509   5.119   4.951   1.726  0.3492  0.0623 -0.4761
19365TIP3    H179510   5.093   4.862   1.752  0.0254  0.3144  0.0928
19365TIP3    H279511   5.038   5.002   1.734  0.4916  0.3729 -0.9832
19366TIP3   OH279512   0.954   6.612  12.658  0.4908 -0.2271 -0.0895
19366TIP3    H179513   1.030   6.618  12.601  0.8538 -1.1007  0.2801
19366TIP3    H279514   0.962   6.686  12.718 -0.2378  1.0890 -1.5511
19367TIP3   OH279515   3.733   1.582  11.544  0.3365 -0.0538 -0.0942
19367TIP3    H179516   3.670   1.515  11.570 -0.6609  0.4134 -1.1835
19367TIP3    H279517   3.800   1.535  11.496 -0.8682 -0.1994 -1.7183
19368TIP3   OH279518   4.521   3.054  13.120 -0.6182 -0.1957  0.1105
19368TIP3    H179519   4.427   3.068  13.132 -0.6548 -0.7485  0.4986
19368TIP3    H279520   4.561   3.081  13.203 -0.5275 -0.7902  0.2677
19369TIP3   OH279521   3.087   5.338  15.949 -0.1395  0.1361 -0.5643
19369TIP3    H179522   3.102   5.245  15.934  0.8483  0.4293 -1.5887
19369TIP3    H279523   3.000   5.343  15.989 -0.4709 -1.1655 -1.0783
19370TIP3   OH279524   5.079   0.400   3.407  0.0247 -0.1314  0.0508
19370TIP3    H179525   5.054   0.352   3.487 -2.3383  0.9246  0.0289
19370TIP3    H279526   5.080   0.492   3.434  0.7450  0.1166 -0.7950
19371TIP3   OH279527   0.710   5.993   3.531  0.3895 -0.0247  0.1661
19371TIP3    H179528   0.806   5.994   3.530  0.3864  0.0643 -0.3037
19371TIP3    H279529   0.685   5.952   3.449  0.0247 -1.9130  1.1535
19372TIP3   OH279530   3.905   5.273  16.750 -0.7089  0.0937 -0.1913
19372TIP3    H179531   3.845   5.200  16.768 -0.5091 -0.4297 -1.5193
19372TIP3    H279532   3.985   5.250  16.796 -0.6800 -0.4857 -0.5228
19373TIP3   OH279533   4.626   2.565  15.866 -0.3762 -0.6492  0.3300
19373TIP3    H179534   4.643   2.569  15.772 -0.0601  0.5819  0.4282
19373TIP3    H279535   4.531   2.557  15.874 -0.3218 -1.9528 -0.1058
19374TIP3   OH279536   3.197   3.963  12.559 -0.0543 -0.0264  0.6693
19374TIP3    H179537   3.133   3.900  12.525  0.6574 -0.0556 -0.6768
19374TIP3    H279538   3.175   3.972  12.652  0.0292 -2.4758  0.9785
19375TIP3   OH279539   3.473   3.592   4.994 -0.7674 -0.1693 -0.2410
19375TIP3    H179540   3.453   3.535   4.919 -2.3184 -0.3053  0.2441
19375TIP3    H279541   3.390   3.599   5.041 -0.4004  1.7958  0.1948
19376TIP3   OH279542   6.475   2.169   4.882  0.3588  0.2578 -0.0955
19376TIP3    H179543   6.432   2.230   4.942  3.2218  3.4881 -0.9907
19376TIP3    H279544   6.413   2.157   4.811 -0.6014  1.5929  0.4706
19377TIP3   OH279545   3.372   4.390   4.660  0.4516  0.6403  0.6625
19377TIP3    H179546   3.428   4.370   4.735 -0.3205  0.3297  1.1653
19377TIP3    H279547   3.302   4.444   4.696 -0.4729 -0.3338  0.3717
19378TIP3   OH279548   1.344   4.695  11.383 -0.0354 -0.3141  0.1025
19378TIP3    H179549   1.323   4.685  11.291 -0.8172  0.3054  0.2050
19378TIP3    H279550   1.363   4.606  11.413  1.9430 -0.3354 -1.0330
19379TIP3   OH279551   1.054   1.645   3.556 -0.6264 -0.2405 -0.3043
19379TIP3    H179552   1.026   1.727   3.516 -0.3835  0.3392  0.6594
19379TIP3    H279553   0.993   1.579   3.523 -0.5135  0.2291 -1.4921
19380TIP3   OH279554   2.381   6.805  12.778  0.0052  0.4746 -0.0357
19380TIP3    H179555   2.316   6.738  12.757  2.5063 -1.6776 -1.5228
19380TIP3    H279556   2.332   6.887  12.776 -2.4972 -0.9194 -1.9330
19381TIP3   OH279557   4.932   4.027   0.844 -0.2120 -0.5586  0.0947
19381TIP3    H179558   5.011   4.071   0.811 -0.3435  0.1416  0.6740
19381TIP3    H279559   4.886   4.095   0.894 -0.7920 -1.1673  0.4059
19382TIP3   OH279560   5.863   1.685  13.631  0.2041  0.2505 -0.4710
19382TIP3    H179561   5.784   1.733  13.606  1.1230  1.3523 -1.3729
19382TIP3    H279562   5.859   1.605  13.578  0.5636  1.1287 -1.8941
19383TIP3   OH279563   6.359   2.409   2.862  0.0147  0.3346 -0.0192
19383TIP3    H179564   6.422   2.423   2.792  1.6855 -2.9874  0.6199
19383TIP3    H279565   6.322   2.322   2.844 -3.8981  1.7615  0.1122
19384TIP3   OH279566   1.695   0.094  12.107  0.1603  0.2199  0.1124
19384TIP3    H179567   1.735   0.009  12.088  1.0522  0.6529 -0.0114
19384TIP3    H279568   1.761   0.158  12.079 -1.5241  1.0395 -2.3447
19385TIP3   OH279569   4.983   1.070   5.242 -0.4697 -0.0270 -0.1968
19385TIP3    H179570   4.949   1.151   5.280 -2.5474 -0.1943 -1.4801
19385TIP3    H279571   4.920   1.003   5.269 -0.5723 -0.5976 -1.7579
19386TIP3   OH279572   3.722   5.612   4.779  0.1111 -0.1392 -0.0135
19386TIP3    H179573   3.644   5.588   4.829 -0.6859  1.1345 -0.6064
19386TIP3    H279574   3.749   5.531   4.736 -1.0696 -0.5357 -0.0423
19387TIP3   OH279575   1.832   1.562  16.619 -0.0119  0.3050 -0.1069
19387TIP3    H179576   1.744   1.524  16.615  0.1598 -0.0142 -1.5808
19387TIP3    H279577   1.859   1.567  16.527  1.6962 -0.0260  0.3620
19388TIP3   OH279578   1.814   6.513  15.222  0.1332 -0.4824 -0.1771
19388TIP3    H179579   1.855   6.433  15.255  1.6182 -0.4007 -1.6964
19388TIP3    H279580   1.730   6.484  15.186  0.9551 -1.5232 -1.3494
19389TIP3   OH279581   5.142   3.918   1.913  0.1064  0.8235 -0.5342
19389TIP3    H179582   5.202   3.844   1.900  1.2290  1.2711  1.5468
19389TIP3    H279583   5.056   3.884   1.890  0.7294 -0.8677 -0.4897
19390TIP3   OH279584   2.832   4.122   4.983 -0.1451  0.1432  0.2488
19390TIP3    H179585   2.782   4.105   5.062 -1.4778  0.8486 -0.4206
19390TIP3    H279586   2.883   4.042   4.969 -2.0922 -1.1521  0.2148
19391TIP3   OH279587   2.360   3.998  12.519 -0.3400  0.2169  0.4780
19391TIP3    H179588   2.394   3.923  12.569 -1.0589 -1.3246 -1.2216
19391TIP3    H279589   2.286   4.029  12.571  0.1698 -0.0392  1.3741
19392TIP3   OH279590   0.734   0.842   3.500  0.3365  0.0652  0.1393
19392TIP3    H179591   0.723   0.930   3.464 -3.1842  0.6436  2.1109
19392TIP3    H279592   0.818   0.845   3.545  0.2874  2.4870  0.2085
19393TIP3   OH279593   5.044   5.686  15.667  0.1327 -0.1417 -0.0689
19393TIP3    H179594   5.081   5.774  15.676  1.5870 -0.7384 -0.0313
19393TIP3    H279595   5.078   5.638  15.743  0.1083 -1.0005 -0.5923
19394TIP3   OH279596   3.259   2.511   3.112 -0.4754 -0.4740 -0.1300
19394TIP3    H179597   3.209   2.443   3.067 -1.9562  0.6566 -0.2531
19394TIP3    H279598   3.272   2.580   3.047  0.6722 -0.4528  0.1010
19395TIP3   OH279599   3.602   2.854  15.494  0.7163 -0.3441 -0.0962
19395TIP3    H179600   3.620   2.843  15.400  1.3187  0.1396 -0.0378
19395TIP3    H279601   3.573   2.767  15.523  0.2219 -0.4207 -0.7942
19396TIP3   OH279602   1.923   2.985  12.968 -0.2534  0.1559 -0.0329
19396TIP3    H179603   1.843   3.013  13.012  0.4107  1.2917  0.4888
19396TIP3    H279604   1.974   2.941  13.036 -0.6628 -1.0979 -0.5035
19397TIP3   OH279605   0.841   0.209  13.007 -0.2345 -0.0233 -0.1732
19397TIP3    H179606   0.783   0.154  13.060 -1.3802  1.4121  0.1237
19397TIP3    H279607   0.801   0.296  13.010  1.2478  0.7265 -1.0438
19398TIP3   OH279608   2.845   5.134   5.092 -0.4975  0.0922  0.2980
19398TIP3    H179609   2.788   5.056   5.096  1.7501 -1.6765 -0.2412
19398TIP3    H279610   2.858   5.159   5.183  0.4381 -1.5166  0.6471
19399TIP3   OH279611   5.962   0.329   5.477 -0.1844  0.0112  0.2735
19399TIP3    H179612   6.011   0.249   5.458  1.0331  0.7063  0.3557
19399TIP3    H279613   5.921   0.313   5.561 -1.3529 -1.1507 -0.4924
19400TIP3   OH279614   0.134   1.888   2.573 -0.3882  0.5918  0.3486
19400TIP3    H179615   0.104   1.901   2.483 -0.9469  1.4284  0.6355
19400TIP3    H279616   0.189   1.965   2.591 -1.1978  1.0274  1.0746
19401TIP3   OH279617   4.136   6.730  14.538  0.0696 -0.6654  0.2152
19401TIP3    H179618   4.060   6.757  14.487 -0.1780 -1.6216  0.0542
19401TIP3    H279619   4.101   6.668  14.602  0.4874  0.0031  1.1178
19402TIP3   OH279620   3.689   3.219  16.167  0.2176 -0.1007 -0.1153
19402TIP3    H179621   3.756   3.258  16.222  1.4125 -2.2359  0.0767
19402TIP3    H279622   3.613   3.210  16.224  1.3145 -1.9215  1.1592
19403TIP3   OH279623   3.825   3.313   2.186 -0.4858 -0.0470 -0.1943
19403TIP3    H179624   3.850   3.405   2.181  0.3584 -0.3278 -2.4410
19403TIP3    H279625   3.772   3.299   2.107  1.8378 -2.1209 -1.5027
19404TIP3   OH279626   5.980   4.054  16.511  0.4606  0.0217  0.3901
19404TIP3    H179627   5.986   4.005  16.593  2.2868  2.2078  1.6733
19404TIP3    H279628   5.929   4.132  16.533  1.5150  0.9472 -0.3740
19405TIP3   OH279629   4.749   3.651  13.169 -0.5541  0.2740  0.1769
19405TIP3    H179630   4.740   3.593  13.245  0.5996  0.1496  0.2366
19405TIP3    H279631   4.700   3.608  13.099  0.7164 -1.0802  0.0691
19406TIP3   OH279632   0.716   4.095  16.979 -0.0453 -0.5324 -0.6035
19406TIP3    H179633   0.811   4.104  16.981 -0.1285  0.4528  0.6491
19406TIP3    H279634   0.687   4.128  17.064 -1.5022 -0.9070 -0.9198
19407TIP3   OH279635   4.576   1.311  11.106  0.1870  0.2720  0.3672
19407TIP3    H179636   4.523   1.318  11.027  0.1726 -0.4294  0.3106
19407TIP3    H279637   4.552   1.226  11.143  2.7048 -1.0195 -0.7150
19408TIP3   OH279638   0.963   0.504   3.548 -0.1112  0.3568  0.3005
19408TIP3    H179639   0.902   0.430   3.546 -1.4004  1.3924 -0.1429
19408TIP3    H279640   0.940   0.552   3.627 -0.7279  1.4201 -0.4900
19409TIP3   OH279641   2.604   4.493  11.902 -0.0391 -0.1930 -0.2818
19409TIP3    H179642   2.677   4.555  11.900 -1.0215  1.0365  0.5813
19409TIP3    H279643   2.585   4.481  11.995 -1.2588 -0.0999 -0.5038
19410TIP3   OH279644   3.514   6.448   3.249 -0.2155 -0.6056  0.2927
19410TIP3    H179645   3.525   6.460   3.344  0.5331 -0.1104  0.1475
19410TIP3    H279646   3.529   6.534   3.212  1.1525 -1.1320 -0.4214
19411TIP3   OH279647   3.529   5.881  12.596  0.1458 -0.2489  0.0893
19411TIP3    H179648   3.607   5.924  12.633  0.5455 -1.2440  0.4300
19411TIP3    H279649   3.459   5.903  12.657  0.1178  0.7709 -0.2941
19412TIP3   OH279650   2.983   4.722   5.235  0.2445  0.1793  0.8234
19412TIP3    H179651   2.955   4.638   5.271 -2.0502  1.5796  2.6302
19412TIP3    H279652   3.070   4.736   5.272  0.8178 -1.4875  0.2171
19413TIP3   OH279653   5.811   2.672  13.264 -0.2648  0.3754  0.0673
19413TIP3    H179654   5.884   2.614  13.243  1.0401  1.9955 -0.1238
19413TIP3    H279655   5.782   2.706  13.180 -1.3666 -0.3704  0.1288
19414TIP3   OH279656   4.528   5.743   1.222 -0.4986 -0.0665 -0.2463
19414TIP3    H179657   4.490   5.831   1.229 -1.6925 -0.5205 -0.7272
19414TIP3    H279658   4.533   5.726   1.128  0.0615 -0.3814 -0.1648
19415TIP3   OH279659   3.806   4.990  16.636 -0.9129 -0.5119 -0.5044
19415TIP3    H179660   3.845   5.065  16.590 -0.3215 -0.4485  0.0799
19415TIP3    H279661   3.873   4.922  16.630 -0.2577 -0.0916  1.3590
19416TIP3   OH279662   4.491   2.342   1.637 -0.0090  0.2928 -0.5042
19416TIP3    H179663   4.494   2.426   1.591 -0.6583  2.0593  2.4286
19416TIP3    H279664   4.405   2.341   1.679  0.6875 -1.0006  0.9891
19417TIP3   OH279665   4.955   0.576  16.376 -0.4208 -0.3884 -0.3384
19417TIP3    H179666   5.022   0.631  16.417 -0.4206 -0.6908  0.0731
19417TIP3    H279667   5.002   0.528  16.307 -0.5825  0.7061 -1.2385
19418TIP3   OH279668   4.267   2.329  11.992 -0.0126  0.1631 -0.2817
19418TIP3    H179669   4.192   2.348  11.935 -0.8301  0.4262  0.8370
19418TIP3    H279670   4.314   2.259  11.948 -1.8955 -1.2524 -0.1883
19419TIP3   OH279671   2.480   3.025  14.150  0.2213 -0.3470  0.2345
19419TIP3    H179672   2.384   3.027  14.154  0.2542 -0.5685  1.8594
19419TIP3    H279673   2.502   2.933  14.163  0.6881 -0.0076  2.1255
19420TIP3   OH279674   2.963   4.441   5.306 -0.0494  0.5055  0.9216
19420TIP3    H179675   3.022   4.494   5.360 -0.9027 -0.3623  2.7605
19420TIP3    H279676   3.000   4.353   5.309  0.0752  0.4996 -0.2222
19421TIP3   OH279677   5.895   6.033  16.465  0.5001  0.0210 -0.1810
19421TIP3    H179678   5.976   6.078  16.444 -0.2556  1.2210 -0.6218
19421TIP3    H279679   5.829   6.102  16.471 -0.2528 -0.7634  1.4960
19422TIP3   OH279680   6.546   3.425   5.666  0.1352  0.4928 -0.0062
19422TIP3    H179681   6.491   3.490   5.622  0.7295  0.6120 -0.5910
19422TIP3    H279682   6.622   3.474   5.697 -0.2661  0.4011  1.1392
19423TIP3   OH279683   3.593   6.172  11.488  0.6988 -0.0797  0.1857
19423TIP3    H179684   3.630   6.168  11.400  1.1164  1.6648  0.2315
19423TIP3    H279685   3.594   6.266  11.509  1.1551 -0.5175  2.2834
19424TIP3   OH279686   0.464   2.515  11.069 -0.0597  0.5712  0.1856
19424TIP3    H179687   0.462   2.535  10.975  0.3785  0.2470  0.1049
19424TIP3    H279688   0.373   2.492  11.090  0.0623 -0.5248 -0.4269
19425TIP3   OH279689   4.046   3.008   3.300  0.3087 -0.2388  0.3097
19425TIP3    H179690   4.126   3.060   3.290  0.2191  0.1698  1.6340
19425TIP3    H279691   4.029   2.974   3.212  1.8378 -0.1829 -0.0312
19426TIP3   OH279692   4.036   1.952  14.328  0.3507  0.1610 -0.1780
19426TIP3    H179693   4.013   2.016  14.396 -0.1287  0.0365 -0.2203
19426TIP3    H279694   4.096   1.891  14.371  0.0990  0.1195  0.1103
19427TIP3   OH279695   4.705   6.448   1.918  0.0682 -0.1944  0.0194
19427TIP3    H179696   4.657   6.365   1.922 -1.7946  0.7754 -0.8329
19427TIP3    H279697   4.738   6.460   2.007  0.2775 -1.7710  0.1913
19428TIP3   OH279698   4.483   6.554  13.190 -0.0420 -0.0129 -0.0915
19428TIP3    H179699   4.425   6.623  13.222 -0.4166  0.4554 -1.6641
19428TIP3    H279700   4.431   6.509  13.123  1.0079 -0.3157 -0.7181
19429TIP3   OH279701   3.190   3.638  13.885 -0.8266 -0.0328 -0.3867
19429TIP3    H179702   3.172   3.731  13.877  1.2239  0.6837  1.9685
19429TIP3    H279703   3.124   3.606  13.947 -1.8974 -0.3284 -1.6401
19430TIP3   OH279704   5.723   4.124  15.190 -0.3946  0.0568  0.4038
19430TIP3    H179705   5.695   4.125  15.098  1.7261  0.4897 -0.3200
19430TIP3    H279706   5.667   4.187  15.234  1.1234  3.0214 -1.5339
19431TIP3   OH279707   5.218   2.852   0.361 -0.0034 -0.2438 -0.4107
19431TIP3    H179708   5.174   2.923   0.315 -0.1528  0.9406  1.4525
19431TIP3    H279709   5.219   2.880   0.452  0.8228 -2.2062  0.2302
19432TIP3   OH279710   1.067   5.648   1.207 -0.1797  0.5894  0.3686
19432TIP3    H179711   1.100   5.616   1.123 -1.3866  1.6053 -0.5212
19432TIP3    H279712   1.141   5.637   1.267  0.3537 -1.2015 -0.5270
19433TIP3   OH279713   1.671   4.552   0.753  0.0795  0.0662  0.2011
19433TIP3    H179714   1.633   4.486   0.695 -1.7010  1.9280 -0.9159
19433TIP3    H279715   1.670   4.511   0.840  1.2943 -2.1903 -0.7703
19434TIP3   OH279716   3.786   1.311   0.258  0.2821  0.0004 -0.0486
19434TIP3    H179717   3.771   1.318   0.352  0.3115 -0.3466 -0.0148
19434TIP3    H279718   3.707   1.345   0.218  0.2503  0.1054  0.1038
19435TIP3   OH279719   4.852   4.733   6.207 -0.3911 -0.0534 -0.1695
19435TIP3    H179720   4.852   4.816   6.256 -2.0329 -0.6204  0.8639
19435TIP3    H279721   4.796   4.750   6.131  0.8515  0.3382 -1.0280
19436TIP3   OH279722   5.576   1.172   0.408 -0.3846 -0.6354 -0.0478
19436TIP3    H179723   5.565   1.266   0.420 -1.3910 -0.8848  1.2348
19436TIP3    H279724   5.603   1.162   0.317 -2.4118  0.7526 -0.8656
19437TIP3   OH279725   0.327   3.284  16.106 -0.3909 -0.1938  0.5658
19437TIP3    H179726   0.238   3.303  16.074  0.3698  0.6958 -1.1988
19437TIP3    H279727   0.342   3.192  16.083 -0.2878  0.1115 -0.6954
19438TIP3   OH279728   2.135   0.137  10.712 -0.0762 -0.1331 -0.8178
19438TIP3    H179729   2.180   0.220  10.696 -1.4475  0.8619  0.2258
19438TIP3    H279730   2.180   0.074  10.655  1.0479  1.2951 -1.5842
19439TIP3   OH279731   1.637   5.735  14.975  0.9162 -0.1034 -0.1090
19439TIP3    H179732   1.728   5.747  15.005  0.7599  2.9519 -0.5352
19439TIP3    H279733   1.584   5.780  15.041 -0.1456 -0.5472 -0.6436
19440TIP3   OH279734   2.746   5.623  14.516  0.2601 -0.1334  0.2664
19440TIP3    H179735   2.784   5.541  14.548  0.8898 -0.5672 -1.4970
19440TIP3    H279736   2.821   5.683  14.507 -0.0103  0.2192  0.3205
19441TIP3   OH279737   1.228   3.267  12.641 -0.5377 -0.6335  0.2145
19441TIP3    H179738   1.145   3.229  12.613 -2.2248  1.4040  2.0588
19441TIP3    H279739   1.230   3.353  12.599  1.3561 -1.1530 -0.8733
19442TIP3   OH279740   1.089   5.797   1.919  0.4273 -0.5969 -0.4199
19442TIP3    H179741   1.015   5.741   1.895  0.3711 -1.5388  1.7202
19442TIP3    H279742   1.103   5.852   1.842  0.1460 -3.1818 -2.4822
19443TIP3   OH279743   5.326   0.785  13.483 -0.5060  0.5100  0.2207
19443TIP3    H179744   5.349   0.700  13.521  1.5742  0.9778  0.1289
19443TIP3    H279745   5.335   0.772  13.389 -2.1142  0.3217  0.0794
19444TIP3   OH279746   3.535   2.757  11.396  0.2526 -0.1064 -0.0095
19444TIP3    H179747   3.488   2.714  11.467  0.2487 -2.3689 -1.2782
19444TIP3    H279748   3.467   2.802  11.345 -0.0696 -0.5301  0.0448
19445TIP3   OH279749   2.677   5.745   0.081  0.2776 -0.4347  0.4147
19445TIP3    H179750   2.588   5.732   0.049  0.2799 -3.8667  1.3875
19445TIP3    H279751   2.728   5.767   0.003 -0.9480 -1.2480 -0.6415
19446TIP3   OH279752   0.753   1.663   5.246 -0.0334  0.3130 -0.1293
19446TIP3    H179753   0.734   1.756   5.234 -0.4291  0.4686  1.4307
19446TIP3    H279754   0.679   1.617   5.206  0.1673  0.6534 -0.9073
19447TIP3   OH279755   6.315   2.933   2.454  0.0838 -0.2949 -0.1546
19447TIP3    H179756   6.348   2.875   2.522 -2.5140  0.6076  2.0712
19447TIP3    H279757   6.220   2.919   2.454 -0.1125  0.3622 -3.0785
19448TIP3   OH279758   1.927   0.660   1.115 -0.2728 -0.3542 -0.7595
19448TIP3    H179759   2.017   0.645   1.142 -0.9211 -0.4268  1.5886
19448TIP3    H279760   1.934   0.715   1.036  1.7828  0.7093  0.0922
19449TIP3   OH279761   5.655   0.436   4.669 -0.1605  0.1508  0.1635
19449TIP3    H179762   5.739   0.400   4.644  0.5528  0.8741  1.3977
19449TIP3    H279763   5.651   0.424   4.764 -1.0253  0.9968  0.2538
19450TIP3   OH279764   0.201   3.013  10.234 -0.4025  0.1486  0.2647
19450TIP3    H179765   0.256   3.035  10.309 -2.3997  1.0645  1.5505
19450TIP3    H279766   0.184   3.097  10.191 -0.4288 -0.1769 -0.3785
19451TIP3   OH279767   4.358   4.193  12.624  0.1518 -0.7900 -0.6782
19451TIP3    H179768   4.371   4.122  12.686 -0.2881 -0.7184 -0.4951
19451TIP3    H279769   4.290   4.160  12.564 -0.6881 -0.2071 -0.0731
19452TIP3   OH279770   2.671   2.828  11.802  0.7392 -0.2870 -0.0239
19452TIP3    H179771   2.649   2.764  11.735  1.7237 -1.1009  0.3911
19452TIP3    H279772   2.754   2.796  11.839  0.0890 -0.0312  1.7768
19453TIP3   OH279773   5.270   1.366   4.448 -0.5204  0.3047  0.2379
19453TIP3    H179774   5.199   1.318   4.405 -0.7750  0.4886  0.4508
19453TIP3    H279775   5.264   1.454   4.412  0.3541  0.0265 -0.6388
19454TIP3   OH279776   0.322   4.113   3.214 -0.3133 -0.9308 -0.2080
19454TIP3    H179777   0.305   4.136   3.123  0.3246 -2.1851 -0.6567
19454TIP3    H279778   0.415   4.132   3.227 -0.6114  0.1764  0.4871
19455TIP3   OH279779   0.048   4.661   5.797  0.2345 -0.1155 -0.5367
19455TIP3    H179780   0.030   4.751   5.824  0.0445 -0.1119 -0.6720
19455TIP3    H279781   0.090   4.621   5.873 -0.3363 -0.1208 -0.2257
19456TIP3   OH279782   2.454   6.673   0.373 -0.2143  0.5317 -0.3647
19456TIP3    H179783   2.503   6.602   0.332  0.2787  1.5611 -1.6039
19456TIP3    H279784   2.486   6.753   0.331 -1.1069  1.4610  0.6415
19457TIP3   OH279785   2.628   4.720  16.739  0.1634  0.5145  0.0287
19457TIP3    H179786   2.552   4.742  16.685 -1.5289 -2.2881  1.0428
19457TIP3    H279787   2.683   4.668  16.681  0.9111  1.8076 -0.4474
19458TIP3   OH279788   2.767   4.315   1.552 -0.2038 -0.2514 -0.1795
19458TIP3    H179789   2.852   4.287   1.589  1.3142  1.4021 -2.1884
19458TIP3    H279790   2.785   4.401   1.514 -2.3732 -0.5914 -2.1491
19459TIP3   OH279791   3.562   2.080  11.374 -0.4399 -0.2105 -0.3627
19459TIP3    H179792   3.578   2.019  11.446 -1.4723  0.6542  0.6366
19459TIP3    H279793   3.615   2.046  11.302  1.0367 -0.8181  0.9447
19460TIP3   OH279794   4.406   3.421  10.494  0.2388 -0.1367  0.3642
19460TIP3    H179795   4.368   3.502  10.462 -2.7622 -1.5645  0.0075
19460TIP3    H279796   4.457   3.388  10.420 -0.2166  0.4036 -0.2001
19461TIP3   OH279797   0.383   2.074  10.593  0.4234  0.3682  0.4185
19461TIP3    H179798   0.427   1.988  10.596 -0.6393 -0.1969  0.2429
19461TIP3    H279799   0.408   2.110  10.508  1.0359  0.3265  0.5744
19462TIP3   OH279800   0.877   0.029  11.429  0.7984  0.6654 -0.3338
19462TIP3    H179801   0.792  -0.013  11.419  1.2127 -0.2449 -0.0909
19462TIP3    H279802   0.867   0.114  11.386 -0.3988  0.8082  0.1830
19463TIP3   OH279803   2.301   5.159   3.729  0.4685  0.0881  0.3038
19463TIP3    H179804   2.278   5.172   3.637 -0.5978  1.1442  0.6947
19463TIP3    H279805   2.253   5.079   3.753 -2.9406  2.1428  1.0474
19464TIP3   OH279806   3.474   3.407  11.782  0.0211  0.7508  0.0691
19464TIP3    H179807   3.494   3.365  11.699 -0.6611 -0.7768  0.6521
19464TIP3    H279808   3.379   3.417  11.782 -0.0736 -0.0558  1.0249
19465TIP3   OH279809   4.370   4.487  14.790 -0.1292  1.1962 -0.1160
19465TIP3    H179810   4.362   4.450  14.878  3.3887 -2.3298 -0.9817
19465TIP3    H279811   4.417   4.569  14.802  0.6837  0.5560  1.3180
19466TIP3   OH279812   5.297   6.260  14.546  0.2734  0.0290  0.7165
19466TIP3    H179813   5.304   6.174  14.505 -1.9248  0.3946 -0.5985
19466TIP3    H279814   5.301   6.322  14.473  2.7838  1.1923  1.7120
19467TIP3   OH279815   6.369   2.946   3.235  0.1784  0.4444 -0.4957
19467TIP3    H179816   6.452   2.982   3.265 -0.6784  1.7740  0.3893
19467TIP3    H279817   6.347   2.997   3.157 -0.1051  0.5276 -0.3644
19468TIP3   OH279818   5.823   4.552   2.207  0.2334  0.1872  0.5583
19468TIP3    H179819   5.842   4.613   2.279  0.0589  0.4174  0.4126
19468TIP3    H279820   5.899   4.560   2.149 -0.2388  1.0267  0.0311
19469TIP3   OH279821   0.842   1.124   2.712  0.2876 -0.0104 -0.1335
19469TIP3    H179822   0.890   1.155   2.788  1.5594 -0.0832 -0.8813
19469TIP3    H279823   0.895   1.150   2.637 -0.2709 -1.0838 -0.9353
19470TIP3   OH279824   0.971   3.346  11.797  0.5828 -0.3742 -0.6259
19470TIP3    H179825   1.015   3.390  11.869  1.0080 -0.3825 -0.8736
19470TIP3    H279826   1.041   3.324  11.736  0.4458 -1.7959 -0.3036
19471TIP3   OH279827   2.225   3.895  12.085 -0.2130 -0.4130 -0.0722
19471TIP3    H179828   2.137   3.913  12.052 -0.5137 -0.9897  0.3976
19471TIP3    H279829   2.265   3.981  12.096 -1.2103 -0.0596  1.0187
19472TIP3   OH279830   3.520   1.183  11.201 -0.2142 -0.2362 -0.2757
19472TIP3    H179831   3.561   1.184  11.114  0.9542  0.1065  0.2556
19472TIP3    H279832   3.593   1.178  11.262 -0.8661  1.7999  0.7609
19473TIP3   OH279833   5.252   1.293   1.933  0.8942  0.0150  0.0935
19473TIP3    H179834   5.181   1.296   1.996 -0.3119  1.8917 -1.2411
19473TIP3    H279835   5.240   1.211   1.886 -1.1556  0.7992 -0.8584
19474TIP3   OH279836   0.859   3.867  12.281 -0.2026  0.8046  0.0955
19474TIP3    H179837   0.939   3.907  12.247  1.7380 -2.5293  0.3089
19474TIP3    H279838   0.851   3.901  12.370  1.4511  0.6730  0.3257
19475TIP3   OH279839   5.704   6.421   0.499  0.1515  0.1362 -0.0006
19475TIP3    H179840   5.666   6.349   0.549  0.7554 -0.7499 -0.7689
19475TIP3    H279841   5.647   6.431   0.423  0.0480  0.5062  0.1208
19476TIP3   OH279842   4.286   3.276  11.303  0.5849  0.4491  0.0357
19476TIP3    H179843   4.207   3.329  11.306  1.4007  1.6882  0.8739
19476TIP3    H279844   4.350   3.331  11.258  1.0929 -0.3496 -0.2400
19477TIP3   OH279845   3.508   2.480  11.860 -0.1768 -0.2525  0.1525
19477TIP3    H179846   3.578   2.454  11.920 -0.7776 -1.5537  0.3302
19477TIP3    H279847   3.429   2.484  11.915 -0.7073 -1.3210 -0.4974
19478TIP3   OH279848   0.124   1.623  12.194 -0.6161 -0.3522 -0.7097
19478TIP3    H179849   0.195   1.559  12.200 -0.8754 -0.6461 -0.7930
19478TIP3    H279850   0.163   1.695  12.143  0.0634  0.0999  0.4140
19479TIP3   OH279851   3.138   2.992   2.389  0.4155  1.1529 -0.1263
19479TIP3    H179852   3.140   2.983   2.485  1.9267 -0.6107 -0.2752
19479TIP3    H279853   3.052   2.958   2.364  0.2058  1.1514  0.5648
19480TIP3   OH279854   0.641   4.456   3.226  0.3213 -0.4086 -0.3536
19480TIP3    H179855   0.584   4.507   3.169 -0.8476 -1.0290  0.2109
19480TIP3    H279856   0.617   4.365   3.208  1.9783 -0.7452 -0.9497
19481TIP3   OH279857   6.588   0.083   2.260  0.0836 -0.6683  0.3705
19481TIP3    H179858   6.572  -0.008   2.232 -1.3876 -0.9843  2.0735
19481TIP3    H279859   6.657   0.077   2.326 -0.5900 -0.6591  1.0821
19482TIP3   OH279860   1.557   6.649  14.067 -0.1962 -0.0955 -0.0057
19482TIP3    H179861   1.583   6.741  14.063  1.4698 -0.5655 -1.9556
19482TIP3    H279862   1.470   6.646  14.027 -0.7323  0.7401  1.0535
19483TIP3   OH279863   3.017   1.240  13.106 -0.0167 -0.2453  0.0261
19483TIP3    H179864   3.088   1.183  13.076  0.7639 -0.0933  1.4529
19483TIP3    H279865   3.062   1.317  13.140 -1.0518  1.3433 -1.9899
19484TIP3   OH279866   4.741   4.823  16.498  0.2723  0.5923  0.2902
19484TIP3    H179867   4.691   4.742  16.507  1.4818 -0.1912  0.0448
19484TIP3    H279868   4.789   4.830  16.581  0.1390  1.0973  0.3308
19485TIP3   OH279869   1.135   6.785   4.148 -0.2663  0.8594  0.1387
19485TIP3    H179870   1.148   6.766   4.241 -0.5171  2.3919  0.5227
19485TIP3    H279871   1.047   6.752   4.129  0.4955 -1.1846 -0.0820
19486TIP3   OH279872   6.626   5.106  13.721  0.2575 -0.0630 -0.2667
19486TIP3    H179873   6.685   5.175  13.751 -1.4450  1.4175 -0.1738
19486TIP3    H279874   6.548   5.115  13.776 -1.2906  0.0231 -2.3485
19487TIP3   OH279875   5.068   5.392  12.836 -0.2756 -0.4547 -0.1720
19487TIP3    H179876   5.008   5.410  12.909  0.1841 -0.8346  0.3133
19487TIP3    H279877   5.014   5.398  12.758 -0.5952  0.8699  0.1197
19488TIP3   OH279878   5.029   4.269  14.664  0.1521 -0.0559  0.0404
19488TIP3    H179879   5.116   4.306  14.655  0.1473  0.3501  1.4186
19488TIP3    H279880   4.978   4.309  14.594  1.0534 -0.3163 -0.7967
19489TIP3   OH279881   4.732   3.701  15.875 -0.3236  0.1214 -0.1894
19489TIP3    H179882   4.757   3.791  15.853  1.4897 -0.4444 -0.6660
19489TIP3    H279883   4.652   3.710  15.926 -0.6868  1.9429 -0.9965
19490TIP3   OH279884   1.650   3.163  16.232  0.1919 -0.1930 -0.1798
19490TIP3    H179885   1.562   3.141  16.263  0.1356  1.1352  0.6560
19490TIP3    H279886   1.709   3.121  16.295  0.1187  0.4053  0.2935
19491TIP3   OH279887   3.997   1.071  11.398  0.2860 -0.3105 -0.2860
19491TIP3    H179888   4.083   1.083  11.438 -0.6373  1.3457  1.3254
19491TIP3    H279889   4.000   1.127  11.320  0.6710 -0.2965 -0.2656
19492TIP3   OH279890   4.493   6.327   2.428 -0.2034  0.1253  0.0659
19492TIP3    H179891   4.465   6.379   2.503 -0.9239  0.0520 -0.1502
19492TIP3    H279892   4.437   6.356   2.356  0.5335  0.2512 -0.4672
19493TIP3   OH279893   5.536   2.990   3.772  0.0796  0.2413 -0.1021
19493TIP3    H179894   5.456   2.954   3.811  0.8974  0.0816  1.5204
19493TIP3    H279895   5.573   2.916   3.723 -1.4746  0.7232 -2.1388
19494TIP3   OH279896   3.151   6.555   4.958  0.8815 -0.0506  0.2008
19494TIP3    H179897   3.097   6.480   4.984  1.7192 -0.3788  1.0861
19494TIP3    H279898   3.212   6.566   5.031  0.0306  2.2507  0.6532
19495TIP3   OH279899   4.523   2.214  11.830  0.2066 -0.0764  0.5816
19495TIP3    H179900   4.564   2.160  11.898 -1.0069  0.1666  1.5602
19495TIP3    H279901   4.501   2.153  11.761  0.4911 -0.5215  0.8778
19496TIP3   OH279902   1.540   3.335  14.436  0.5982  0.0478  0.5987
19496TIP3    H179903   1.524   3.329  14.530 -1.3827  0.6894  0.3510
19496TIP3    H279904   1.484   3.268  14.397  0.2534  0.7875 -0.2140
19497TIP3   OH279905   6.035   6.665   0.734 -0.3460 -0.1726 -0.2709
19497TIP3    H179906   6.117   6.714   0.732  0.6670 -1.7743  0.0452
19497TIP3    H279907   6.023   6.634   0.644 -0.9572  0.5558 -0.4579
19498TIP3   OH279908   3.991   2.781   0.687 -0.1328  0.3065 -0.2811
19498TIP3    H179909   4.063   2.718   0.692 -1.7958 -1.7249 -0.1523
19498TIP3    H279910   4.021   2.847   0.625  2.0751 -0.1041  0.2783
19499TIP3   OH279911   5.313   3.493  14.844  0.0542 -0.5408 -0.2386
19499TIP3    H179912   5.344   3.402  14.853 -0.3988 -0.5277  2.5783
19499TIP3    H279913   5.383   3.546  14.883  0.3019  0.3728 -1.8324
19500TIP3   OH279914   1.770   5.580  14.723 -0.3536 -0.7049  0.1533
19500TIP3    H179915   1.754   5.669  14.692  0.4538 -0.4817  0.3801
19500TIP3    H279916   1.845   5.550  14.672  0.5328 -0.5993  1.3842
19501TIP3   OH279917   1.552   6.291  16.661  0.1165 -0.0511 -0.0678
19501TIP3    H179918   1.538   6.299  16.566  0.2612 -0.5485 -0.1384
19501TIP3    H279919   1.641   6.255  16.668  0.3165  0.5067  0.2782
19502TIP3   OH279920   5.600   5.803   3.475  0.6499 -0.0370  0.3207
19502TIP3    H179921   5.682   5.753   3.480  0.9653  0.2944 -1.2328
19502TIP3    H279922   5.541   5.758   3.536  1.6971 -0.8131  0.7894
19503TIP3   OH279923   2.346   4.309   5.828  0.3239 -0.4820 -0.1444
19503TIP3    H179924   2.428   4.359   5.825  0.5673 -0.8085  0.7127
19503TIP3    H279925   2.305   4.335   5.911 -1.0028  0.5188 -1.0713
19504TIP3   OH279926   6.726   1.039  13.023 -0.2086  0.0729 -0.1427
19504TIP3    H179927   6.742   1.008  13.112  0.6290  0.8281 -0.0110
19504TIP3    H279928   6.690   1.127  13.034  0.1253  0.2647 -0.5534
19505TIP3   OH279929   5.732   2.602  14.557  0.1018 -0.1739  0.0685
19505TIP3    H179930   5.707   2.593  14.649  2.5822  0.3467  0.8868
19505TIP3    H279931   5.693   2.685  14.529  1.1683  0.8358  1.4033
19506TIP3   OH279932   0.800   0.487  13.888  0.4070 -0.0725  0.4098
19506TIP3    H179933   0.812   0.487  13.983  1.5891 -2.5138  0.3549
19506TIP3    H279934   0.870   0.430  13.855  2.0066  3.1272 -2.2848
19507TIP3   OH279935   0.986   1.669  16.789  0.0144  0.1598  0.7764
19507TIP3    H179936   0.897   1.657  16.822 -1.5890  0.0235 -3.0861
19507TIP3    H279937   1.036   1.597  16.828 -1.9067 -0.6053  1.9322
19508TIP3   OH279938   5.853   0.717  16.917 -0.1361  0.1813 -0.4177
19508TIP3    H179939   5.886   0.765  16.993  1.8567 -0.4976 -0.7857
19508TIP3    H279940   5.835   0.629  16.950  0.5288 -0.0543 -0.6592
19509TIP3   OH279941   0.725   4.813  16.135  0.3555  0.5340 -0.1689
19509TIP3    H179942   0.670   4.872  16.186  0.8711 -1.2180  2.6502
19509TIP3    H279943   0.666   4.774  16.071 -1.8079 -1.2253  2.6785
19510TIP3   OH279944   5.501   6.491   3.964  0.4449  0.3314 -0.3067
19510TIP3    H179945   5.564   6.434   3.920  1.8788  1.5509  0.0992
19510TIP3    H279946   5.520   6.482   4.057 -1.4608 -0.9356  0.0218
19511TIP3   OH279947   0.738   1.872  15.843  0.6485  0.6252 -0.3246
19511TIP3    H179948   0.752   1.792  15.895  1.0665  2.0203  1.8589
19511TIP3    H279949   0.767   1.849  15.755  0.7429 -1.6224  0.2321
19512TIP3   OH279950   3.302   2.850  11.243 -0.1679  0.0453  0.1076
19512TIP3    H179951   3.262   2.869  11.158 -0.6125 -1.0237  0.0541
19512TIP3    H279952   3.295   2.755  11.251  2.9823 -0.3144 -0.2073
19513TIP3   OH279953   1.744   6.544   5.333  0.3629 -0.3594  0.6672
19513TIP3    H179954   1.704   6.460   5.307  0.4635 -0.3379  0.4427
19513TIP3    H279955   1.747   6.540   5.429 -0.0311 -0.4301  0.6792
19514TIP3   OH279956   3.126   6.161   2.252  0.4740  0.2660  0.1959
19514TIP3    H179957   3.149   6.117   2.334 -0.8662 -0.0227  0.4443
19514TIP3    H279958   3.124   6.254   2.274 -0.3357  0.1567  0.6268
19515TIP3   OH279959   2.192   5.783  13.343  0.4225  0.0659  0.6604
19515TIP3    H179960   2.196   5.700  13.390  1.2707  0.0858  0.6456
19515TIP3    H279961   2.195   5.757  13.250 -1.7644 -0.0039  0.5588
19516TIP3   OH279962   6.660   4.954   5.727 -0.0700  0.1930  0.0836
19516TIP3    H179963   6.628   5.043   5.739 -1.1002 -0.2129  0.4325
19516TIP3    H279964   6.658   4.941   5.632 -1.5745 -0.0300  0.1172
19517TIP3   OH279965   2.758   2.649   6.882 -0.0549 -0.1905 -0.0597
19517TIP3    H179966   2.841   2.617   6.917  0.0685  0.0599 -0.1191
19517TIP3    H279967   2.760   2.626   6.789 -1.2854 -2.7374  0.4674
19518TIP3   OH279968   1.219   1.228   2.633 -0.5471  0.3218  0.4974
19518TIP3    H179969   1.189   1.142   2.659 -0.5223  0.3907  0.7646
19518TIP3    H279970   1.300   1.241   2.683 -1.6102  1.3355  2.0572
19519TIP3   OH279971   6.704   0.937  15.822  0.0390  0.1158 -0.0173
19519TIP3    H179972   6.735   0.972  15.738  1.2587 -0.6689  0.0818
19519TIP3    H279973   6.651   0.861  15.798  0.3904 -0.1111 -0.0857
19520TIP3   OH279974   2.197   0.734  16.698 -0.0874  0.3080  0.5617
19520TIP3    H179975   2.224   0.764  16.785  0.9702 -1.2866  0.8130
19520TIP3    H279976   2.245   0.653  16.684 -3.2586 -1.6851  0.1937
19521TIP3   OH279977   5.251   5.300  12.170 -0.0431 -0.2278  0.0668
19521TIP3    H179978   5.201   5.219  12.175 -1.8514  0.8919  0.9647
19521TIP3    H279979   5.220   5.343  12.091 -0.7660  0.6307  0.8060
19522TIP3   OH279980   0.655   6.048   4.921 -0.3655  0.2723 -0.4522
19522TIP3    H179981   0.619   6.122   4.872 -0.9830  1.4764  1.7048
19522TIP3    H279982   0.578   5.998   4.949 -0.0436 -0.1352 -0.2776
19523TIP3   OH279983   6.153   4.873  15.654  0.6150  0.0368 -0.3131
19523TIP3    H179984   6.199   4.791  15.639 -1.3861 -1.3079  0.4473
19523TIP3    H279985   6.217   4.930  15.697  2.1426 -0.9767 -1.1624
19524TIP3   OH279986   3.342   3.459   3.893  0.0753 -0.1745 -0.1145
19524TIP3    H179987   3.407   3.399   3.856 -1.9918 -1.9520 -1.0530
19524TIP3    H279988   3.279   3.473   3.823 -2.1367 -0.9169  1.5824
19525TIP3   OH279989   2.483   3.685  14.241  0.1342 -0.7173  0.3855
19525TIP3    H179990   2.425   3.673  14.165 -1.8941 -0.3687  1.7886
19525TIP3    H279991   2.451   3.766  14.282  0.5535 -1.3944  2.1219
19526TIP3   OH279992   2.830   0.095  12.419  0.6601 -0.3617 -0.3036
19526TIP3    H179993   2.910   0.106  12.471 -0.6189 -0.7156  1.9026
19526TIP3    H279994   2.798   0.008  12.443  0.1209 -0.6309 -1.9150
19527TIP3   OH279995   3.168   1.035   6.083 -0.2595  0.2484 -0.1127
19527TIP3    H179996   3.247   1.081   6.111 -0.5002 -0.7732  2.6043
19527TIP3    H279997   3.097   1.080   6.130 -0.9064 -0.6784 -0.1809
19528TIP3   OH279998   2.174   6.638  15.010  0.3560 -0.2958  0.2958
19528TIP3    H179999   2.160   6.675  15.097 -2.1007  1.0011 -0.5421
19528TIP3    H280000   2.263   6.665  14.986  0.3427  1.0352  1.6006
19529TIP3   OH280001   0.988   6.803  12.872  0.4784 -0.5833  0.7689
19529TIP3    H180002   0.943   6.888  12.876 -1.0517 -1.3435  0.5279
19529TIP3    H280003   1.055   6.815  12.804 -2.0372 -0.5298 -1.9109
19530TIP3   OH280004   6.200   3.307  15.942  0.0867  0.8478 -0.2315
19530TIP3    H180005   6.205   3.278  16.033 -0.0644  3.1808  0.5989
19530TIP3    H280006   6.138   3.248  15.900  3.7828 -3.5433 -0.2900
19531TIP3   OH280007   3.160   6.204  11.261  0.0004  0.0057  0.6270
19531TIP3    H180008   3.214   6.137  11.219  0.8052  1.1608 -0.2338
19531TIP3    H280009   3.096   6.154  11.312  0.0836 -1.4329 -0.5968
19532TIP3   OH280010   1.504   5.763  11.362  0.1579  0.1540 -0.2022
19532TIP3    H180011   1.539   5.850  11.342  1.8712 -0.4266  0.1131
19532TIP3    H280012   1.527   5.711  11.285 -1.0169  0.0008 -0.4631
19533TIP3   OH280013   4.087   3.510  14.688  0.1131 -0.3350  0.1331
19533TIP3    H180014   3.993   3.521  14.670  0.6467 -0.3783 -3.1427
19533TIP3    H280015   4.098   3.546  14.776 -2.6519  1.4473 -0.1230
19534TIP3   OH280016   5.236   0.323  13.357  0.3872 -0.0544  0.1081
19534TIP3    H180017   5.268   0.280  13.437 -1.2998 -1.7187 -0.0203
19534TIP3    H280018   5.199   0.406  13.388 -1.1996 -1.1304  1.2987
19535TIP3   OH280019   5.062   1.644  13.057  0.3042  0.2117 -0.3001
19535TIP3    H180020   5.138   1.591  13.032  0.7413  1.5377 -1.9239
19535TIP3    H280021   5.038   1.691  12.977 -0.8193  1.5471  0.7724
19536TIP3   OH280022   2.693   6.242   0.171  0.0692 -0.2347 -0.2828
19536TIP3    H180023   2.761   6.219   0.108  0.2187  1.0244 -0.6041
19536TIP3    H280024   2.698   6.173   0.237  1.6978 -0.1652 -0.2778
19537TIP3   OH280025   1.273   0.550  16.360 -0.3333 -0.1116  0.0274
19537TIP3    H180026   1.230   0.470  16.391  1.5334 -1.6752 -1.1358
19537TIP3    H280027   1.211   0.588  16.298 -1.6463 -0.0825  1.2800
19538TIP3   OH280028   1.331   6.382   2.388  0.4554 -0.1151  0.1142
19538TIP3    H180029   1.246   6.395   2.430  1.3201  2.1711  1.3131
19538TIP3    H280030   1.372   6.313   2.441 -0.0256 -0.1073  0.5142
19539TIP3   OH280031   6.097   1.452   3.266 -0.8322 -0.3398  0.2241
19539TIP3    H180032   6.011   1.465   3.225 -1.7977 -0.8174  2.0092
19539TIP3    H280033   6.078   1.437   3.358  0.9584 -3.4891  0.1996
19540TIP3   OH280034   3.097   6.467   0.297  1.0597  0.1635  0.2578
19540TIP3    H180035   3.179   6.432   0.333  0.2999  0.4762  2.4707
19540TIP3    H280036   3.068   6.530   0.363 -1.8418 -1.1970  0.4272
19541TIP3   OH280037   1.110   0.484  15.119 -0.2630  0.3446  0.0944
19541TIP3    H180038   1.067   0.529  15.047  1.4343  2.5483  0.3638
19541TIP3    H280039   1.041   0.473  15.185 -1.1674  0.8166 -0.7499
19542TIP3   OH280040   4.158   5.685   5.590 -0.4739 -0.0976  0.5451
19542TIP3    H180041   4.221   5.698   5.661 -1.0318  0.7431  0.8968
19542TIP3    H280042   4.170   5.762   5.533 -1.0083 -0.0592  0.4816
19543TIP3   OH280043   4.437   3.145  13.537  0.0722  0.3975  0.0771
19543TIP3    H180044   4.388   3.081  13.589  1.5358 -0.6554  0.2110
19543TIP3    H280045   4.475   3.204  13.602  1.7395 -0.8035  0.2665
19544TIP3   OH280046   4.522   0.769   2.879 -0.1782 -0.7236 -0.4539
19544TIP3    H180047   4.607   0.738   2.910  2.0350  1.3008 -3.8483
19544TIP3    H280048   4.479   0.692   2.843  0.7718 -1.5607  0.1681
19545TIP3   OH280049   6.248   3.109   5.854  0.2737  0.0722 -0.1827
19545TIP3    H180050   6.250   3.189   5.908 -1.1166 -0.7433  1.1855
19545TIP3    H280051   6.284   3.136   5.770 -0.4408  2.2282  0.1295
19546TIP3   OH280052   1.738   1.931  13.036 -0.0816  0.0022  0.2147
19546TIP3    H180053   1.654   1.902  13.072 -0.8301  2.3224  0.5157
19546TIP3    H280054   1.723   1.936  12.942 -0.2383  0.2764  0.2539
19547TIP3   OH280055   0.729   1.889  10.596  0.1131 -0.1824 -0.8804
19547TIP3    H180056   0.637   1.871  10.619  0.3597  0.1341  0.4676
19547TIP3    H280057   0.729   1.980  10.569  0.0288 -0.1839 -0.8880
19548TIP3   OH280058   4.912   2.875  14.012 -0.1126 -0.0255 -0.0133
19548TIP3    H180059   5.007   2.875  14.002 -0.1955 -0.0515 -0.9236
19548TIP3    H280060   4.880   2.916  13.932 -0.9293 -1.5474 -0.5200
19549TIP3   OH280061   4.235   0.283   5.912  0.6213  0.1589  0.9033
19549TIP3    H180062   4.226   0.208   5.852  1.4349 -0.0205  0.9895
19549TIP3    H280063   4.184   0.353   5.870  0.5256 -0.2010  0.4017
19550TIP3   OH280064   5.966   6.384   3.085 -0.2260  0.0736 -0.5927
19550TIP3    H180065   5.984   6.460   3.141 -0.2085  0.2982 -0.9014
19550TIP3    H280066   5.966   6.310   3.145  1.5454  0.0801 -0.5310
19551TIP3   OH280067   3.059   3.899  13.910  0.2098  0.8146 -0.0702
19551TIP3    H180068   3.005   3.921  13.986 -1.2111  0.6760 -0.9918
19551TIP3    H280069   3.053   3.975  13.852  0.6236  0.6138 -0.3860
19552TIP3   OH280070   0.127   2.859   1.354 -0.0378 -0.4986 -0.2798
19552TIP3    H180071   0.099   2.928   1.294  1.2347 -0.8663 -1.3383
19552TIP3    H280072   0.135   2.781   1.299 -0.0740 -1.1528  0.6170
19553TIP3   OH280073   3.686   3.721  15.664  0.0629 -0.1865 -0.8203
19553TIP3    H180074   3.712   3.659  15.732  0.2112  1.0131  0.2488
19553TIP3    H280075   3.681   3.806  15.709  0.1039  0.6300 -2.2928
19554TIP3   OH280076   0.465   0.433   3.920  0.8358  0.0829  0.0853
19554TIP3    H180077   0.479   0.339   3.935 -0.3835 -0.1439 -0.1095
19554TIP3    H280078   0.553   0.467   3.902  1.3502 -0.9439  0.5388
19555TIP3   OH280079   2.932   4.523  17.006  0.6064 -0.3114 -0.1635
19555TIP3    H180080   2.979   4.581  16.947  1.2740  2.1717  2.5618
19555TIP3    H280081   2.844   4.560  17.010  1.0085  0.5531  1.5233
19556TIP3   OH280082   5.958   0.306   0.433  0.2024 -0.2054  0.4173
19556TIP3    H180083   5.905   0.354   0.369 -0.7724 -0.8420  0.7217
19556TIP3    H280084   5.960   0.362   0.510 -1.6743 -0.9720  1.0864
19557TIP3   OH280085   2.562   5.816  14.773  0.3972 -0.0132  0.2631
19557TIP3    H180086   2.571   5.722  14.790  2.1979 -0.1152 -0.9152
19557TIP3    H280087   2.613   5.858  14.843  1.7586 -0.0821 -0.6442
19558TIP3   OH280088   4.134   6.662  12.464 -0.2524 -0.0139 -0.0883
19558TIP3    H180089   4.114   6.600  12.534 -0.4750  1.3947  1.1485
19558TIP3    H280090   4.144   6.746  12.509  0.4752  0.7739 -1.6554
19559TIP3   OH280091   4.309   3.580   2.288  0.0411 -0.2923  0.5149
19559TIP3    H180092   4.251   3.649   2.255 -0.5832 -1.2721 -0.5031
19559TIP3    H280093   4.397   3.614   2.273 -0.2611  0.2917  0.0214
19560TIP3   OH280094   6.150   4.495  15.711 -0.4144 -0.3383  0.3747
19560TIP3    H180095   6.201   4.446  15.775  1.0129 -0.3846 -0.7412
19560TIP3    H280096   6.105   4.428  15.660  1.1500 -0.5276 -0.8339
19561TIP3   OH280097   2.449   4.594   3.332 -0.1326 -0.2210  0.1406
19561TIP3    H180098   2.367   4.596   3.282 -0.0791  1.3201  0.0613
19561TIP3    H280099   2.425   4.558   3.417 -1.3456  2.0613  0.8316
19562TIP3   OH280100   5.169   6.173   0.974 -0.2718 -0.0769  0.5729
19562TIP3    H180101   5.143   6.254   1.017  2.4468  1.0367  0.2992
19562TIP3    H280102   5.175   6.196   0.881 -0.1744 -0.7767  0.4012
19563TIP3   OH280103   5.437   0.476  17.042 -0.1198  0.1051  0.5303
19563TIP3    H180104   5.354   0.432  17.025  1.0491 -0.8971 -3.5594
19563TIP3    H280105   5.423   0.566  17.014  0.8156 -0.7472 -3.2024
19564TIP3   OH280106   4.937   4.368  13.771 -0.2925  0.6834 -0.2439
19564TIP3    H180107   4.894   4.300  13.823 -1.1315  0.2145 -1.4940
19564TIP3    H280108   4.895   4.449  13.799  0.0228  0.5887  0.5517
19565TIP3   OH280109   4.033   2.102   1.398 -0.1853 -0.0639  0.4533
19565TIP3    H180110   3.942   2.077   1.415  0.0887 -0.4561  1.4035
19565TIP3    H280111   4.082   2.020   1.405 -0.0225 -0.3090 -2.3646
19566TIP3   OH280112   1.617   2.188  12.407 -0.6426 -0.2323  0.6443
19566TIP3    H180113   1.540   2.172  12.352 -1.5220  4.7087 -0.0187
19566TIP3    H280114   1.582   2.189  12.497 -0.6729 -1.0488  0.6510
19567TIP3   OH280115   5.385   5.774   2.309  0.6865  0.2180 -0.1398
19567TIP3    H180116   5.357   5.829   2.382  2.3800 -1.9553  2.3085
19567TIP3    H280117   5.453   5.825   2.265 -0.2323  1.4840 -0.1564
19568TIP3   OH280118   1.231   6.407   1.330  0.1737 -0.0502  0.6720
19568TIP3    H180119   1.224   6.481   1.270  1.5037  0.5601  1.2193
19568TIP3    H280120   1.302   6.353   1.293 -0.0630 -0.4953  0.8558
19569TIP3   OH280121   6.540   3.247  13.041  0.1577  0.7539 -0.3749
19569TIP3    H180122   6.451   3.260  13.009 -0.1123  2.4297  0.9302
19569TIP3    H280123   6.539   3.160  13.081 -1.1965  1.1543  0.5309
19570TIP3   OH280124   0.415   1.364  15.601  0.1362  0.0637  0.2109
19570TIP3    H180125   0.339   1.378  15.656  0.7294  0.2548  1.0047
19570TIP3    H280126   0.459   1.449  15.597  0.0400  0.0837 -0.6611
19571TIP3   OH280127   3.541   4.292  12.691  0.3475 -0.0972  0.6391
19571TIP3    H180128   3.451   4.258  12.691  0.1766  0.3440  0.2771
19571TIP3    H280129   3.596   4.214  12.676  0.0839 -0.4931  1.6641
19572TIP3   OH280130   1.090   0.575  13.879 -0.2602 -0.5014  0.0110
19572TIP3    H180131   1.130   0.641  13.823  0.1193 -0.5012  0.2790
19572TIP3    H280132   0.998   0.601  13.887 -0.3507 -0.5783 -0.7228
19573TIP3   OH280133   5.298   3.073   1.957  0.0476 -0.5304 -0.3143
19573TIP3    H180134   5.375   3.017   1.966  0.0322 -0.5509 -0.3107
19573TIP3    H280135   5.303   3.108   1.868  1.6044  1.7494  0.5674
19574TIP3   OH280136   4.421   4.402   6.240 -0.6921  0.6957  0.4583
19574TIP3    H180137   4.439   4.321   6.193 -0.8698  0.5187  0.6914
19574TIP3    H280138   4.504   4.448   6.242 -0.1808 -0.2290  1.7563
19575TIP3   OH280139   1.281   6.505   0.529  0.2337  0.5432 -0.0371
19575TIP3    H180140   1.353   6.545   0.577 -0.8383  1.0803  1.1869
19575TIP3    H280141   1.226   6.579   0.501 -1.2457  0.0534  1.3963
19576TIP3   OH280142   3.153   6.053   3.648 -0.7748 -1.0630 -0.3195
19576TIP3    H180143   3.119   6.044   3.737  0.7892  1.5606  0.6468
19576TIP3    H280144   3.224   5.989   3.643 -1.1312 -1.5042  0.1669
19577TIP3   OH280145   5.135   5.681  12.814 -0.2938  0.3709  0.0530
19577TIP3    H180146   5.140   5.692  12.909 -1.3045 -0.9347  0.2810
19577TIP3    H280147   5.123   5.587  12.801  0.6606  0.4164 -1.4192
19578TIP3   OH280148   0.052   1.237  16.107  0.2356 -0.1781 -0.4503
19578TIP3    H180149   0.090   1.151  16.086  2.3313  0.0841  1.7840
19578TIP3    H280150  -0.042   1.224  16.098  0.4709 -2.7952 -0.0403
19579TIP3   OH280151   4.223   5.860  11.032  0.3792  0.1143  0.4207
19579TIP3    H180152   4.179   5.898  10.956 -0.3205  2.5450  1.9270
19579TIP3    H280153   4.300   5.815  10.996 -0.0638  0.9808 -1.7168
19580TIP3   OH280154   0.585   3.072  14.449 -0.2719 -0.0075 -0.1602
19580TIP3    H180155   0.562   3.153  14.496 -1.2363  0.6530 -1.6957
19580TIP3    H280156   0.680   3.078  14.438  0.0654 -0.3893  2.0034
19581TIP3   OH280157   4.981   2.076  11.894  0.0368 -0.7508 -0.6768
19581TIP3    H180158   4.980   2.071  11.990 -0.4687 -0.1268 -0.6441
19581TIP3    H280159   5.068   2.110  11.873  0.5620 -1.9513 -0.5069
19582TIP3   OH280160   6.166   0.258   6.510  0.0346  0.2720 -0.6861
19582TIP3    H180161   6.157   0.183   6.568 -2.4973 -0.8952 -2.3916
19582TIP3    H280162   6.116   0.328   6.552 -0.3190 -0.0296 -0.5957
19583TIP3   OH280163   2.716   2.438  14.444  0.5013 -0.5933 -0.2640
19583TIP3    H180164   2.728   2.434  14.539  1.0234  0.0492 -0.2938
19583TIP3    H280165   2.801   2.414  14.408  0.2453 -1.0365 -0.5712
19584TIP3   OH280166   4.657   0.898  11.692 -0.8876  0.0132  0.0279
19584TIP3    H180167   4.609   0.871  11.614 -1.9533  0.1028  0.6286
19584TIP3    H280168   4.700   0.819  11.723  0.6841  0.2405 -1.3794
19585TIP3   OH280169   1.479   5.480   4.787 -0.0295  0.0710  0.6697
19585TIP3    H180170   1.430   5.514   4.713  0.2699  0.2097  0.5350
19585TIP3    H280171   1.441   5.524   4.863  1.0985  1.6074  0.4072
19586TIP3   OH280172   6.459   0.190  17.063  0.2007 -0.1141 -0.0955
19586TIP3    H180173   6.463   0.278  17.024 -0.0478 -1.0090 -2.2789
19586TIP3    H280174   6.537   0.146  17.030  1.2559 -0.2480  2.3635
19587TIP3   OH280175   4.258   0.290   3.492  0.6792  1.0095 -0.0458
19587TIP3    H180176   4.319   0.350   3.536 -0.7055  3.7975 -1.6477
19587TIP3    H280177   4.173   0.309   3.531  0.3382 -0.8036  0.1899
19588TIP3   OH280178   6.651   5.332  16.422 -0.1290 -0.0703 -0.4406
19588TIP3    H180179   6.625   5.400  16.360  0.5318 -0.6994 -1.4445
19588TIP3    H280180   6.742   5.353  16.445  0.5843 -1.3470 -1.8642
19589TIP3   OH280181   6.234   0.632   1.791 -0.6859  0.2486 -0.1686
19589TIP3    H180182   6.177   0.621   1.868  0.5098  0.4879  0.7796
19589TIP3    H280183   6.181   0.601   1.718 -2.6399  1.9991  0.4280
19590TIP3   OH280184   4.249   6.786  15.021  0.4056 -0.3289 -0.3400
19590TIP3    H180185   4.187   6.838  14.970 -0.1799  0.2792  0.9228
19590TIP3    H280186   4.326   6.778  14.965  0.0839  0.9592 -1.0046
19591TIP3   OH280187   1.251   5.385  16.351 -0.0443 -0.5043  0.0204
19591TIP3    H180188   1.255   5.458  16.290 -0.6824 -0.8620 -0.4570
19591TIP3    H280189   1.276   5.423  16.435 -0.8534  0.3834 -0.1224
19592TIP3   OH280190   5.319   4.801  10.438 -0.3066  0.2630  0.4689
19592TIP3    H180191   5.384   4.781  10.371 -1.4651 -1.8012 -0.1044
19592TIP3    H280192   5.280   4.884  10.410 -1.4415 -1.0148 -2.0092
19593TIP3   OH280193   5.265   5.208   1.540 -0.0966 -0.0432 -0.4426
19593TIP3    H180194   5.260   5.286   1.485  0.5202 -1.1089 -2.0877
19593TIP3    H280195   5.183   5.162   1.524 -0.9028  0.6943  1.2878
19594TIP3   OH280196   5.652   0.654   3.482  0.6408  0.9587  0.4346
19594TIP3    H180197   5.713   0.680   3.552 -2.2237  0.3439  3.3931
19594TIP3    H280198   5.592   0.728   3.474 -0.7609 -0.1161  0.7112
19595TIP3   OH280199   0.625   3.201  16.179 -0.3556 -0.5527 -0.4969
19595TIP3    H180200   0.584   3.124  16.219 -0.1540 -0.3086  0.1842
19595TIP3    H280201   0.553   3.247  16.136 -0.7406 -0.3281  0.3702
19596TIP3   OH280202   4.323   6.412  13.005  0.1191 -0.3037 -0.8164
19596TIP3    H180203   4.228   6.418  13.015  0.1877 -0.5563  0.1753
19596TIP3    H280204   4.343   6.460  12.925 -0.5406  2.2876  0.4744
19597TIP3   OH280205   2.013   6.050   2.138  0.5396  0.0878 -0.3774
19597TIP3    H180206   1.920   6.031   2.139  0.0137  2.0756 -2.3828
19597TIP3    H280207   2.028   6.104   2.216 -0.6900  2.3122 -1.5978
19598TIP3   OH280208   4.593   0.561  12.548  0.4092  0.4601  0.3324
19598TIP3    H180209   4.620   0.582  12.638  2.2332  0.7270 -0.2353
19598TIP3    H280210   4.507   0.603  12.538 -0.8416 -1.3250  2.5902
19599TIP3   OH280211   4.106   4.196  10.623  0.3671 -0.0151 -0.5211
19599TIP3    H180212   4.119   4.198  10.528 -0.9985 -0.2084 -0.7470
19599TIP3    H280213   4.133   4.282  10.653  0.2606  0.2514 -1.1758
19600TIP3   OH280214   3.453   4.720   6.221 -0.3584 -0.2083  0.5198
19600TIP3    H180215   3.468   4.634   6.262 -1.3895 -0.1254  1.0927
19600TIP3    H280216   3.381   4.705   6.160 -1.6652  0.5959  1.8146
19601TIP3   OH280217   4.732   2.601   2.808  0.2601  0.7037 -1.0438
19601TIP3    H180218   4.773   2.645   2.882  0.1730  0.3812 -0.8030
19601TIP3    H280219   4.653   2.561   2.844  0.3871  0.2683 -1.2366
19602TIP3   OH280220   1.993   6.784   6.647 -0.1939 -0.2357 -0.1030
19602TIP3    H180221   1.919   6.792   6.707  0.5259 -1.4050  0.9963
19602TIP3    H280222   2.052   6.855   6.671 -0.4328  0.0007 -0.2130
19603TIP3   OH280223   4.098   5.716   0.254  0.0309 -0.1549 -0.0335
19603TIP3    H180224   4.150   5.685   0.328 -0.1404  0.4967  0.3701
19603TIP3    H280225   4.087   5.810   0.270 -0.9122 -0.2034 -0.3321
19604TIP3   OH280226   4.847   6.054  14.775 -0.5487 -0.3071  0.1210
19604TIP3    H180227   4.858   6.148  14.785 -2.1423 -0.0008 -0.6350
19604TIP3    H280228   4.867   6.036  14.684 -1.1990 -0.5191  0.0094
19605TIP3   OH280229   0.716   5.557   5.573  0.7580 -0.3024 -0.2870
19605TIP3    H180230   0.773   5.492   5.614  0.1876  0.2583  1.4921
19605TIP3    H280231   0.685   5.515   5.493  1.2366 -1.8025  0.2788
19606TIP3   OH280232   0.266   0.580   5.858  0.0428 -0.1489 -0.2720
19606TIP3    H180233   0.320   0.625   5.924  0.6958 -0.6947 -0.4187
19606TIP3    H280234   0.234   0.502   5.903  0.8034 -0.7226 -0.7043
19607TIP3   OH280235   4.579   2.608  13.607  0.1349  0.5542  0.3422
19607TIP3    H180236   4.596   2.567  13.692  0.8910 -1.2328 -0.6028
19607TIP3    H280237   4.533   2.541  13.556 -0.8093  1.7880 -0.4967
19608TIP3   OH280238   6.451   6.099  10.844 -0.5799 -0.1652  0.0977
19608TIP3    H180239   6.358   6.087  10.827 -0.9027  2.7012 -0.6644
19608TIP3    H280240   6.455   6.176  10.901  1.3227 -0.6810  0.7543
19609TIP3   OH280241   4.222   6.794  10.774 -0.4356 -0.7439 -0.5518
19609TIP3    H180242   4.127   6.806  10.777 -0.3921 -0.6372  0.9972
19609TIP3    H280243   4.247   6.822  10.686 -1.6611  0.5470 -0.5144
19610TIP3   OH280244   6.086   4.022  15.784  0.0869  0.5023  0.4172
19610TIP3    H180245   5.991   4.023  15.789  0.1051  1.0587  0.7595
19610TIP3    H280246   6.106   3.987  15.697 -0.3916 -1.8853  1.1836
19611TIP3   OH280247   5.465   3.566  15.972  0.3147 -0.3022 -0.1768
19611TIP3    H180248   5.418   3.526  15.900  0.6873  0.3486 -0.8038
19611TIP3    H280249   5.472   3.659  15.948  3.9156 -0.6881 -1.3025
19612TIP3   OH280250   1.494   3.185  12.571 -0.0540 -0.6702  1.3818
19612TIP3    H180251   1.497   3.092  12.593 -0.5084 -0.8740  0.6334
19612TIP3    H280252   1.404   3.211  12.587 -0.2077 -0.6433  0.5254
19613TIP3   OH280253   5.468   2.739  10.607 -0.1086 -0.4251 -0.3356
19613TIP3    H180254   5.522   2.721  10.685  0.2369  0.8871 -0.2611
19613TIP3    H280255   5.385   2.771  10.642 -0.9813 -2.3749 -0.4547
19614TIP3   OH280256   0.229   0.251   3.428 -0.4942 -0.0220  0.0125
19614TIP3    H180257   0.240   0.343   3.449  0.6660 -0.4079  1.2799
19614TIP3    H280258   0.317   0.214   3.436 -1.1066 -1.4265  0.5661
19615TIP3   OH280259   6.546   4.269   1.790  0.4152 -0.6237  0.0265
19615TIP3    H180260   6.458   4.303   1.808  0.0056 -1.7996  0.3234
19615TIP3    H280261   6.549   4.185   1.835  1.0391 -1.4576 -1.5014
19616TIP3   OH280262   4.303   2.865  13.320 -0.1937  0.0844 -0.2817
19616TIP3    H180263   4.253   2.946  13.327 -1.0338 -0.1706 -2.4303
19616TIP3    H280264   4.259   2.804  13.379  1.4250  1.5323  2.6361
19617TIP3   OH280265   4.365   4.984   1.042  0.6930  0.3524  0.2567
19617TIP3    H180266   4.359   4.889   1.048 -1.6286  0.3535 -1.0311
19617TIP3    H280267   4.421   5.009   1.116 -0.4915 -1.8360  2.0182
19618TIP3   OH280268   3.452   1.065   4.179 -0.3530  0.1737  0.2148
19618TIP3    H180269   3.440   1.061   4.084 -0.0814 -0.0334  0.1868
19618TIP3    H280270   3.543   1.037   4.193 -0.0815  1.1433  0.4643
19619TIP3   OH280271   6.744   6.772   5.336  0.3202  0.0890 -0.3775
19619TIP3    H180272   6.740   6.861   5.300  2.1259  0.6256  0.6379
19619TIP3    H280273   6.773   6.718   5.262  0.8640  0.6352 -0.5721
19620TIP3   OH280274   2.130   4.268   5.163  0.3069 -1.0035 -0.1734
19620TIP3    H180275   2.183   4.272   5.243  1.0326 -0.1142 -0.6766
19620TIP3    H280276   2.107   4.360   5.146 -1.8506 -1.4156  0.3175
19621TIP3   OH280277   4.758   4.664   2.841  0.5303 -0.3296  0.4923
19621TIP3    H180278   4.747   4.684   2.934 -0.3140 -1.5897  0.6851
19621TIP3    H280279   4.793   4.744   2.804 -1.8193  1.2131  1.3688
19622TIP3   OH280280   2.077   4.335  11.680 -0.0161 -0.0545  0.4214
19622TIP3    H180281   2.127   4.365  11.756 -2.0981 -0.8669  2.2140
19622TIP3    H280282   2.090   4.240  11.679 -0.3431 -0.0972  0.0143
19623TIP3   OH280283   2.077   4.327   6.020 -0.3148 -0.2437  0.3811
19623TIP3    H180284   2.168   4.335   6.051  0.0691 -0.0684 -0.7441
19623TIP3    H280285   2.036   4.410   6.045  0.1297  0.1060 -0.0354
19624TIP3   OH280286   2.665   1.461  12.874  0.0766 -0.1678 -0.3447
19624TIP3    H180287   2.635   1.552  12.864 -1.5460 -0.6940 -0.5304
19624TIP3    H280288   2.712   1.443  12.792  0.4504  0.5043 -0.2914
19625TIP3   OH280289   4.348   2.161   6.443  0.4848 -0.1813  0.2971
19625TIP3    H180290   4.258   2.184   6.465  0.9290  0.0969  1.9420
19625TIP3    H280291   4.400   2.193   6.517  2.1685  1.2136 -1.3827
19626TIP3   OH280292   0.814   5.525   2.040 -0.3480 -0.2842  0.8395
19626TIP3    H180293   0.819   5.555   1.949  0.9568  1.0116  1.3033
19626TIP3    H280294   0.738   5.570   2.076 -0.0205  0.3271  0.7731
19627TIP3   OH280295   0.293   2.527  12.935 -0.1904 -0.2464 -0.2316
19627TIP3    H180296   0.282   2.502  12.844 -1.3200 -0.7831  0.0325
19627TIP3    H280297   0.387   2.544  12.945 -0.0181 -0.4798 -1.4042
19628TIP3   OH280298   3.927   3.426   0.929  0.5438 -0.1154  0.0845
19628TIP3    H180299   4.016   3.393   0.938  0.9285  1.0501  0.6654
19628TIP3    H280300   3.908   3.417   0.835  0.3442 -2.6210  0.2865
19629TIP3   OH280301   1.050   5.064   4.411 -0.1161  0.4712  0.1510
19629TIP3    H180302   1.135   5.054   4.368  1.6212 -0.3792  3.3808
19629TIP3    H280303   1.062   5.137   4.472 -1.6513  0.2075  0.8268
19630TIP3   OH280304   4.979   3.030   3.457  0.1095 -0.3082  0.2132
19630TIP3    H180305   4.982   3.103   3.520  0.2572  0.0356 -0.1870
19630TIP3    H280306   4.943   2.957   3.507 -0.3095  0.1162  0.5439
19631TIP3   OH280307   2.506   2.403  17.009 -0.2116 -0.1735  0.0024
19631TIP3    H180308   2.435   2.425  17.069 -0.6103 -0.1645 -0.4591
19631TIP3    H280309   2.503   2.473  16.943 -0.5308 -0.7949 -0.6620
19632TIP3   OH280310   1.089   0.948   5.055  0.3058 -0.6483 -0.1521
19632TIP3    H180311   1.011   1.001   5.067  0.1351 -1.0543  0.5975
19632TIP3    H280312   1.055   0.860   5.036  0.5823 -0.4981 -1.4296
19633TIP3   OH280313   2.988   2.087  12.681 -0.3829  0.2753  0.4346
19633TIP3    H180314   2.985   2.170  12.632  0.7524  0.9896  1.4998
19633TIP3    H280315   3.079   2.057  12.670 -0.5655 -0.4090  0.7504
19634TIP3   OH280316   0.447   2.692  13.336 -0.0750 -0.3266 -0.3654
19634TIP3    H180317   0.444   2.768  13.394  1.3795 -0.3724 -0.2018
19634TIP3    H280318   0.364   2.647  13.352 -0.8277  1.0353 -0.2280
19635TIP3   OH280319   0.912   3.733   4.292 -0.1766 -0.3202 -0.3011
19635TIP3    H180320   0.954   3.787   4.357 -0.4757 -0.5612  0.0985
19635TIP3    H280321   0.891   3.793   4.220  1.2965 -0.2940 -0.7378
19636TIP3   OH280322   0.883   0.112   4.581  0.0961  0.3178 -0.4192
19636TIP3    H180323   0.932   0.031   4.598 -0.0329  0.6337  1.6814
19636TIP3    H280324   0.943   0.182   4.604 -0.5517  0.7660 -0.0581
19637TIP3   OH280325   6.038   6.287   0.508  0.5983 -0.0285  0.0625
19637TIP3    H180326   6.117   6.296   0.453  0.0294  0.1284 -0.7493
19637TIP3    H280327   6.057   6.213   0.565  1.9486  0.9510  0.9490
19638TIP3   OH280328   0.372   6.620   0.538 -0.3872 -0.0434  0.5570
19638TIP3    H180329   0.399   6.700   0.494  0.1211  0.1487  1.2032
19638TIP3    H280330   0.385   6.551   0.473  1.9093  0.0007  0.8685
19639TIP3   OH280331   0.626   1.016   0.440 -0.5469 -0.1161 -0.0532
19639TIP3    H180332   0.639   1.102   0.480 -0.6331 -0.5229  0.8952
19639TIP3    H280333   0.561   1.030   0.371  0.3549  0.7993 -0.7314
19640TIP3   OH280334   4.555   6.397  16.282 -0.4336 -0.1753 -0.5409
19640TIP3    H180335   4.624   6.403  16.348 -0.9250 -1.3932  0.1007
19640TIP3    H280336   4.589   6.447  16.207  1.3433 -1.1243 -0.4141
19641TIP3   OH280337   1.182   5.911  10.479  0.6981 -0.0258 -0.2877
19641TIP3    H180338   1.150   5.928  10.391  0.9476 -1.3266 -0.6376
19641TIP3    H280339   1.277   5.905  10.470  0.6036 -1.9956 -0.2748
19642TIP3   OH280340   0.545   4.223   0.856 -0.7368 -0.3165 -0.1562
19642TIP3    H180341   0.530   4.217   0.762  0.4287  2.0880 -0.5594
19642TIP3    H280342   0.562   4.132   0.883  1.1144 -0.8321 -2.6658
19643TIP3   OH280343   2.671   2.942  12.947  0.3879  0.6183  0.1804
19643TIP3    H180344   2.637   3.032  12.950 -0.9975  0.2331 -1.6922
19643TIP3    H280345   2.594   2.889  12.926  1.6196 -0.7048 -1.1746
19644TIP3   OH280346   1.638   5.648  16.386  0.3364  0.0677  0.1872
19644TIP3    H180347   1.683   5.568  16.412 -1.1956 -1.2013 -0.8852
19644TIP3    H280348   1.707   5.714  16.379  1.8848 -1.5654 -0.5505
19645TIP3   OH280349   1.457   3.412   3.420  0.2722 -0.4761  0.8603
19645TIP3    H180350   1.375   3.408   3.470  0.5600 -0.0176  1.3771
19645TIP3    H280351   1.523   3.433   3.485  0.5498  0.8887  0.1717
19646TIP3   OH280352   0.515   0.732  16.889  0.5672  0.5816  0.3394
19646TIP3    H180353   0.561   0.749  16.806  1.7165  0.5348  0.9394
19646TIP3    H280354   0.506   0.819  16.929 -2.0652  0.9399 -0.8241
19647TIP3   OH280355   3.917   5.954   1.142 -0.0823 -0.5838 -0.5725
19647TIP3    H180356   3.907   6.041   1.104  0.1520  0.3916  1.4918
19647TIP3    H280357   3.834   5.910   1.124 -1.8596  1.5423  1.8891
19648TIP3   OH280358   0.747   4.132   5.428 -0.1340  0.5301 -0.4523
19648TIP3    H180359   0.701   4.151   5.510 -0.2354  0.0524 -0.3932
19648TIP3    H280360   0.788   4.047   5.444  3.0901  2.1169  0.5090
19649TIP3   OH280361   6.561   3.204  11.893 -0.3458  0.2304 -0.8061
19649TIP3    H180362   6.632   3.233  11.836  0.0245  0.6951 -0.1286
19649TIP3    H280363   6.587   3.116  11.921  1.4607  1.4220  1.7008
19650TIP3   OH280364   3.498   3.492  12.756 -0.1105  0.7110  0.1762
19650TIP3    H180365   3.507   3.494  12.851  1.6556  1.6684  0.0376
19650TIP3    H280366   3.518   3.581  12.728  1.2209  0.0339 -1.1948
19651TIP3   OH280367   0.874   0.757   6.427  0.1347 -0.0894  0.6768
19651TIP3    H180368   0.883   0.844   6.465 -0.4343  0.6744 -0.8603
19651TIP3    H280369   0.885   0.771   6.333  1.1442 -1.8497  0.4947
19652TIP3   OH280370   5.230   2.526  15.772  0.2550 -0.1588  0.4120
19652TIP3    H180371   5.293   2.454  15.762  0.0724 -0.2533 -0.0762
19652TIP3    H280372   5.180   2.526  15.690  1.0298  1.2792 -0.1040
19653TIP3   OH280373   4.865   2.476   5.730 -0.2917 -0.1170 -0.2086
19653TIP3    H180374   4.841   2.566   5.752  2.3988  0.6743 -0.2303
19653TIP3    H280375   4.792   2.423   5.763 -1.1899  1.9076  1.2477
19654TIP3   OH280376   3.892   3.368  16.295 -0.4501  0.3162 -0.3414
19654TIP3    H180377   3.982   3.343  16.278 -0.4114  0.3262 -0.1575
19654TIP3    H280378   3.887   3.375  16.391 -0.2765  1.6499 -0.4117
19655TIP3   OH280379   5.223   6.738   2.573  0.5185  0.1958 -0.0878
19655TIP3    H180380   5.207   6.683   2.650 -0.2077  0.1444 -0.2712
19655TIP3    H280381   5.258   6.819   2.609  2.4574 -0.6777  0.1326
19656TIP3   OH280382   4.663   3.482  12.201  0.0204  0.4429  0.1536
19656TIP3    H180383   4.581   3.434  12.211  0.5845 -0.2438  1.7706
19656TIP3    H280384   4.729   3.424  12.239  0.8138  2.2315  1.6415
19657TIP3   OH280385   3.451   3.103   1.771  0.1551 -0.4486 -0.4528
19657TIP3    H180386   3.457   3.106   1.675  1.6318 -0.2662 -0.3848
19657TIP3    H280387   3.516   3.037   1.796  0.2420 -0.0273  0.4585
19658TIP3   OH280388   6.502   0.533   1.771  0.1463  0.5050  0.0533
19658TIP3    H180389   6.486   0.440   1.788  2.3519  0.4206  2.2447
19658TIP3    H280390   6.420   0.576   1.796 -0.5461 -0.7553  0.0239
19659TIP3   OH280391   1.737   2.472  16.649  0.1222  0.0737  0.0234
19659TIP3    H180392   1.739   2.523  16.568 -1.1815  0.2845  0.1035
19659TIP3    H280393   1.748   2.538  16.718  3.0325 -0.2734  0.0405
19660TIP3   OH280394   6.450   0.100  16.137 -0.2756 -0.5477 -0.5091
19660TIP3    H180395   6.393   0.073  16.209 -0.0446 -1.4933 -0.6693
19660TIP3    H280396   6.537   0.105  16.176 -0.4935  1.4017 -0.1374
19661TIP3   OH280397   5.454   5.177  11.511  0.4516 -0.2221  0.2258
19661TIP3    H180398   5.529   5.125  11.541  1.4982  1.7796  1.2763
19661TIP3    H280399   5.452   5.251  11.571 -1.4384  0.5736 -0.7754
19662TIP3   OH280400   6.777   2.250   5.318 -0.5034 -0.0428 -0.0983
19662TIP3    H180401   6.768   2.319   5.252  0.6899  0.2558  0.0346
19662TIP3    H280402   6.703   2.264   5.377 -0.8662  0.4754 -0.6588
19663TIP3   OH280403   4.111   5.777   4.439 -0.2223  0.0053  0.0065
19663TIP3    H180404   4.186   5.832   4.414 -0.7995  0.0430 -1.8094
19663TIP3    H280405   4.133   5.746   4.526  3.4383 -2.4588 -1.5386
19664TIP3   OH280406   6.473   3.855  13.565 -0.7116 -0.1531 -0.3088
19664TIP3    H180407   6.480   3.820  13.476 -1.4463 -0.6778 -0.1729
19664TIP3    H280408   6.379   3.855  13.583 -0.6703  1.1753 -0.0079
19665TIP3   OH280409   5.457   0.807  11.614 -0.0376  0.1611  0.4289
19665TIP3    H180410   5.485   0.716  11.626 -0.7066 -0.2481 -0.8776
19665TIP3    H280411   5.467   0.847  11.701  3.5292 -0.1926  0.3190
19666TIP3   OH280412   3.602   1.180  13.407  0.0087 -0.2517  0.2059
19666TIP3    H180413   3.539   1.245  13.437 -1.4154 -1.8184  0.7964
19666TIP3    H280414   3.679   1.231  13.380 -1.3915  1.7066 -0.2841
19667TIP3   OH280415   1.802   0.723   4.747  0.3420 -0.1370  0.1734
19667TIP3    H180416   1.739   0.651   4.752  0.6294 -0.4120 -0.1073
19667TIP3    H280417   1.810   0.754   4.837 -1.4146  0.9763  0.0031
19668TIP3   OH280418   2.770   3.436   3.153 -0.4202  0.0212 -0.3121
19668TIP3    H180419   2.865   3.437   3.138 -0.3430 -1.9473 -0.1400
19668TIP3    H280420   2.756   3.367   3.218 -1.6208  2.7592  2.6451
19669TIP3   OH280421   0.366   0.786  15.169  0.2739 -0.2080 -0.1834
19669TIP3    H180422   0.416   0.707  15.150 -0.6104 -0.7084 -0.5200
19669TIP3    H280423   0.278   0.753  15.190  0.1170  0.6291  0.5440
19670TIP3   OH280424   3.652   0.905  17.023 -0.3250 -0.4984  0.1410
19670TIP3    H180425   3.666   0.932  17.114 -0.2193 -2.3003  0.6966
19670TIP3    H280426   3.563   0.933  17.003 -0.5766 -0.6322  1.0233
19671TIP3   OH280427   4.639   3.587  13.454  0.0359  0.2176  0.2209
19671TIP3    H180428   4.723   3.545  13.469  0.7807  0.8989 -1.7633
19671TIP3    H280429   4.585   3.561  13.529  1.4899 -1.5453  0.7147
19672TIP3   OH280430   4.021   4.830  16.792  1.0246 -0.4672  0.1893
19672TIP3    H180431   4.043   4.744  16.829  2.8471  0.1689  0.7036
19672TIP3    H280432   4.088   4.845  16.725 -1.3066 -0.9119 -2.4188
19673TIP3   OH280433   2.381   3.421   4.795 -0.1691 -0.2062  0.2668
19673TIP3    H180434   2.292   3.404   4.826  0.1440  2.4081  2.9787
19673TIP3    H280435   2.432   3.346   4.827 -1.5846 -2.9902 -3.3252
19674TIP3   OH280436   4.069   0.152  15.644 -0.5001  0.0273  0.1855
19674TIP3    H180437   4.136   0.085  15.631  0.0403  0.3467  1.1947
19674TIP3    H280438   4.027   0.162  15.559  0.6730 -0.2563 -0.4418
19675TIP3   OH280439   5.940   5.942   2.470  0.3006  0.2306 -1.3276
19675TIP3    H180440   5.895   5.877   2.523 -0.7687 -0.0946 -2.5796
19675TIP3    H280441   5.997   5.988   2.532 -0.6876 -0.3048  0.0374
19676TIP3   OH280442   1.460   5.311   5.237  0.7126 -0.4694  0.1565
19676TIP3    H180443   1.390   5.316   5.171  0.8647  0.3219  0.0482
19676TIP3    H280444   1.426   5.359   5.312  1.0865 -0.1986  0.1535
19677TIP3   OH280445   5.963   3.851  13.899 -0.0446 -0.0535  0.0586
19677TIP3    H180446   5.871   3.823  13.901  0.0711 -1.4477 -4.1253
19677TIP3    H280447   6.000   3.817  13.980 -2.7832 -1.1223  0.9805
19678TIP3   OH280448   3.461   4.681  16.997 -0.8967 -0.0087 -0.2805
19678TIP3    H180449   3.428   4.694  16.908 -1.8234 -0.6693 -0.0509
19678TIP3    H280450   3.536   4.740  17.004 -0.8028  0.0361 -1.5015
19679TIP3   OH280451   2.389   4.284   2.572  0.0475  0.1094  0.2247
19679TIP3    H180452   2.296   4.302   2.561  0.0148  1.2271  1.9661
19679TIP3    H280453   2.392   4.195   2.608 -0.1965 -0.6971 -1.6300
19680TIP3   OH280454   1.838   4.693  11.042  0.5407  0.6082 -0.1317
19680TIP3    H180455   1.765   4.709  10.982 -0.1064  0.9567  0.7229
19680TIP3    H280456   1.916   4.696  10.987  0.0690  2.1398 -0.7594
19681TIP3   OH280457   1.035   1.744   4.123 -0.4928  0.1103 -0.2964
19681TIP3    H180458   0.941   1.725   4.123 -0.4637 -0.4010  2.0493
19681TIP3    H280459   1.046   1.810   4.055 -2.4283 -0.3157 -1.1010
19682TIP3   OH280460   5.410   1.686  13.199 -0.0455  0.0144  0.1354
19682TIP3    H180461   5.354   1.754  13.162 -0.0776 -0.5106 -0.8027
19682TIP3    H280462   5.486   1.683  13.140 -0.1571 -0.9205  0.0272
19683TIP3   OH280463   4.643   6.363   1.579 -0.0602  0.2882  0.1282
19683TIP3    H180464   4.722   6.379   1.631  0.4643 -1.3417 -0.1256
19683TIP3    H280465   4.596   6.296   1.628 -0.8227  0.5456 -0.2348
19684TIP3   OH280466   5.535   6.407   4.217  0.1989 -0.4738 -0.6875
19684TIP3    H180467   5.439   6.408   4.220  0.1918 -0.5866 -0.8954
19684TIP3    H280468   5.557   6.315   4.201  0.3219 -0.3138 -1.4518
19685TIP3   OH280469   5.124   1.201   2.388  0.0864 -0.0167 -0.4234
19685TIP3    H180470   5.116   1.109   2.410  1.3745  0.0404  0.4298
19685TIP3    H280471   5.034   1.234   2.385 -0.3757 -1.2765 -0.6935
19686TIP3   OH280472   5.265   2.753   3.384  0.4987  0.3226  0.1197
19686TIP3    H180473   5.185   2.700   3.385  0.1640  0.8137  1.6417
19686TIP3    H280474   5.289   2.762   3.476  1.8109  0.9478 -0.2635
19687TIP3   OH280475   4.193   3.781   4.505  0.9549 -0.4111 -0.3824
19687TIP3    H180476   4.260   3.815   4.446  1.1214 -0.5665 -0.2824
19687TIP3    H280477   4.165   3.699   4.465  0.3802 -0.0466 -0.7513
19688TIP3   OH280478   4.042   5.520   3.291  0.5913 -0.4387  0.3785
19688TIP3    H180479   4.107   5.581   3.324 -0.0419 -0.9049  2.6387
19688TIP3    H280480   3.973   5.520   3.357  0.1268 -2.8887  0.0011
19689TIP3   OH280481   3.677   3.590   0.703 -0.1867 -0.6712 -0.3001
19689TIP3    H180482   3.755   3.542   0.674 -0.0621 -0.4660 -0.3115
19689TIP3    H280483   3.628   3.528   0.756 -1.2266 -1.5973 -2.2217
19690TIP3   OH280484   4.825   2.171   5.419  0.1460 -0.4849  0.0827
19690TIP3    H180485   4.919   2.187   5.419  0.3852 -1.8015  0.4576
19690TIP3    H280486   4.799   2.186   5.328  0.9457 -1.3074 -0.3001
19691TIP3   OH280487   1.932   1.226   0.691 -0.0153 -0.0853 -0.0289
19691TIP3    H180488   1.873   1.250   0.620  2.1763 -1.4971 -2.4719
19691TIP3    H280489   1.974   1.309   0.717 -0.6043  0.3949 -0.5830
19692TIP3   OH280490   5.558   0.250   0.237 -0.0365  0.1591  0.0681
19692TIP3    H180491   5.523   0.335   0.263 -0.0032  0.3468 -0.4878
19692TIP3    H280492   5.494   0.187   0.270 -0.6584  0.4729 -0.5169
19693TIP3   OH280493   3.064   5.203   0.443  0.3954 -0.1246  0.0723
19693TIP3    H180494   3.026   5.275   0.493  0.9714 -0.7734  1.4749
19693TIP3    H280495   3.012   5.126   0.467  1.6394 -0.7413  0.8909
19694TIP3   OH280496   3.422   0.616   3.963 -0.5004 -0.0864  0.1304
19694TIP3    H180497   3.446   0.554   4.032  0.0222  1.4893  1.4067
19694TIP3    H280498   3.492   0.681   3.963 -0.9603  0.4484 -1.2778
19695TIP3   OH280499   2.370   3.490  15.829  0.2008  0.1816  0.7391
19695TIP3    H180500   2.453   3.457  15.864  1.1260  1.1370 -0.4876
19695TIP3    H280501   2.371   3.464  15.737 -0.6661  0.5808  0.6126
19696TIP3   OH280502   4.839   5.035  14.629 -0.1199 -0.2784  0.1054
19696TIP3    H180503   4.763   5.082  14.662  0.4772  1.1650 -0.5052
19696TIP3    H280504   4.913   5.070  14.678  0.4088 -0.1237 -0.7763
19697TIP3   OH280505   1.928   6.651   2.346 -0.0558  0.7297  0.0937
19697TIP3    H180506   1.889   6.736   2.369 -0.5024  0.5521  0.0149
19697TIP3    H280507   2.022   6.668   2.342 -0.0847  1.0698  0.7088
19698TIP3   OH280508   6.118   2.897   2.709 -0.7132  0.4437  0.0921
19698TIP3    H180509   6.098   2.845   2.786 -0.7988  0.6411  0.2047
19698TIP3    H280510   6.101   2.987   2.736 -2.1855  0.4000 -0.5845
19699TIP3   OH280511   5.268   4.958  13.001 -0.5833 -0.2012 -0.0646
19699TIP3    H180512   5.175   4.947  13.020 -0.5630  0.9314  0.7680
19699TIP3    H280513   5.274   5.041  12.954  0.4257  2.4776  4.2065
19700TIP3   OH280514   2.979   3.956   1.507 -0.7784  0.2151 -0.5461
19700TIP3    H180515   3.070   3.960   1.538 -1.0932  0.0052  0.4504
19700TIP3    H280516   2.960   4.043   1.475 -1.1895  1.2210  2.1368
19701TIP3   OH280517   5.772   0.898   5.713  0.5284  0.6249 -0.5387
19701TIP3    H180518   5.831   0.943   5.773  0.1200  0.1161  0.2538
19701TIP3    H280519   5.800   0.927   5.626  2.1670  0.1528 -0.2083
19702TIP3   OH280520   2.981   6.278   1.205 -0.1925  0.1747 -0.0115
19702TIP3    H180521   3.016   6.357   1.163 -0.1457 -0.2446 -0.7775
19702TIP3    H280522   2.894   6.303   1.235 -0.5011  0.2852 -0.9778
19703TIP3   OH280523   6.590   2.324   5.532  0.1164 -0.1970 -0.6652
19703TIP3    H180524   6.644   2.296   5.606  0.2243 -0.4456 -0.8378
19703TIP3    H280525   6.598   2.419   5.531 -0.0759 -0.1716 -0.2093
19704TIP3   OH280526   1.180   1.065   5.744  0.0523  0.3257  0.3838
19704TIP3    H180527   1.256   1.032   5.696 -0.3696  0.3401 -0.3079
19704TIP3    H280528   1.195   1.039   5.835  0.6960 -0.0022  0.1840
19705TIP3   OH280529   0.351   0.246   5.300 -0.0509 -0.4051  0.4487
19705TIP3    H180530   0.437   0.252   5.258 -0.4884  0.5573 -0.3524
19705TIP3    H280531   0.368   0.202   5.383  0.9512 -1.7488 -0.4292
19706TIP3   OH280532   3.151   3.510  13.206  0.2031 -0.6309 -0.7926
19706TIP3    H180533   3.207   3.534  13.279 -2.7155  1.8440  0.8879
19706TIP3    H280534   3.122   3.421  13.226 -0.7309  0.0828  1.3271
19707TIP3   OH280535   3.546   6.752   3.882  0.5492 -0.3152  0.4653
19707TIP3    H180536   3.558   6.781   3.972  2.0727 -0.6273  0.3833
19707TIP3    H280537   3.473   6.690   3.887  0.7656 -0.5090  1.5276
19708TIP3   OH280538   3.097   5.206  14.093  0.3672  0.7888 -0.0237
19708TIP3    H180539   3.072   5.164  14.176 -0.0423 -0.8146 -0.9212
19708TIP3    H280540   3.181   5.167  14.070 -0.2147  0.1294 -1.0887
19709TIP3   OH280541   0.269   2.762   0.408  0.2605  0.2773  0.1065
19709TIP3    H180542   0.176   2.783   0.412 -0.1509 -0.8852 -1.7720
19709TIP3    H280543   0.306   2.828   0.350  0.4332  0.2722  0.2113
19710TIP3   OH280544   4.449   3.229  15.645 -0.5043 -0.8545 -0.0326
19710TIP3    H180545   4.438   3.232  15.740 -0.3758 -0.3382 -0.0315
19710TIP3    H280546   4.542   3.210  15.632  0.6433  3.6365 -0.0165
19711TIP3   OH280547   4.785   0.377  15.221  0.0897 -0.5808  0.5944
19711TIP3    H180548   4.709   0.338  15.264 -0.3405  0.1062  0.4651
19711TIP3    H280549   4.826   0.432  15.288  0.2346 -0.6219  0.5416
19712TIP3   OH280550   2.166   4.593  16.989  0.6343 -0.6266 -0.6074
19712TIP3    H180551   2.081   4.592  16.945 -0.0292 -0.2601  0.6338
19712TIP3    H280552   2.222   4.646  16.932 -0.3074  0.1540 -0.8389
19713TIP3   OH280553   0.997   5.932   3.507 -0.5319  0.1359  0.0567
19713TIP3    H180554   0.997   5.884   3.425 -0.9685 -1.6901  1.0656
19713TIP3    H280555   1.085   5.968   3.515  0.0454 -1.1145 -0.4199
19714TIP3   OH280556   3.047   5.940  12.777  0.1675  0.1734 -0.1161
19714TIP3    H180557   3.035   5.959  12.870  0.2199  2.1333 -0.4770
19714TIP3    H280558   2.961   5.913  12.746  0.3357 -1.3756  0.6468
19715TIP3   OH280559   6.775   3.691   3.555 -0.0278 -0.5811  0.2369
19715TIP3    H180560   6.753   3.665   3.644 -0.1248 -2.1125 -0.1959
19715TIP3    H280561   6.699   3.664   3.503 -0.0495  0.4570 -0.2888
19716TIP3   OH280562   4.656   1.393  12.150 -0.1023  0.5940 -0.0476
19716TIP3    H180563   4.581   1.340  12.179  1.1458 -0.8751  0.6467
19716TIP3    H280564   4.642   1.405  12.056 -1.0266  0.0345  0.0011
19717TIP3   OH280565   4.402   0.545   2.806  0.4941 -0.0735  0.1313
19717TIP3    H180566   4.454   0.497   2.742 -1.4814  0.5101 -2.0540
19717TIP3    H280567   4.312   0.535   2.776 -0.4471  1.0020  2.3473
19718TIP3   OH280568   1.642   1.524  12.008 -0.2544  0.1635  0.3639
19718TIP3    H180569   1.683   1.577  11.939 -1.2820  0.0730 -0.3516
19718TIP3    H280570   1.713   1.502  12.067  0.4328  1.2743 -0.0150
19719TIP3   OH280571   6.280   5.987  15.673  0.2549  0.0595 -0.0390
19719TIP3    H180572   6.194   6.008  15.710  0.6936  1.5359  0.1972
19719TIP3    H280573   6.281   6.030  15.588  2.1364  3.4807  1.5094
19720TIP3   OH280574   1.306   4.951  14.124  0.1815  1.0493  0.3022
19720TIP3    H180575   1.236   4.926  14.065  0.9066  3.3199 -1.6682
19720TIP3    H280576   1.269   4.941  14.212 -1.3431 -1.2174 -0.5222
19721TIP3   OH280577   0.547   5.148   1.569 -0.0426 -0.2163  0.2142
19721TIP3    H180578   0.554   5.133   1.475 -1.0613 -1.4573  0.3027
19721TIP3    H280579   0.556   5.243   1.579  0.7853 -0.1409 -1.0491
19722TIP3   OH280580   3.595   3.251  12.315  0.4220  0.1113 -0.0680
19722TIP3    H180581   3.574   3.177  12.374  0.2227 -0.0704 -0.3648
19722TIP3    H280582   3.619   3.322  12.374 -1.1096  0.3563  0.3158
19723TIP3   OH280583   6.772   4.681   1.928  0.2480 -0.6332  0.8072
19723TIP3    H180584   6.814   4.598   1.954 -0.2437 -1.0126  0.3993
19723TIP3    H280585   6.686   4.655   1.895 -0.5530  0.1793  2.1357
19724TIP3   OH280586   4.117   1.854   2.660 -0.1595  0.2279  0.4773
19724TIP3    H180587   4.154   1.925   2.606  0.8602 -0.3493  0.3951
19724TIP3    H280588   4.045   1.895   2.707  0.4893  1.3716  0.5204
19725TIP3   OH280589   5.805   6.034  13.587 -0.4776 -0.7222  0.2355
19725TIP3    H180590   5.714   6.065  13.592  0.2143  1.3539  1.4838
19725TIP3    H280591   5.827   6.012  13.677  0.1058 -1.7783 -0.1492
19726TIP3   OH280592   4.639   1.113  14.705 -0.0875  0.3553 -0.6218
19726TIP3    H180593   4.643   1.063  14.623 -1.0205 -0.0668 -0.4263
19726TIP3    H280594   4.592   1.193  14.682 -2.1342 -0.6451 -0.1032
19727TIP3   OH280595   3.032   5.691  15.141  0.2254  0.9005 -0.5557
19727TIP3    H180596   3.035   5.596  15.128  0.8389  0.8632 -0.1815
19727TIP3    H280597   2.945   5.708  15.179  0.2745  0.4395 -0.2359
19728TIP3   OH280598   4.036   6.287   4.747  0.4452  0.0882  0.5353
19728TIP3    H180599   4.077   6.212   4.704 -0.3456 -0.2292  0.3199
19728TIP3    H280600   4.032   6.262   4.840  0.8120  0.1574  0.5706
19729TIP3   OH280601   1.900   6.652  15.001  0.2361 -0.4475 -0.1201
19729TIP3    H180602   1.994   6.637  14.994  0.3544 -1.2420  2.2032
19729TIP3    H280603   1.872   6.598  15.075 -1.8069  0.7686  0.0854
19730TIP3   OH280604   1.897   1.796   5.818 -0.2438 -0.3318 -0.1116
19730TIP3    H180605   1.923   1.825   5.731 -1.1147 -1.3141 -0.7292
19730TIP3    H280606   1.863   1.707   5.805 -0.2972 -0.5417  1.2447
19731TIP3   OH280607   4.935   4.219  12.964 -0.3249 -0.0151 -0.5130
19731TIP3    H180608   4.992   4.152  12.928  1.4511  0.6132  0.9958
19731TIP3    H280609   4.992   4.292  12.984 -2.0535  1.6067 -1.1482
19732TIP3   OH280610   6.067   2.978  11.936 -0.1019  0.5688  0.2128
19732TIP3    H180611   6.087   2.967  11.843 -2.1259 -3.1757  0.0248
19732TIP3    H280612   6.152   2.992  11.977  1.0491  0.5071 -2.0046
19733TIP3   OH280613   3.917   2.050   3.970 -0.2588  0.0718 -0.2593
19733TIP3    H180614   4.000   2.038   4.016  0.2261 -0.8825 -1.3450
19733TIP3    H280615   3.942   2.059   3.878 -1.3724 -0.3952 -0.6202
19734TIP3   OH280616   3.864   6.654   3.952 -0.3203 -0.9329  0.0321
19734TIP3    H180617   3.773   6.682   3.959 -0.4550 -0.3608 -2.8379
19734TIP3    H280618   3.862   6.560   3.969 -1.7113 -1.1872 -1.3453
19735TIP3   OH280619   4.461   4.882   0.632 -0.1072  0.2830  0.5384
19735TIP3    H180620   4.403   4.940   0.681 -0.6302 -0.1340  0.4217
19735TIP3    H280621   4.404   4.814   0.597  0.3120  0.3662 -0.3392
19736TIP3   OH280622   4.695   6.493  14.073  0.0690 -0.3109 -0.1498
19736TIP3    H180623   4.615   6.468  14.026 -0.3857 -0.2764  0.5957
19736TIP3    H280624   4.755   6.521  14.004 -0.9583  0.7713 -0.6454
19737TIP3   OH280625   4.479   3.460   6.145 -0.6499 -0.0981  0.1860
19737TIP3    H180626   4.518   3.498   6.223 -0.3034 -1.1699  0.5408
19737TIP3    H280627   4.411   3.523   6.119  1.3179  1.8759 -0.5121
19738TIP3   OH280628   3.580   2.110   5.469 -0.3740  0.0915 -0.3935
19738TIP3    H180629   3.524   2.155   5.406 -1.2711 -1.0966 -0.4796
19738TIP3    H280630   3.549   2.141   5.554  2.0859  3.1870 -0.4413
19739TIP3   OH280631   0.167   6.566  15.324 -0.3858  0.1292  0.4918
19739TIP3    H180632   0.227   6.577  15.399  0.4687 -0.3846 -0.0952
19739TIP3    H280633   0.123   6.483  15.341 -0.1306 -0.0290  0.3872
19740TIP3   OH280634   2.663   4.017   4.392  0.1795 -0.3239  0.0404
19740TIP3    H180635   2.704   4.102   4.410 -0.0668  0.0949 -1.3201
19740TIP3    H280636   2.613   3.999   4.472  1.9688 -0.2642  1.2439
19741TIP3   OH280637   1.636   2.535  14.794 -0.5222 -0.1390 -0.5344
19741TIP3    H180638   1.698   2.482  14.743  0.1748 -1.1339  1.2743
19741TIP3    H280639   1.688   2.611  14.822 -1.0266  0.6327 -1.6119
19742TIP3   OH280640   3.272   5.884  15.569 -0.2288 -0.3276 -0.0664
19742TIP3    H180641   3.238   5.795  15.554  0.3572 -0.6978  0.7442
19742TIP3    H280642   3.213   5.922  15.633  0.6616 -0.8675  1.1193
19743TIP3   OH280643   5.037   3.344   2.240 -0.0259 -0.6514  0.1230
19743TIP3    H180644   5.007   3.303   2.159 -1.1847  0.7854 -0.2093
19743TIP3    H280645   5.040   3.437   2.221 -0.4462 -0.2648  1.7524
19744TIP3   OH280646   0.920   5.137  12.043 -0.6183 -0.1043 -0.0587
19744TIP3    H180647   0.946   5.197  12.113  0.0467 -0.6560  0.1686
19744TIP3    H280648   0.972   5.163  11.967 -0.1265 -0.5595  0.1157
19745TIP3   OH280649   2.715   2.466  15.826  0.3572 -0.0831 -0.4578
19745TIP3    H180650   2.669   2.418  15.757  0.8087  0.6417 -1.2865
19745TIP3    H280651   2.652   2.470  15.898 -0.1003 -0.9205 -0.7920
19746TIP3   OH280652   1.449   2.379  10.943 -0.2326  1.0134  0.6096
19746TIP3    H180653   1.394   2.307  10.912 -1.0862  1.6907  0.5292
19746TIP3    H280654   1.448   2.443  10.871  2.1076  0.3071 -0.1675
19747TIP3   OH280655   3.043   0.194   3.166  0.0406  0.2648  0.2483
19747TIP3    H180656   3.070   0.189   3.257 -2.8746  0.4661  1.1987
19747TIP3    H280657   3.004   0.280   3.157 -1.1583 -0.3555 -0.7446
19748TIP3   OH280658   5.014   2.557   3.730  0.0511  0.0072  0.0449
19748TIP3    H180659   5.090   2.562   3.788  0.0833 -0.0699  0.0086
19748TIP3    H280660   4.955   2.496   3.773 -0.1379  0.3267  0.2454
19749TIP3   OH280661   1.727   5.844  15.997  0.2417  0.2729  0.0490
19749TIP3    H180662   1.813   5.820  16.034 -0.1861  0.0350  0.9315
19749TIP3    H280663   1.666   5.784  16.039 -0.5010  1.1480  0.2457
19750TIP3   OH280664   4.523   5.682   4.086 -0.7380 -0.4123 -0.1947
19750TIP3    H180665   4.466   5.737   4.031  1.1484 -0.9461 -2.8447
19750TIP3    H280666   4.489   5.594   4.074 -1.4131 -0.3293  0.9908
19751TIP3   OH280667   1.225   1.254   4.799  0.2900  0.0154  0.3194
19751TIP3    H180668   1.264   1.276   4.714 -0.4597 -1.4004 -0.4320
19751TIP3    H280669   1.177   1.173   4.782 -1.3308  0.6502  1.6823
19752TIP3   OH280670   6.477   2.100   5.279 -0.1379  0.2822 -0.0297
19752TIP3    H180671   6.412   2.048   5.231 -0.5771  2.0073 -1.4372
19752TIP3    H280672   6.560   2.055   5.264 -0.7915 -1.2023  0.6508
19753TIP3   OH280673   4.472   3.890   2.506  0.1611  0.1913  0.0255
19753TIP3    H180674   4.531   3.829   2.461 -1.1209  0.1555 -1.7099
19753TIP3    H280675   4.384   3.858   2.484 -0.5328  2.1837 -0.2313
19754TIP3   OH280676   1.726   2.687   4.633 -0.1289 -0.0217 -0.0149
19754TIP3    H180677   1.800   2.654   4.684 -0.2472 -1.9959 -1.0150
19754TIP3    H280678   1.763   2.757   4.580  0.6624  0.0321  0.5834
19755TIP3   OH280679   5.290   0.122  13.022 -0.0354 -0.0293 -0.0543
19755TIP3    H180680   5.249   0.194  13.069  1.4397 -1.7696  4.4772
19755TIP3    H280681   5.375   0.156  12.995 -0.6262  0.7906 -0.9814
19756TIP3   OH280682   5.896   3.379   4.945 -0.3539  0.2950  0.1760
19756TIP3    H180683   5.862   3.296   4.911  0.3919 -0.3328  0.9187
19756TIP3    H280684   5.986   3.383   4.912 -0.6630  1.2594 -0.6030
19757TIP3   OH280685   4.733   2.789  15.023 -0.3554 -0.2768  0.3333
19757TIP3    H180686   4.650   2.837  15.015  0.5860  1.2278 -0.9579
19757TIP3    H280687   4.732   2.727  14.950 -0.0079  0.2943 -0.1615
19758TIP3   OH280688   2.513   5.454   5.729 -0.1618 -0.1374 -0.1017
19758TIP3    H180689   2.497   5.508   5.807  1.2220 -0.1827  0.2259
19758TIP3    H280690   2.490   5.511   5.655 -2.1192 -0.3022  0.3126
19759TIP3   OH280691   5.258   2.451  13.034  0.0786 -0.4353 -0.3201
19759TIP3    H180692   5.248   2.515  13.104 -0.5822 -3.1256  2.2358
19759TIP3    H280693   5.351   2.432  13.031  0.0897 -0.4049 -0.1119
19760TIP3   OH280694   2.989   1.944  14.336 -0.1229 -0.8666 -0.0625
19760TIP3    H180695   3.080   1.958  14.307 -0.7745  0.4722 -1.6318
19760TIP3    H280696   2.968   2.024  14.384 -0.7287 -0.7934 -0.4402
19761TIP3   OH280697   3.234   2.526  13.047 -0.6866 -0.2210  0.2861
19761TIP3    H180698   3.150   2.556  13.011  0.7472  2.5781 -1.0366
19761TIP3    H280699   3.295   2.530  12.973  0.7056 -2.0144  1.2510
19762TIP3   OH280700   3.000   4.450   3.687  0.1262 -0.3491 -0.5364
19762TIP3    H180701   3.039   4.398   3.616 -1.2798 -2.5789  0.2375
19762TIP3    H280702   2.907   4.452   3.667 -0.2729 -0.8531  1.0842
19763TIP3   OH280703   2.548   4.664  11.554 -0.2148 -0.3396  0.0556
19763TIP3    H180704   2.503   4.717  11.488  0.9912 -0.0008 -0.5158
19763TIP3    H280705   2.554   4.577  11.515  3.0781  0.4780 -1.6785
19764TIP3   OH280706   1.713   5.636  14.143  0.4493 -0.2969  0.0874
19764TIP3    H180707   1.632   5.639  14.194 -0.1086 -1.2410 -0.7066
19764TIP3    H280708   1.741   5.727  14.136 -1.4961  0.2718 -1.0891
19765TIP3   OH280709   3.884   2.963   5.380 -0.3685 -0.4095  0.2490
19765TIP3    H180710   3.814   2.919   5.331 -1.5650 -0.8088  2.2340
19765TIP3    H280711   3.861   3.056   5.375  1.4744  0.0433 -2.8589
19766TIP3   OH280712   1.278   4.399  13.780 -0.4786  0.2185 -0.3313
19766TIP3    H180713   1.230   4.450  13.715  0.5389 -0.0116 -1.2799
19766TIP3    H280714   1.298   4.316  13.736  2.0617  0.8442 -0.5297
19767TIP3   OH280715   4.524   1.710  15.837  0.1575  0.1513  0.2857
19767TIP3    H180716   4.495   1.703  15.746 -0.2956 -0.7365  0.4928
19767TIP3    H280717   4.444   1.721  15.888  0.4436  1.2588  0.5452
19768TIP3   OH280718   6.488   2.590  16.780  0.4669  0.1953  0.2006
19768TIP3    H180719   6.524   2.505  16.805  0.5116  0.1247 -0.1002
19768TIP3    H280720   6.514   2.650  16.851  0.8727  0.0693  0.1554
19769TIP3   OH280721   6.534   1.539   4.091 -0.7268 -0.0631 -0.0713
19769TIP3    H180722   6.479   1.466   4.061  1.1468 -1.6428  0.0976
19769TIP3    H280723   6.544   1.524   4.185 -2.2661  1.8365  0.4399
19770TIP3   OH280724   1.698   6.427   0.818  0.1869  0.4947  1.0132
19770TIP3    H180725   1.656   6.366   0.879 -0.6870 -0.7794 -0.7649
19770TIP3    H280726   1.676   6.514   0.851 -1.5624 -0.1590  1.6650
19771TIP3   OH280727   2.962   5.490   5.321 -0.0563  0.1084  0.6493
19771TIP3    H180728   3.025   5.500   5.392  0.7785 -0.4396  0.0100
19771TIP3    H280729   2.983   5.405   5.282  0.9174  1.2815 -1.5756
19772TIP3   OH280730   0.785   2.982  15.059 -0.5021  0.1425 -0.5567
19772TIP3    H180731   0.869   2.963  15.018  0.2059 -1.0683  1.2930
19772TIP3    H280732   0.750   2.895  15.082 -2.3702  0.6081 -1.4702
19773TIP3   OH280733   0.472   6.511  13.197 -0.1892 -0.3550  0.1165
19773TIP3    H180734   0.405   6.443  13.200  1.6114 -2.1692  0.7163
19773TIP3    H280735   0.469   6.551  13.284 -0.1333 -0.7882  0.3199
19774TIP3   OH280736   2.655   4.465   0.941  0.7132 -0.4467 -0.1939
19774TIP3    H180737   2.656   4.555   0.909 -0.0787 -0.2439  0.3241
19774TIP3    H280738   2.659   4.473   1.037  1.6304 -0.9970 -0.1709
19775TIP3   OH280739   6.776   3.664   4.415  0.0678 -0.1736 -0.1229
19775TIP3    H180740   6.804   3.636   4.502  0.2613  0.4401  0.0164
19775TIP3    H280741   6.795   3.589   4.359  1.3657 -0.0248  0.0900
19776TIP3   OH280742   4.693   2.021   3.286  0.4810  0.0687  0.2321
19776TIP3    H180743   4.659   2.100   3.245  0.3324 -0.3504 -0.4645
19776TIP3    H280744   4.688   2.039   3.380  0.2455  0.7965  0.0886
19777TIP3   OH280745   5.904   0.616   1.999 -0.7887 -0.7406  0.3283
19777TIP3    H180746   5.875   0.530   1.969  1.0396 -0.9383 -1.0175
19777TIP3    H280747   5.829   0.651   2.048 -2.9468 -1.5867 -2.1423
19778TIP3   OH280748   6.603   4.489   2.273 -0.1249 -0.2211 -0.2807
19778TIP3    H180749   6.558   4.457   2.195 -2.0961  0.6057  0.4481
19778TIP3    H280750   6.603   4.584   2.263  0.4009 -0.1496  0.3121
19779TIP3   OH280751   2.235   2.188  12.644 -0.1818  0.9057  0.0313
19779TIP3    H180752   2.176   2.260  12.666 -0.1722  1.7073 -2.2371
19779TIP3    H280753   2.274   2.214  12.560  3.5080  0.4466  1.4305
19780TIP3   OH280754   1.839   2.754   6.415 -0.2337  0.3044 -0.0884
19780TIP3    H180755   1.764   2.736   6.357  1.9121 -1.4023 -2.5820
19780TIP3    H280756   1.803   2.745   6.503 -2.9384 -0.5305 -1.1514
19781TIP3   OH280757   2.138   0.844   0.115 -0.3324  0.4607 -0.4350
19781TIP3    H180758   2.063   0.801   0.073  0.6422 -1.5648 -0.2445
19781TIP3    H280759   2.212   0.821   0.059  0.4138  0.8966  0.3615
19782TIP3   OH280760   2.868   4.837   4.055 -0.1807  0.2157 -0.1661
19782TIP3    H180761   2.905   4.829   4.143  1.4967 -1.1106 -0.9191
19782TIP3    H280762   2.869   4.931   4.037  0.5281  0.4112  0.8142
19783TIP3   OH280763   6.691   3.094   5.813  0.8772 -0.8191 -0.1536
19783TIP3    H180764   6.651   3.164   5.866  0.4566 -1.0708 -0.1295
19783TIP3    H280765   6.785   3.109   5.820  0.7887 -0.2723 -0.1249
19784TIP3   OH280766   3.483   4.861   2.537 -0.1262  0.7184 -0.2378
19784TIP3    H180767   3.475   4.956   2.534 -0.6924  0.6950  0.1833
19784TIP3    H280768   3.414   4.829   2.479 -0.4070  0.5609  0.1736
19785TIP3   OH280769   3.104   2.518   1.778 -0.3271 -0.6718  0.3409
19785TIP3    H180770   3.078   2.554   1.863  1.4605  1.0985  0.2232
19785TIP3    H280771   3.052   2.567   1.715 -0.9313 -1.2964  0.3346
19786TIP3   OH280772   6.413   0.626  12.766 -0.0515  0.4387  0.4086
19786TIP3    H180773   6.323   0.599  12.785 -0.1542  0.4853 -0.0127
19786TIP3    H280774   6.409   0.662  12.678 -0.1004  2.6639  1.2674
19787TIP3   OH280775   4.366   4.113  16.647 -0.2393 -0.3162 -0.1421
19787TIP3    H180776   4.431   4.043  16.657  1.5194  0.9335 -1.9296
19787TIP3    H280777   4.376   4.142  16.556 -1.9175  1.2858  0.1243
19788TIP3   OH280778   5.840   1.026  11.217 -0.0731 -0.7259  0.6708
19788TIP3    H180779   5.932   1.045  11.200 -0.2711 -0.8858 -0.6962
19788TIP3    H280780   5.793   1.103  11.183 -0.5931 -1.7499 -1.1089
19789TIP3   OH280781   6.518   4.921  10.651 -0.0178 -0.0887  0.4145
19789TIP3    H180782   6.597   4.968  10.627  0.0125 -1.1335 -1.7819
19789TIP3    H280783   6.546   4.861  10.720  1.2393 -0.7532 -0.6335
19790TIP3   OH280784   4.203   1.219  13.431 -0.2326 -0.7192  0.1763
19790TIP3    H180785   4.272   1.219  13.498  0.7603 -0.0240 -0.8036
19790TIP3    H280786   4.169   1.130  13.432  1.1463 -1.2788  0.2528
19791TIP3   OH280787   1.777   2.423  11.319 -0.3837 -0.0319  0.0426
19791TIP3    H180788   1.739   2.341  11.287 -0.1137 -1.0660  2.1636
19791TIP3    H280789   1.769   2.484  11.246 -0.5930 -1.9479 -1.6123
19792TIP3   OH280790   1.423   5.762  14.208  0.2742 -0.0011  0.3498
19792TIP3    H180791   1.421   5.710  14.288  0.7430 -0.1303  0.2761
19792TIP3    H280792   1.356   5.829  14.222  0.3911  0.0124  0.8726
19793TIP3   OH280793   5.986   5.695   0.273 -0.1831 -0.3085  0.4370
19793TIP3    H180794   6.078   5.672   0.263 -0.5438 -1.1482 -1.3516
19793TIP3    H280795   5.987   5.789   0.295  1.1904 -1.1056  4.9687
19794TIP3   OH280796   3.492   4.636  11.479 -0.2663  0.3825 -0.1096
19794TIP3    H180797   3.432   4.692  11.430 -0.9666 -0.6327 -0.4386
19794TIP3    H280798   3.439   4.560  11.503  0.2253  0.5795  1.7101
19795TIP3   OH280799   4.853   0.236  10.893  0.3784 -0.1084  0.1506
19795TIP3    H180800   4.834   0.173  10.963 -2.1624  0.1019 -0.2637
19795TIP3    H280801   4.941   0.212  10.863  1.4222 -0.4236  3.1278
19796TIP3   OH280802   3.713   5.989  13.311  0.2529 -0.2524 -0.4643
19796TIP3    H180803   3.686   5.963  13.399  0.4029 -1.5839 -0.7911
19796TIP3    H280804   3.797   5.944  13.298 -0.3431 -1.0241 -1.7246
19797TIP3   OH280805   4.357   3.275   3.922 -0.1328 -0.1286  0.0084
19797TIP3    H180806   4.362   3.198   3.978 -0.0436 -1.8072 -2.1587
19797TIP3    H280807   4.448   3.292   3.896 -0.3767 -0.8971 -1.4780
19798TIP3   OH280808   5.677   3.558   3.257 -0.1855 -0.1585 -0.5636
19798TIP3    H180809   5.686   3.473   3.214 -1.7945 -0.6642  0.0371
19798TIP3    H280810   5.622   3.609   3.198 -2.0718 -0.7198  0.6486
19799TIP3   OH280811   4.578   5.775   5.850 -0.6553  0.7242 -0.0015
19799TIP3    H180812   4.601   5.855   5.897 -0.9044  0.5560  0.4130
19799TIP3    H280813   4.661   5.728   5.841 -0.7141  0.4268  0.9067
19800TIP3   OH280814   1.050   2.508   1.798  0.6233 -0.2556 -0.2134
19800TIP3    H180815   1.120   2.561   1.759 -0.4759  0.5831 -1.1169
19800TIP3    H280816   0.985   2.571   1.827  0.3750 -1.0060  0.9587
19801TIP3   OH280817   3.587   1.677  12.433 -0.8488 -0.2695 -0.4285
19801TIP3    H180818   3.669   1.628  12.440 -0.2187  0.7965 -0.2862
19801TIP3    H280819   3.521   1.617  12.470 -0.2360 -1.3284 -0.9948
19802TIP3   OH280820   0.833   2.127   6.618 -0.7073 -0.3966 -0.2610
19802TIP3    H180821   0.765   2.180   6.660  1.1549  0.7589  1.5093
19802TIP3    H280822   0.789   2.086   6.544 -2.8534  1.8019 -0.3431
19803TIP3   OH280823   2.381   6.551   2.708  0.2793 -0.1748  0.0557
19803TIP3    H180824   2.444   6.486   2.678 -1.1897 -2.4328  1.5219
19803TIP3    H280825   2.397   6.557   2.803 -1.0769 -0.1483  0.3091
19804TIP3   OH280826   4.431   1.606   2.145  0.2183  0.3503  0.0626
19804TIP3    H180827   4.521   1.602   2.114  0.5366  1.9141  0.6970
19804TIP3    H280828   4.379   1.575   2.071  1.2349 -0.0196 -0.5175
19805TIP3   OH280829   4.837   5.622  14.768  0.0872 -0.3960 -0.1005
19805TIP3    H180830   4.913   5.639  14.713  0.6288 -0.0599  0.7366
19805TIP3    H280831   4.762   5.651  14.716  0.4710 -1.2325 -1.1484
19806TIP3   OH280832   2.999   1.862   3.297 -0.4682  0.0644 -0.3394
19806TIP3    H180833   3.018   1.769   3.283 -0.2083  0.0757 -0.0720
19806TIP3    H280834   2.917   1.863   3.346  1.0716 -0.1427  2.4078
19807TIP3   OH280835   1.650   0.642   5.621 -0.4156  0.5450 -0.4840
19807TIP3    H180836   1.675   0.645   5.528 -2.0228 -1.1996 -1.0493
19807TIP3    H280837   1.600   0.722   5.635  0.4895  1.2001 -0.8925
19808TIP3   OH280838   2.321   1.024   6.038  0.0633 -0.1430  0.5865
19808TIP3    H180839   2.230   1.007   6.011 -0.5794  0.4573  2.2616
19808TIP3    H280840   2.361   0.937   6.041  0.8553 -0.1845 -4.2157
19809TIP3   OH280841   4.591   3.875   2.083  0.1735 -0.0287  0.0601
19809TIP3    H180842   4.589   3.785   2.115 -0.2249  0.6547  2.1005
19809TIP3    H280843   4.534   3.874   2.006 -2.0393 -1.0033  1.5881
19810TIP3   OH280844   1.634   2.854   4.255 -0.1059 -0.0235  0.4278
19810TIP3    H180845   1.570   2.820   4.316  0.2604 -3.2003 -0.7693
19810TIP3    H280846   1.716   2.810   4.279  0.2641 -0.5613 -1.6440
19811TIP3   OH280847   0.150   6.393   4.197  0.1099 -0.5399 -0.5835
19811TIP3    H180848   0.059   6.409   4.225  0.4240 -0.8396  0.6827
19811TIP3    H280849   0.198   6.471   4.225  0.4089 -0.7821 -0.4186
19812TIP3   OH280850   5.771   6.318  15.897 -0.0479  0.4457  0.0745
19812TIP3    H180851   5.689   6.291  15.938  1.0643 -2.0461  0.8284
19812TIP3    H280852   5.786   6.254  15.827  2.1912 -0.4431  1.2540
19813TIP3   OH280853   3.320   3.123  13.089  0.4136  0.0018  0.0156
19813TIP3    H180854   3.259   3.182  13.134 -0.8754 -2.1837  1.3177
19813TIP3    H280855   3.384   3.181  13.048 -0.8986  2.2848  1.0197
19814TIP3   OH280856   3.349   3.189  15.917  0.0601  0.5194 -0.2000
19814TIP3    H180857   3.438   3.196  15.882 -0.4853  0.6714 -1.6244
19814TIP3    H280858   3.349   3.108  15.969  1.2116  0.9001  0.4325
19815TIP3   OH280859   4.231   1.019   0.008 -0.5531  0.2972 -0.4700
19815TIP3    H180860   4.250   0.953  -0.059  0.2594  1.4051 -1.3719
19815TIP3    H280861   4.158   0.982   0.058 -1.4997 -0.3804 -2.2510
19816TIP3   OH280862   3.776   1.647  16.720  0.2990 -0.2780  0.1682
19816TIP3    H180863   3.815   1.719  16.669  0.7363  0.8618  2.0162
19816TIP3    H280864   3.843   1.579  16.721  0.6947  0.1082  0.0963
19817TIP3   OH280865   1.111   0.921  14.413  0.4657 -0.4573 -0.1200
19817TIP3    H180866   1.121   0.868  14.492 -1.6343  0.1130  0.5727
19817TIP3    H280867   1.178   0.989  14.421  0.3561 -0.4791  1.1218
19818TIP3   OH280868   1.957   2.439   3.914  0.4244 -0.2232  0.1181
19818TIP3    H180869   1.932   2.499   3.844 -0.7088 -0.0777  0.6216
19818TIP3    H280870   2.017   2.377   3.872  0.0070  0.0450 -0.9073
19819TIP3   OH280871   3.396   6.528   5.425 -0.1007 -0.1407 -0.2348
19819TIP3    H180872   3.340   6.453   5.443 -0.7007  0.6764  1.5687
19819TIP3    H280873   3.336   6.603   5.422  0.5921  0.4158 -1.0601
19820TIP3   OH280874   3.576   0.245   1.646  0.4477  0.3867  0.2997
19820TIP3    H180875   3.516   0.286   1.584  0.7719 -1.5434 -1.3944
19820TIP3    H280876   3.519   0.209   1.714 -0.2130 -0.0802 -0.4757
19821TIP3   OH280877   3.612   1.798  14.568 -0.0756 -0.3362  0.2806
19821TIP3    H180878   3.531   1.748  14.562 -0.8391  0.7667  1.0772
19821TIP3    H280879   3.611   1.856  14.492 -0.4118  0.1911  0.6761
19822TIP3   OH280880   5.846   3.092   5.166 -0.5183  0.2688 -0.3452
19822TIP3    H180881   5.805   3.136   5.240 -0.4336 -1.5810  0.8768
19822TIP3    H280882   5.774   3.050   5.120 -0.2808 -1.3769  0.6890
19823TIP3   OH280883   3.218   1.634   6.502 -0.2717  0.2646 -0.0792
19823TIP3    H180884   3.246   1.654   6.591 -0.9172 -1.0833  0.4450
19823TIP3    H280885   3.148   1.571   6.512  0.0541 -0.3812 -1.5685
19824TIP3   OH280886   2.050   3.131   6.095  0.1833 -0.6257 -0.0035
19824TIP3    H180887   2.133   3.123   6.141 -0.8361  0.5006  2.1535
19824TIP3    H280888   1.992   3.070   6.139 -0.2886 -1.0644 -1.1951
19825TIP3   OH280889   3.332   6.525  14.142 -0.8204  0.0996  0.0216
19825TIP3    H180890   3.386   6.556  14.215 -0.5353 -1.6290  0.5928
19825TIP3    H280891   3.261   6.590  14.136  1.7246  3.0148 -1.4121
19826TIP3   OH280892   2.199   4.058  15.258  0.1425 -0.5228 -0.0644
19826TIP3    H180893   2.281   4.106  15.245 -0.2982  0.3411  0.2510
19826TIP3    H280894   2.172   4.080  15.347 -1.0925  0.2615 -0.5970
19827TIP3   OH280895   0.434   4.171  10.489  0.5146  0.0935 -0.1736
19827TIP3    H180896   0.424   4.093  10.433  1.9793  0.6800 -1.3203
19827TIP3    H280897   0.527   4.171  10.513  0.2225  0.7151  1.0013
19828TIP3   OH280898   0.989   0.440   0.617  0.8779  0.7920 -0.8128
19828TIP3    H180899   1.061   0.424   0.677 -1.0444  2.6841  2.2536
19828TIP3    H280900   0.981   0.535   0.614 -0.8292  0.6610 -1.9461
19829TIP3   OH280901   0.827   4.304   4.219 -0.3507  0.9230 -0.2440
19829TIP3    H180902   0.803   4.238   4.154  0.0065 -0.9086  1.4048
19829TIP3    H280903   0.794   4.270   4.302  0.1355  2.6845  0.7304
19830TIP3   OH280904   1.436   3.891   3.381 -0.2508 -0.7392  0.7837
19830TIP3    H180905   1.531   3.875   3.378 -0.2627 -0.7313  0.1585
19830TIP3    H280906   1.417   3.933   3.297 -0.4488  1.2532  1.7693
19831TIP3   OH280907   6.098   2.729   1.527  0.0511 -0.1071 -0.0276
19831TIP3    H180908   6.056   2.784   1.461 -1.5208 -1.6170 -0.3464
19831TIP3    H280909   6.028   2.707   1.588  0.5895 -1.8694 -0.0116
19832TIP3   OH280910   2.266   0.178   1.704  0.0871 -0.3087 -0.1293
19832TIP3    H180911   2.204   0.133   1.761 -1.3768  0.3679 -1.1178
19832TIP3    H280912   2.234   0.268   1.701  0.6171 -0.1431 -1.3615
19833TIP3   OH280913   0.991   6.763  13.998 -0.5285  0.4304 -0.0622
19833TIP3    H180914   0.925   6.783  14.063  0.1552 -3.2887  2.0985
19833TIP3    H280915   1.059   6.830  14.011 -2.5676  2.6977 -0.4916
19834TIP3   OH280916   4.713   0.891  16.897 -0.4963 -0.9064  0.1943
19834TIP3    H180917   4.689   0.915  16.808  0.0402 -1.4954 -0.1129
19834TIP3    H280918   4.707   0.973  16.946 -0.9158 -0.6053 -0.3501
19835TIP3   OH280919   6.235   2.390  16.909  0.1681  0.3577 -0.0884
19835TIP3    H180920   6.153   2.388  16.960  0.2519 -1.7999  0.0262
19835TIP3    H280921   6.251   2.484  16.895 -0.6690  0.9790  2.5303
19836TIP3   OH280922   6.546   4.542   2.548 -0.3831 -0.6079  0.5698
19836TIP3    H180923   6.556   4.548   2.453 -0.7296 -1.0358  0.4975
19836TIP3    H280924   6.464   4.493   2.559 -0.7914  0.1830  1.0939
19837TIP3   OH280925   5.475   6.475  12.147  0.0656  0.3231 -0.0720
19837TIP3    H180926   5.397   6.420  12.146  1.3691 -1.6400 -1.7259
19837TIP3    H280927   5.478   6.514  12.060  1.6164 -0.7629 -0.5552
19838TIP3   OH280928   1.372   5.832   1.472  0.1970 -0.5677  0.1907
19838TIP3    H180929   1.454   5.826   1.521 -0.1768 -0.2880  0.8552
19838TIP3    H280930   1.308   5.861   1.536 -0.2310  0.1431 -0.5487
19839TIP3   OH280931   0.106   2.481   1.409 -0.4106  0.4205 -0.3815
19839TIP3    H180932   0.035   2.466   1.346 -1.2713  0.9994  0.4086
19839TIP3    H280933   0.156   2.554   1.371 -0.2336  0.0194 -0.9382
19840TIP3   OH280934   5.095   5.901   4.162  0.3739  0.3441 -0.4612
19840TIP3    H180935   5.120   5.918   4.071  2.5216  1.4414  0.2484
19840TIP3    H280936   5.027   5.965   4.181  0.8648  1.0277 -0.9449
19841TIP3   OH280937   4.292   5.040  15.581 -0.0732 -0.4167 -0.7048
19841TIP3    H180938   4.275   4.945  15.584 -2.1044 -0.0822 -0.2247
19841TIP3    H280939   4.283   5.069  15.671 -0.1882  0.3484 -0.9535
19842TIP3   OH280940   3.908   0.729  11.897  0.3305 -0.6928 -0.1973
19842TIP3    H180941   3.982   0.684  11.937 -0.7998  0.3075  3.3440
19842TIP3    H280942   3.936   0.821  11.892 -0.4261 -0.4059  0.6156
19843TIP3   OH280943   2.567   5.785   3.969  0.4130 -0.3558 -0.6485
19843TIP3    H180944   2.517   5.862   3.995  0.4404 -0.2736 -0.8375
19843TIP3    H280945   2.641   5.820   3.919  1.4708 -0.3528  0.8455
19844TIP3   OH280946   3.731   2.518   5.141 -0.0449 -0.0034  0.5005
19844TIP3    H180947   3.741   2.535   5.047 -0.4236 -0.3151  0.3975
19844TIP3    H280948   3.820   2.513   5.174  0.1128 -0.6418  0.0127
19845TIP3   OH280949   0.458   6.293  15.535  0.0648  0.1410 -0.5486
19845TIP3    H180950   0.376   6.292  15.583  1.2109  1.3847  1.5858
19845TIP3    H280951   0.501   6.211  15.558 -0.0627  0.0176 -0.7430
19846TIP3   OH280952   5.585   6.130   4.267 -0.0506 -0.1159  0.4130
19846TIP3    H180953   5.532   6.109   4.344  2.4652 -0.3774  2.2161
19846TIP3    H280954   5.612   6.045   4.233  1.1444  0.0070  1.0045
19847TIP3   OH280955   5.066   4.690  13.328 -0.2017 -0.2109  0.0624
19847TIP3    H180956   5.036   4.698  13.419  0.6845 -0.5028  0.3908
19847TIP3    H280957   4.987   4.699  13.276 -0.4551  2.2026  0.7481
19848TIP3   OH280958   0.117   0.514   3.853 -0.7353  0.2470 -0.3283
19848TIP3    H180959   0.145   0.600   3.883 -1.5186  1.1097 -1.9423
19848TIP3    H280960   0.022   0.522   3.841 -0.5635 -0.1513 -2.4294
19849TIP3   OH280961   0.135   5.039   5.308 -0.4229 -0.6717  0.3377
19849TIP3    H180962   0.066   5.088   5.264 -0.7606 -0.3453  1.2174
19849TIP3    H280963   0.168   5.098   5.375  0.9219 -0.7079 -0.2542
19850TIP3   OH280964   4.485   1.707   1.661 -0.1252 -0.1408  0.2038
19850TIP3    H180965   4.410   1.651   1.642 -0.4407  0.2575  0.2672
19850TIP3    H280966   4.561   1.648   1.656 -0.5095 -0.7041  0.8891
19851TIP3   OH280967   1.563   1.661   0.694 -0.3626  0.0460  0.0532
19851TIP3    H180968   1.521   1.745   0.675 -1.0604 -0.6296 -1.6710
19851TIP3    H280969   1.523   1.601   0.631  2.1381 -0.9554 -0.6794
19852TIP3   OH280970   1.400   4.269   4.588  0.4056  0.3772 -0.0322
19852TIP3    H180971   1.363   4.269   4.676  1.4567  3.1016  0.5206
19852TIP3    H280972   1.458   4.345   4.586  0.0532  0.7144 -3.2493
19853TIP3   OH280973   6.382   6.529   1.639 -0.3360  0.2386 -0.2778
19853TIP3    H180974   6.465   6.485   1.661 -0.3086  0.4724  0.1021
19853TIP3    H280975   6.367   6.507   1.547 -2.0701 -3.4695  0.6906
19854TIP3   OH280976   2.428   3.849  12.290  0.0148 -0.3143  0.3307
19854TIP3    H180977   2.344   3.833  12.246  0.4089  0.7188 -0.8590
19854TIP3    H280978   2.407   3.913  12.358  0.0557  1.0625 -0.9038
19855TIP3   OH280979   5.302   0.583   2.414 -0.3731  0.1349  0.0465
19855TIP3    H180980   5.303   0.669   2.370 -0.2754 -0.0291 -0.2725
19855TIP3    H280981   5.363   0.529   2.364 -1.1705 -0.4140 -0.3488
19856TIP3   OH280982   1.826   2.597   3.724 -0.2278 -0.4319 -0.0775
19856TIP3    H180983   1.833   2.674   3.667  1.4304 -1.0460 -0.7493
19856TIP3    H280984   1.763   2.540   3.680  0.2127 -0.4202 -0.7267
19857TIP3   OH280985   4.077   2.590   2.067 -0.3925  0.1090 -0.0114
19857TIP3    H180986   4.132   2.513   2.083 -1.6095 -1.0783 -1.2317
19857TIP3    H280987   4.126   2.663   2.105  1.3332 -1.0956  0.1991
19858TIP3   OH280988   4.378   3.494   1.979 -0.3802  0.1233  0.2790
19858TIP3    H180989   4.303   3.446   1.943  0.3972 -0.2270 -0.9105
19858TIP3    H280990   4.430   3.427   2.025  0.0887  0.0380 -0.3679
19859TIP3   OH280991   1.188   1.696   1.570 -0.9521 -0.3607  0.4121
19859TIP3    H180992   1.116   1.648   1.612 -1.3817  0.3586  0.5232
19859TIP3    H280993   1.187   1.781   1.613 -1.0898  0.2251 -0.7271
19860TIP3   OH280994   3.494   0.581   0.497  0.7270 -0.0258  0.7550
19860TIP3    H180995   3.487   0.559   0.404  0.2653 -1.7678  1.1699
19860TIP3    H280996   3.421   0.535   0.538 -1.3724  3.6618  1.5536
19861TIP3   OH280997   6.300   0.437  15.056 -0.8581  0.1196  0.6016
19861TIP3    H180998   6.239   0.363  15.056 -0.8356  0.0925  1.3984
19861TIP3    H280999   6.267   0.495  14.988 -1.5003 -0.1200  0.6983
19862TIP3   OH281000   0.039   4.519  14.298  0.2170  0.7090 -0.2485
19862TIP3    H181001   0.134   4.528  14.295  0.3513 -0.2959  0.4770
19862TIP3    H281002   0.011   4.524  14.207  1.2821 -1.9288 -0.7954
19863TIP3   OH281003   1.689   1.908  11.268  0.4706  0.6748  0.1347
19863TIP3    H181004   1.769   1.856  11.267  1.3880  2.0339 -1.0540
19863TIP3    H281005   1.624   1.852  11.226  0.9296 -0.2446  0.6237
19864TIP3   OH281006   6.521   5.296   5.454 -0.3316  0.4939  0.0183
19864TIP3    H181007   6.562   5.231   5.397  1.6143  2.1697 -0.5887
19864TIP3    H281008   6.587   5.365   5.464 -1.8938  1.8592  1.5494
19865TIP3   OH281009   5.764   4.796   1.709  0.3481  0.5103 -0.3207
19865TIP3    H181010   5.737   4.723   1.764  2.6835 -0.9526 -0.9780
19865TIP3    H281011   5.682   4.833   1.675 -0.8899 -2.2000 -0.4852
19866TIP3   OH281012   2.117   1.765   6.628  0.2359  0.2206 -0.2785
19866TIP3    H181013   2.047   1.816   6.668 -0.8510 -1.0594 -0.4710
19866TIP3    H281014   2.197   1.796   6.670 -0.6128  0.6386  1.0793
19867TIP3   OH281015   4.737   6.502  16.090  0.0191  0.1113 -0.3037
19867TIP3    H181016   4.752   6.566  16.161  0.6137  0.2704 -0.5657
19867TIP3    H281017   4.787   6.425  16.117  1.2587  0.6082 -1.1380
19868TIP3   OH281018   4.420   3.674   4.361  0.4586  0.0455  0.0437
19868TIP3    H181019   4.428   3.579   4.364 -0.1221 -0.0353 -0.5969
19868TIP3    H281020   4.503   3.705   4.324 -0.0328 -0.3594 -1.4748
19869TIP3   OH281021   6.624   4.829  11.380 -0.2769 -0.1011  0.4669
19869TIP3    H181022   6.649   4.759  11.319  0.7436  0.7460 -0.1246
19869TIP3    H281023   6.708   4.869  11.406 -0.8880  1.5245  0.0227
19870TIP3   OH281024   6.171   3.581   0.076  0.0552  0.3801 -0.1702
19870TIP3    H181025   6.122   3.613   0.000  1.1883 -0.2488 -1.2101
19870TIP3    H281026   6.127   3.500   0.101 -0.0753  0.3712 -0.4290
19871TIP3   OH281027   5.711   2.528  15.252 -0.0709  0.1025  0.2771
19871TIP3    H181028   5.730   2.605  15.306 -0.9172 -0.2217  1.0467
19871TIP3    H281029   5.664   2.468  15.310 -2.7375  0.5152 -1.2906
19872TIP3   OH281030   4.534   0.136   1.771 -0.1022 -0.0764 -0.2129
19872TIP3    H181031   4.572   0.049   1.785 -1.0357 -0.1984  1.8137
19872TIP3    H281032   4.609   0.196   1.775  0.2000 -0.5238  1.4267
19873TIP3   OH281033   6.049   2.278   5.049 -0.4794  0.3952 -0.4000
19873TIP3    H181034   5.996   2.357   5.044 -0.4562  0.6184  1.8891
19873TIP3    H281035   6.140   2.309   5.048 -0.4415  0.7160  2.7653
19874TIP3   OH281036   3.954   3.867  12.468 -0.1391 -0.1136 -0.2663
19874TIP3    H181037   3.876   3.817  12.492  0.3120 -1.8583 -2.2140
19874TIP3    H281038   3.938   3.896  12.379  0.9768  0.4819 -0.2917
19875TIP3   OH281039   4.986   5.825   3.736 -0.0232  0.8854 -0.6028
19875TIP3    H181040   5.036   5.862   3.809 -0.5653  0.5140 -0.0319
19875TIP3    H281041   5.002   5.884   3.662  1.9090  0.3454 -0.6662
19876TIP3   OH281042   0.111   1.888  16.415  0.6147  0.5073  0.1624
19876TIP3    H181043   0.156   1.972  16.426  0.0945  1.1023 -1.7546
19876TIP3    H281044   0.065   1.897  16.332  0.1049 -1.5004  0.1775
19877TIP3   OH281045   6.117   2.947  16.146  0.3514  0.7217 -0.1282
19877TIP3    H181046   6.068   2.977  16.223 -2.8685  1.5107 -2.2760
19877TIP3    H281047   6.063   2.876  16.110  3.0039 -1.2732 -0.4362
19878TIP3   OH281048   2.776   6.024   0.340 -0.1120  0.0481 -0.3374
19878TIP3    H181049   2.858   6.066   0.364 -0.2698  0.0736  0.1805
19878TIP3    H281050   2.795   5.930   0.344 -0.3091  0.0325  0.5744
19879TIP3   OH281051   6.442   0.591  12.001 -0.2557 -0.0600  0.7207
19879TIP3    H181052   6.384   0.530  11.954 -3.3077  2.7244  0.5296
19879TIP3    H281053   6.458   0.548  12.085 -1.4290 -1.6061  0.2165
19880TIP3   OH281054   2.556   4.314  16.153 -0.0415  0.5091 -0.2769
19880TIP3    H181055   2.555   4.218  16.151 -1.6960  0.4166  1.6970
19880TIP3    H281056   2.642   4.336  16.188  0.9158 -0.1307 -2.0607
19881TIP3   OH281057   0.607   5.305  16.648 -0.0136  0.5290  0.2607
19881TIP3    H181058   0.618   5.381  16.706  2.6624  0.4694 -0.0342
19881TIP3    H281059   0.682   5.249  16.668 -0.9893 -1.2311 -0.7651
19882TIP3   OH281060   0.883   4.149   3.175  0.5596  0.2699 -0.0965
19882TIP3    H181061   0.897   4.073   3.119  1.7214 -0.0839  0.6309
19882TIP3    H281062   0.968   4.191   3.181  0.5170  0.2027  1.5134
19883TIP3   OH281063   4.468   6.326   5.032 -0.0867 -0.0143  0.3736
19883TIP3    H181064   4.460   6.408   5.081  0.8440  1.3767 -1.6880
19883TIP3    H281065   4.533   6.276   5.081  0.2904  1.0283  0.9857
19884TIP3   OH281066   2.831   0.699   5.063  0.2094  0.5286 -0.0777
19884TIP3    H181067   2.795   0.784   5.040  0.4212  0.1732 -1.8404
19884TIP3    H281068   2.785   0.674   5.143 -3.3308  0.1825 -2.0495
19885TIP3   OH281069   4.927   2.907   5.539 -0.1122  0.2785  0.4220
19885TIP3    H181070   4.986   2.941   5.472  0.3948  0.2130  0.8270
19885TIP3    H281071   4.890   2.828   5.500 -1.2292  1.2318 -0.4859
19886TIP3   OH281072   2.022   4.774  14.849  0.9510  0.3564 -0.0599
19886TIP3    H181073   1.992   4.865  14.846 -0.0191  0.1949  2.3997
19886TIP3    H281074   2.093   4.774  14.913 -0.2715 -0.8602  1.3842
19887TIP3   OH281075   1.203   5.458  13.353 -0.2745  0.2053  0.1802
19887TIP3    H181076   1.229   5.546  13.381 -1.1650  0.5613 -0.0853
19887TIP3    H281077   1.284   5.407  13.357  0.1411  0.8953  0.8748
19888TIP3   OH281078   0.106   5.583   1.027  0.2988 -0.0956  0.0883
19888TIP3    H181079   0.039   5.550   1.087 -0.0830  0.2714 -0.1299
19888TIP3    H281080   0.188   5.545   1.059  0.1056  0.1132  0.8594
19889TIP3   OH281081   3.997   4.431  14.666 -0.3729  0.2260  0.4018
19889TIP3    H181082   4.027   4.341  14.678 -1.0680  0.0732  1.0712
19889TIP3    H281083   3.911   4.423  14.625 -0.8085  0.5505  1.2284
19890TIP3   OH281084   2.008   6.794   3.437 -0.3510 -0.2377  0.0672
19890TIP3    H181085   1.977   6.759   3.521  0.6703 -1.7840 -0.1651
19890TIP3    H281086   2.098   6.762   3.430 -0.3846 -0.0454 -1.5744
19891TIP3   OH281087   5.649   2.457  13.985 -0.1303 -0.2565 -0.5118
19891TIP3    H181088   5.617   2.531  13.933 -1.0460  0.3702  0.9066
19891TIP3    H281089   5.602   2.381  13.951  1.2141 -0.3354 -2.3535
19892TIP3   OH281090   1.338   5.602   2.212  0.3510 -0.0163 -0.3131
19892TIP3    H181091   1.266   5.637   2.264  1.5063 -1.1237  2.2368
19892TIP3    H281092   1.314   5.511   2.197 -0.1899  0.4034 -2.2643
19893TIP3   OH281093   2.541   4.978   6.269 -0.7502 -0.3632 -0.2331
19893TIP3    H181094   2.507   5.042   6.207  2.9594  3.3781  1.1492
19893TIP3    H281095   2.513   5.010   6.355  0.0710 -1.3477  0.4281
19894TIP3   OH281096   2.316   1.735   0.661  0.7298 -0.7253  1.0021
19894TIP3    H181097   2.308   1.641   0.646 -0.8312 -0.8929  2.5393
19894TIP3    H281098   2.226   1.765   0.672  1.1328  1.1344 -0.2969
19895TIP3   OH281099   2.717   0.393  11.194 -0.4988  0.4211 -0.2039
19895TIP3    H181100   2.783   0.446  11.240 -1.9298  2.5922 -0.5204
19895TIP3    H281101   2.696   0.323  11.256  1.5268  0.1194  0.2002
19896TIP3   OH281102   5.049   5.493  16.574  0.2968 -0.2451 -0.4309
19896TIP3    H181103   5.047   5.502  16.670  0.9867 -0.1091 -0.4235
19896TIP3    H281104   4.997   5.567  16.542  1.1404  0.4576 -0.1982
19897TIP3   OH281105   6.654   2.166  11.083  0.2635  0.4223  0.5194
19897TIP3    H181106   6.744   2.189  11.109  0.5473  0.0923 -0.1475
19897TIP3    H281107   6.661   2.147  10.989 -0.0048 -2.0998  0.9456
19898TIP3   OH281108   5.022   3.243   1.725 -0.5474 -0.2107 -0.6204
19898TIP3    H181109   4.982   3.196   1.652  0.5009 -0.1790 -1.2345
19898TIP3    H281110   5.111   3.261   1.696 -0.5979  1.2354  0.0216
19899TIP3   OH281111   2.525   0.823   3.466  0.1712 -0.8423 -0.0020
19899TIP3    H181112   2.557   0.740   3.501  2.5814  0.1065  0.2844
19899TIP3    H281113   2.579   0.889   3.508 -0.2430  0.7242 -1.7649
19900TIP3   OH281114   1.593   1.240  11.991  0.4835 -0.1461  0.1369
19900TIP3    H181115   1.620   1.332  11.993 -4.3050  1.5740  1.3281
19900TIP3    H281116   1.571   1.223  11.899  3.3036 -0.9370 -0.4736
19901TIP3   OH281117   0.328   2.072  15.843  0.6010 -0.6191  0.1492
19901TIP3    H181118   0.410   2.085  15.891  2.2727 -1.1340 -2.3448
19901TIP3    H281119   0.289   2.159  15.837  2.0853  0.0326 -0.4452
19902TIP3   OH281120   2.684   0.205   2.263 -0.1396 -0.1773 -0.0388
19902TIP3    H181121   2.751   0.273   2.266 -0.4007  0.1026 -0.4818
19902TIP3    H281122   2.643   0.208   2.349 -0.2027  0.2867 -0.0817
19903TIP3   OH281123   0.195   1.758  11.504  0.4626  0.6909 -0.4875
19903TIP3    H181124   0.183   1.806  11.586  0.7408  1.3526 -0.8249
19903TIP3    H281125   0.271   1.702  11.519  0.9325  1.3105 -0.5068
19904TIP3   OH281126   6.717   5.928   3.415 -0.4252  0.8026 -0.4353
19904TIP3    H181127   6.635   5.949   3.459 -0.7348 -1.6229  0.2692
19904TIP3    H281128   6.711   5.973   3.330 -2.3462  0.9023 -0.2868
19905TIP3   OH281129   2.753   6.647  13.340  0.3706 -0.3254 -0.1228
19905TIP3    H181130   2.739   6.603  13.256 -0.8522 -1.3383  0.5674
19905TIP3    H281131   2.763   6.576  13.403 -1.6331  0.3270  1.0330
19906TIP3   OH281132   5.142   2.760  12.818 -0.7689  0.1493 -0.1519
19906TIP3    H181133   5.123   2.738  12.726 -0.0422 -1.2793  0.0180
19906TIP3    H281134   5.088   2.699  12.869 -0.5126  0.3567  0.3708
19907TIP3   OH281135   6.592   4.401   2.948 -0.0645  0.2155  0.2190
19907TIP3    H181136   6.644   4.365   3.020  1.8582 -0.1722 -1.2719
19907TIP3    H281137   6.503   4.367   2.963  0.9957 -2.6916  0.5840
19908TIP3   OH281138   4.734   5.252  13.534  0.1880 -0.0159 -0.3317
19908TIP3    H181139   4.765   5.341  13.520 -0.0875 -0.1040 -1.7142
19908TIP3    H281140   4.708   5.222  13.446  2.3994 -2.2439 -0.3549
19909TIP3   OH281141   4.940   6.286   4.636 -0.1009  0.2256 -0.8305
19909TIP3    H181142   4.849   6.266   4.656  0.0720 -0.3878 -0.6558
19909TIP3    H281143   4.966   6.350   4.702 -0.4466  0.5249 -0.9774
19910TIP3   OH281144   0.868   1.703   2.030  0.2753 -0.0989 -0.8534
19910TIP3    H181145   0.775   1.681   2.017  0.1657  0.2274 -0.6460
19910TIP3    H281146   0.880   1.786   1.984  0.2699  0.2533 -0.2316
19911TIP3   OH281147   5.892   5.146   1.939 -0.2160  0.0377 -0.4691
19911TIP3    H181148   5.932   5.160   1.853  0.1352 -2.5836 -0.8328
19911TIP3    H281149   5.798   5.142   1.922 -0.0812 -1.9012 -1.0677
19912TIP3   OH281150   4.873   3.979   4.677 -0.5533 -0.1378 -0.2029
19912TIP3    H181151   4.897   3.949   4.764 -0.5261 -0.7872 -0.4251
19912TIP3    H281152   4.946   4.034   4.648  0.3790 -1.5527 -0.6095
19913TIP3   OH281153   4.016   1.653  13.387 -0.1147 -0.3185  0.0472
19913TIP3    H181154   4.051   1.575  13.429 -0.6404 -0.4057  0.3294
19913TIP3    H281155   4.076   1.723  13.411 -0.8715 -0.1924  1.6642
19914TIP3   OH281156   3.158   1.227  14.138  0.7578  0.4450 -0.3264
19914TIP3    H181157   3.250   1.236  14.161  0.6909  0.4599 -0.0570
19914TIP3    H281158   3.111   1.270  14.210  0.4883 -0.8263  0.2907
19915TIP3   OH281159   1.958   1.431  15.149  0.3820 -0.1644 -0.2979
19915TIP3    H181160   2.036   1.458  15.101 -0.4483  0.8024 -1.1701
19915TIP3    H281161   1.898   1.399  15.081  0.1142 -1.1693  0.3853
19916TIP3   OH281162   6.259   2.006   3.609 -0.4597 -0.3090  0.3855
19916TIP3    H181163   6.316   2.072   3.650 -0.7690 -0.1824  0.6176
19916TIP3    H281164   6.320   1.943   3.571 -0.1524 -0.8323  1.6825
19917TIP3   OH281165   0.210   0.064  11.792  0.5681 -0.1345  0.8929
19917TIP3    H181166   0.172   0.133  11.847 -0.2932 -0.5660  0.8724
19917TIP3    H281167   0.287   0.103  11.752 -0.6003  1.2405 -0.1252
19918TIP3   OH281168   4.310   1.482   1.887  0.5153  1.0978 -0.1771
19918TIP3    H181169   4.385   1.447   1.839 -0.9688  0.1282 -1.9158
19918TIP3    H281170   4.282   1.557   1.834 -0.6644  0.5145 -0.3863
19919TIP3   OH281171   1.663   4.640  12.951 -0.2402 -0.2702  0.0619
19919TIP3    H181172   1.745   4.631  12.998 -0.6058 -1.2320  0.5486
19919TIP3    H281173   1.686   4.622  12.860  0.6868  2.7144 -0.3996
19920TIP3   OH281174   1.897   2.610   4.814  0.2990  0.0655 -0.0985
19920TIP3    H181175   1.835   2.587   4.882 -1.0170  1.1342 -0.8887
19920TIP3    H281176   1.963   2.540   4.817 -1.1849 -1.3762  0.4298
19921TIP3   OH281177   4.667   0.633   4.659 -0.2504  0.3378  0.3715
19921TIP3    H181178   4.738   0.688   4.626  0.1528 -0.1891  0.3371
19921TIP3    H281179   4.641   0.580   4.584 -0.1518 -0.0168  0.5860
19922TIP3   OH281180   1.662   6.148   4.098  0.2587  0.2457 -0.3242
19922TIP3    H181181   1.681   6.196   4.018 -0.2039 -0.3758 -0.8177
19922TIP3    H281182   1.612   6.071   4.069 -0.1226  0.1389  0.5781
19923TIP3   OH281183   0.286   3.611   5.933  0.3294 -0.4472 -0.2225
19923TIP3    H181184   0.271   3.622   5.839  0.2826 -0.6699 -0.2420
19923TIP3    H281185   0.304   3.699   5.965  2.4919 -0.5995 -0.8212
19924TIP3   OH281186   1.246   0.365   1.253  0.1728  0.5932  0.6115
19924TIP3    H181187   1.232   0.272   1.238 -2.6480  0.7579  1.5457
19924TIP3    H281188   1.282   0.370   1.342  2.4267  0.3555 -0.2317
19925TIP3   OH281189   2.091   0.486  11.699  0.1850  0.1325 -0.3137
19925TIP3    H181190   2.157   0.524  11.642 -0.5649 -0.8329 -1.9047
19925TIP3    H281191   2.018   0.548  11.697  1.0279  1.2656  1.5505
19926TIP3   OH281192   3.713   5.979   1.675 -0.0984 -0.1392  0.5334
19926TIP3    H181193   3.756   6.059   1.644  0.1245  0.0256  1.2461
19926TIP3    H281194   3.621   6.003   1.686 -0.3452 -0.4205 -0.7456
19927TIP3   OH281195   5.658   6.504   2.766  0.6302 -0.4742  0.1550
19927TIP3    H181196   5.730   6.562   2.742  0.2495 -0.2703 -0.5184
19927TIP3    H281197   5.639   6.454   2.686 -0.1143 -0.3754  0.2615
19928TIP3   OH281198   5.285   6.168  16.197  0.6008 -0.9543 -0.1151
19928TIP3    H181199   5.326   6.152  16.112 -0.4828  0.7378 -1.0255
19928TIP3    H281200   5.252   6.083  16.225  0.4043 -1.4350 -1.7122
19929TIP3   OH281201   3.661   4.034   5.437 -0.0947  0.0909  0.2793
19929TIP3    H181202   3.615   4.091   5.375 -1.1887  0.2749  1.2177
19929TIP3    H281203   3.686   3.957   5.385 -0.3688  0.5508 -0.5489
19930TIP3   OH281204   2.203   0.362  15.973  0.3780 -0.3141  0.2897
19930TIP3    H181205   2.141   0.293  15.998 -0.7835  0.4711 -0.3353
19930TIP3    H281206   2.274   0.316  15.930 -1.3500 -1.0048 -1.9996
19931TIP3   OH281207   3.564   2.105  16.605 -0.6958 -0.1296 -0.3003
19931TIP3    H181208   3.649   2.146  16.621  0.1441 -1.8078 -0.1911
19931TIP3    H281209   3.518   2.111  16.689 -0.2713 -0.1005 -0.0681
19932TIP3   OH281210   2.989   2.700   4.555 -0.1150 -0.1211 -0.4106
19932TIP3    H181211   3.042   2.676   4.631  0.8156  2.0539 -0.2921
19932TIP3    H281212   3.028   2.651   4.483 -0.3747 -1.4354  0.2953
19933TIP3   OH281213   1.135   2.216  11.700  0.1336 -0.0204 -0.0625
19933TIP3    H181214   1.126   2.310  11.713  0.2703  0.0387 -0.3752
19933TIP3    H281215   1.164   2.208  11.609 -0.0122 -0.3705 -0.0788
19934TIP3   OH281216   0.879   4.474   5.571 -1.0577 -0.0587  0.4649
19934TIP3    H181217   0.912   4.420   5.642 -0.0547  0.2612  0.2536
19934TIP3    H281218   0.784   4.474   5.584 -0.8627  0.5418  2.2085
19935TIP3   OH281219   5.869   0.081   5.100  0.7171  0.1118  0.5759
19935TIP3    H181220   5.903   0.116   5.018  1.3890 -0.1171  0.7517
19935TIP3    H281221   5.799   0.141   5.125 -0.0852 -0.3003 -0.6075
19936TIP3   OH281222   1.952   0.383  14.841  0.1179 -0.2331 -0.0452
19936TIP3    H181223   1.944   0.304  14.788 -0.3866  1.0045 -1.9499
19936TIP3    H281224   1.864   0.422  14.838 -0.2104 -0.6164  2.6294
19937TIP3   OH281225   6.274   6.076   3.712 -0.1321  0.4107 -0.2875
19937TIP3    H181226   6.303   6.120   3.792  0.6973  0.2511 -0.4916
19937TIP3    H281227   6.196   6.027   3.739 -1.2258  2.1786 -0.1238
19938TIP3   OH281228   5.760   2.743   0.055 -0.4117 -0.3906 -0.0125
19938TIP3    H181229   5.793   2.833   0.057  0.7132 -0.7343 -1.2076
19938TIP3    H281230   5.730   2.731  -0.035  1.0275 -1.7083 -0.3592
19939TIP3   OH281231   3.870   5.742  14.889 -0.3459 -0.3340  0.1928
19939TIP3    H181232   3.781   5.714  14.910 -0.5547  0.2734  0.1423
19939TIP3    H281233   3.919   5.731  14.971 -0.7922  0.5997  0.5898
19940TIP3   OH281234   0.067   1.725  11.007 -0.7781 -0.2535 -0.1622
19940TIP3    H181235   0.015   1.789  10.959 -2.3357 -2.3355 -1.4719
19940TIP3    H281236   0.018   1.709  11.088 -1.2942 -0.9422 -0.5959
19941TIP3   OH281237   2.311   2.631   4.790 -0.4270  0.2040  0.2416
19941TIP3    H181238   2.242   2.582   4.835 -0.1633  0.7901  1.3117
19941TIP3    H281239   2.342   2.572   4.721 -2.8407  0.3839 -1.1054
19942TIP3   OH281240   5.165   2.270   2.839  0.0847  0.5451  0.4713
19942TIP3    H181241   5.258   2.262   2.861 -0.0505  0.7842  1.1327
19942TIP3    H281242   5.119   2.253   2.921 -0.4651  0.2634  0.1102
19943TIP3   OH281243   2.280   4.195  11.125 -0.5209  0.6530  0.4276
19943TIP3    H181244   2.212   4.134  11.097  0.8214 -0.5659 -0.3857
19943TIP3    H281245   2.339   4.200  11.050  1.0190  0.5492  1.5797
19944TIP3   OH281246   3.873   1.293   2.247  0.1256 -0.5324  0.2990
19944TIP3    H181247   3.812   1.294   2.320 -0.2353  0.4339 -0.0056
19944TIP3    H281248   3.896   1.384   2.232 -0.5572 -0.5896 -1.4027
19945TIP3   OH281249   4.830   0.655   4.312 -0.0913 -0.3264 -0.4537
19945TIP3    H181250   4.801   0.745   4.300 -0.5764 -0.4030  0.0909
19945TIP3    H281251   4.752   0.602   4.292  0.4070 -0.6654 -1.5547
19946TIP3   OH281252   3.586   6.096   3.926 -0.1332  0.4115 -0.0747
19946TIP3    H181253   3.672   6.055   3.912 -0.6208 -0.1109 -1.8306
19946TIP3    H281254   3.533   6.028   3.967  0.6075  1.1563  2.2821
19947TIP3   OH281255   2.721   6.350   1.814 -0.4793  0.3646  0.2278
19947TIP3    H181256   2.648   6.288   1.809 -0.7330  0.6841 -0.0571
19947TIP3    H281257   2.687   6.424   1.864  0.8107 -1.0757  3.5022
19948TIP3   OH281258   2.277   4.411   1.576  0.9155 -0.4359 -0.2032
19948TIP3    H181259   2.331   4.356   1.632  2.0559  0.0527 -0.7846
19948TIP3    H281260   2.254   4.486   1.631  0.0339 -1.0851  0.3358
19949TIP3   OH281261   1.179   4.363   1.377  0.2425 -0.1129 -0.6965
19949TIP3    H181262   1.106   4.316   1.417  0.2628 -0.6934 -1.3236
19949TIP3    H281263   1.257   4.319   1.409  0.2672 -0.4075 -1.1593
19950TIP3   OH281264   6.047   2.128  12.926 -0.2891 -0.4372 -0.1554
19950TIP3    H181265   6.044   2.066  12.853  0.8102 -0.3726 -0.2825
19950TIP3    H281266   5.959   2.126  12.964 -1.1415  0.1681 -2.0003
19951TIP3   OH281267   1.861   6.330  16.601 -0.0924 -0.2340 -0.0085
19951TIP3    H181268   1.885   6.276  16.526 -1.5431 -1.0423  0.0695
19951TIP3    H281269   1.944   6.369  16.630  0.1873  2.3858 -3.6759
19952TIP3   OH281270   6.099   3.365  13.247 -0.1652 -0.3730  0.2570
19952TIP3    H181271   6.157   3.422  13.298 -1.3352 -0.1579  1.3980
19952TIP3    H281272   6.146   3.281  13.243  0.2580 -0.1922  1.1134
19953TIP3   OH281273   3.465   2.075  14.880  0.0477  0.5373 -0.6674
19953TIP3    H181274   3.494   2.118  14.800  1.6104 -1.0910 -1.0334
19953TIP3    H281275   3.504   1.987  14.876 -0.5504  0.1157  1.4542
19954TIP3   OH281276   6.750   2.538   1.790  0.1042 -1.0337  0.0897
19954TIP3    H181277   6.730   2.508   1.702 -0.6720 -1.1856  0.3130
19954TIP3    H281278   6.820   2.602   1.778 -1.0557  0.1191 -0.8015
19955TIP3   OH281279   6.003   6.802  12.886 -0.3156 -0.3678  0.2087
19955TIP3    H181280   5.927   6.859  12.901  0.3170  0.7506 -0.7000
19955TIP3    H281281   5.968   6.714  12.893 -1.4810  0.1243  0.9030
19956TIP3   OH281282   2.464   2.499  12.846 -0.0511 -0.1286 -0.2026
19956TIP3    H181283   2.510   2.471  12.767 -3.2602 -0.4743 -2.1363
19956TIP3    H281284   2.417   2.421  12.875 -0.2922  0.4628  1.0571
19957TIP3   OH281285   5.228   4.603   1.518  0.0105  0.0426  0.5146
19957TIP3    H181286   5.258   4.512   1.515  0.3401  0.1446  0.6614
19957TIP3    H281287   5.137   4.597   1.546  0.0054 -0.2486  0.4406
19958TIP3   OH281288   1.819   2.958   6.109  0.1392  0.4170  0.1044
19958TIP3    H181289   1.735   2.977   6.151  0.5995  3.2403 -0.0762
19958TIP3    H281290   1.841   2.870   6.138 -1.7599  0.5247  2.0881
19959TIP3   OH281291   4.657   0.435  16.109 -0.0630 -0.0918  0.3217
19959TIP3    H181292   4.603   0.463  16.183  1.0112  0.0857  1.0707
19959TIP3    H281293   4.643   0.341  16.103 -1.2168  0.0969 -0.1404
19960TIP3   OH281294   0.530   1.319  16.773  0.4546  0.2947  0.8279
19960TIP3    H181295   0.486   1.246  16.728 -0.9590  0.1197  2.3921
19960TIP3    H281296   0.481   1.396  16.748  0.0950  0.2898  1.4983
19961TIP3   OH281297   2.883   0.003   6.261 -0.5574 -0.3453  0.3503
19961TIP3    H181298   2.902  -0.071   6.318 -1.1067 -1.9635 -1.4479
19961TIP3    H281299   2.952  -0.001   6.194 -1.5889 -0.3107 -0.7409
19962TIP3   OH281300   3.543   2.382   1.306 -0.8632  0.0094  0.4312
19962TIP3    H181301   3.634   2.412   1.308 -0.7156 -0.4593  0.9969
19962TIP3    H281302   3.549   2.286   1.304 -1.3450 -0.0607  1.6905
19963TIP3   OH281303   1.874   2.593   3.196 -0.0436 -0.1317  0.6224
19963TIP3    H181304   1.810   2.661   3.173  0.7788  0.7811  0.9573
19963TIP3    H281305   1.914   2.624   3.277 -1.5358 -2.3555  2.3282
19964TIP3   OH281306   4.010   3.861   3.781  0.0697 -0.3231 -0.9433
19964TIP3    H181307   3.929   3.812   3.763 -1.0265  0.5952  1.1822
19964TIP3    H281308   4.000   3.942   3.730  0.5778 -1.0106 -2.1907
19965TIP3   OH281309   2.892   1.102  15.471  0.4096 -0.1812 -0.5169
19965TIP3    H181310   2.945   1.129  15.545 -0.8435  0.2255  0.2630
19965TIP3    H281311   2.809   1.148  15.483 -0.8554 -2.3067 -0.5725
19966TIP3   OH281312   1.229   6.368   2.806 -0.6540 -1.1064 -0.5586
19966TIP3    H181313   1.232   6.333   2.895  0.1672  0.9486  0.2889
19966TIP3    H281314   1.300   6.324   2.760  1.9362  0.9633  1.1498
19967TIP3   OH281315   3.393   5.221   0.075  0.4085 -0.1245  0.5191
19967TIP3    H181316   3.319   5.192   0.022  1.2713 -1.7852  0.1683
19967TIP3    H281317   3.356   5.290   0.131 -1.0711  0.0155 -0.5591
19968LIG      O81318   3.433   3.215  16.274  0.8174 -0.0419 -0.6530
19968LIG      N81319   3.357   3.572  16.597  1.1441  0.0234  0.3292
19968LIG     C181320   3.456   3.146  16.513  0.5951  0.6291 -0.0390
19968LIG     C281321   3.376   3.221  16.408  0.2801  0.2601  0.0779
19968LIG     C381322   3.471   2.996  16.480 -0.6107  0.3830 -0.7825
19968LIG     C481323   3.598   3.205  16.538 -0.5525  0.2051  0.3634
19968LIG     C581324   3.367   3.381  16.436 -0.1412  0.3462  0.5723
19968LIG     C681325   3.547   2.919  16.590 -0.4481 -0.0257  0.5070
19968LIG     C781326   3.665   3.120  16.648 -0.3052 -0.2648 -0.1533
19968LIG     C881327   3.682   2.976  16.623  0.3526  0.7223  0.0280
19968LIG     C981328   3.329   3.429  16.578 -0.0535  0.4091  0.0252
19968LIG    C1081329   3.219   3.174  16.403 -0.4142  0.1692 -0.3160
19968LIG    C1181330   3.286   3.654  16.505 -0.7741 -0.1194 -0.3676
19968LIG    C1281331   3.331   3.619  16.742 -0.7737 -0.0660 -0.4729
19968LIG    C1381332   3.139   3.645  16.525 -0.1244 -0.3850  0.1668
19968LIG    C1481333   3.175   3.614  16.773 -0.0782 -0.7238  0.3383
19968LIG    C1581334   3.091   3.677  16.663  0.0280  0.0709  0.1716
19968LIG    C1681335   3.148   3.135  16.520  0.5123  0.1076 -0.3989
19968LIG    C1781336   3.152   3.163  16.283  0.2233 -1.0478 -0.1730
19968LIG    C1881337   3.014   3.089  16.511  0.3833 -0.2847 -0.7988
19968LIG    C1981338   3.020   3.122  16.277  0.0058 -0.4583  0.3034
19968LIG    C2081339   2.953   3.076  16.393 -0.2466  0.1480  0.5327
19968LIG     H181340   3.396   3.165  16.605  1.6481  1.8554  0.4348
19968LIG     H281341   3.526   2.986  16.383  2.5127  0.8426  0.7946
19968LIG     H381342   3.369   2.953  16.469 -0.4190  0.1868 -2.0712
19968LIG     H481343   3.588   3.310  16.573 -4.3167 -0.5775  2.1718
19968LIG     H581344   3.647   3.188  16.439 -3.1434 -0.4400 -0.9099
19968LIG     H681345   3.300   3.429  16.362  1.5214  2.1149  0.1324
19968LIG     H781346   3.470   3.415  16.413 -0.8664  1.4250 -1.2945
19968LIG     H881347   3.564   2.814  16.559  2.0889  0.2924  0.6306
19968LIG     H981348   3.496   2.905  16.687  0.7997 -1.1401  1.0269
19968LIG    H1081349   3.613   3.128  16.746  1.8053 -1.4063  1.1400
19968LIG    H1181350   3.768   3.161  16.659 -0.2124 -0.3204 -0.8240
19968LIG    H1281351   3.745   2.962  16.533 -0.3369 -1.8030 -0.1268
19968LIG    H1381352   3.730   2.919  16.706 -0.8497 -0.1821  0.1346
19968LIG    H1481353   3.225   3.401  16.603  0.7947 -0.9390  2.2935
19968LIG    H1581354   3.401   3.379  16.646 -0.4635  0.3562  0.4257
19968LIG    H1681355   3.309   3.633  16.398 -1.6258 -3.3649 -0.0437
19968LIG    H1781356   3.305   3.761  16.525 -2.7512  0.1961  0.0169
19968LIG    H1881357   3.363   3.724  16.759  0.2666 -0.5049  0.3856
19968LIG    H1981358   3.385   3.556  16.816  2.4615  1.2045 -1.5871
19968LIG    H2081359   3.444   3.121  16.256  1.7600 -0.1943  0.5594
19968LIG    H2181360   3.099   3.542  16.518  2.3140 -1.5015  1.3046
19968LIG    H2281361   3.102   3.710  16.443 -0.4313 -1.1907 -0.3375
19968LIG    H2381362   3.143   3.660  16.869 -0.6829 -0.1470 -0.1297
19968LIG    H2481363   3.159   3.505  16.790  2.3678 -1.1256  0.4465
19968LIG    H2581364   2.987   3.656  16.694  0.8059 -1.6053  1.8667
19968LIG    H2681365   3.111   3.786  16.666 -0.3127  0.1283  0.4411
19968LIG    H2781366   3.187   3.158  16.618  0.8958 -0.8395 -0.3196
19968LIG    H2881367   3.193   3.185  16.185 -1.7111 -0.5071 -0.8876
19968LIG    H2981368   2.954   3.061  16.597 -2.6147 -0.8364 -2.9375
19968LIG    H3081369   2.971   3.118  16.180  1.9458 -0.2045 -0.7445
19968LIG    H3181370   2.853   3.035  16.386  0.1615 -0.6813 -0.8839
   6.81125   6.81125  17.09490
